LIGPARGEN GENERATED GRO FILE
   35
    1UNK    C00    1   0.100   0.100   0.000
    1UNK    C01    2  -0.052   0.100   0.000
    1UNK    C02    3  -0.106   0.100   0.143
    1UNK    C03    4  -0.259   0.100   0.148
    1UNK    C04    5  -0.315   0.100   0.292
    1UNK    C05    6  -0.266   0.219   0.378
    1UNK    C06    7  -0.309   0.356   0.329
    1UNK    C07    8  -0.469   0.093   0.292
    1UNK    C08    9  -0.523  -0.031   0.226
    1UNK    O09   10  -0.589  -0.026   0.122
    1UNK    C0A   11  -0.494  -0.161   0.292
    1UNK    C0B   12  -0.576  -0.284   0.259
    1UNK    C0C   13  -0.434  -0.274   0.212
    1UNK    H0D   14   0.138   0.105  -0.102
    1UNK    H0E   15   0.139   0.009   0.047
    1UNK    H0F   16   0.139   0.186   0.055
    1UNK    H0G   17  -0.089   0.012  -0.054
    1UNK    H0H   18  -0.088   0.189  -0.053
    1UNK    H0I   19  -0.067   0.189   0.194
    1UNK    H0J   20  -0.068   0.012   0.196
    1UNK    H0K   21  -0.294   0.010   0.095
    1UNK    H0M   22  -0.298   0.185   0.091
    1UNK    H0N   23  -0.277   0.009   0.341
    1UNK    H0O   24  -0.156   0.216   0.384
    1UNK    H0P   25  -0.301   0.206   0.480
    1UNK    H0Q   26  -0.302   0.366   0.220
    1UNK    H0R   27  -0.245   0.433   0.373
    1UNK    H0S   28  -0.412   0.377   0.359
    1UNK    H0T   29  -0.511   0.180   0.241
    1UNK    H0U   30  -0.507   0.095   0.395
    1UNK    H0V   31  -0.461  -0.153   0.395
    1UNK    H0W   32  -0.655  -0.276   0.185
    1UNK    H0X   33  -0.598  -0.354   0.339
    1UNK    H0Y   34  -0.417  -0.258   0.105
    1UNK    H0Z   35  -0.359  -0.337   0.259
   1.00000   1.00000   1.00000

