LIGPARGEN GENERATED GRO FILE
   40
    1UNK    C00    1   0.100   0.100   0.000
    1UNK    C01    2  -0.052   0.100   0.000
    1UNK    C02    3  -0.107   0.100   0.143
    1UNK    C03    4  -0.259   0.100   0.145
    1UNK    C04    5  -0.309   0.100   0.290
    1UNK    C05    6  -0.462   0.100   0.297
    1UNK    C06    7  -0.509   0.100   0.442
    1UNK    O07    8  -0.442   0.050   0.532
    1UNK    C08    9  -0.643   0.163   0.471
    1UNK    C09   10  -0.760   0.096   0.398
    1UNK    C0A   11  -0.772  -0.051   0.440
    1UNK    C0B   12  -0.893   0.168   0.425
    1UNK    C0C   13  -0.895   0.313   0.375
    1UNK    C0D   14  -1.029   0.380   0.403
    1UNK    H0E   15   0.138   0.100  -0.102
    1UNK    H0F   16   0.139   0.011   0.051
    1UNK    H0G   17   0.139   0.189   0.051
    1UNK    H0H   18  -0.088   0.012  -0.054
    1UNK    H0I   19  -0.088   0.188  -0.054
    1UNK    H0J   20  -0.069   0.188   0.196
    1UNK    H0K   21  -0.069   0.012   0.196
    1UNK    H0M   22  -0.298   0.012   0.093
    1UNK    H0N   23  -0.297   0.189   0.093
    1UNK    H0O   24  -0.270   0.188   0.342
    1UNK    H0P   25  -0.270   0.012   0.342
    1UNK    H0Q   26  -0.503   0.012   0.248
    1UNK    H0R   27  -0.500   0.190   0.248
    1UNK    H0S   28  -0.633   0.269   0.443
    1UNK    H0T   29  -0.660   0.161   0.580
    1UNK    H0U   30  -0.740   0.098   0.290
    1UNK    H0V   31  -0.796  -0.060   0.546
    1UNK    H0W   32  -0.679  -0.106   0.422
    1UNK    H0X   33  -0.851  -0.101   0.382
    1UNK    H0Y   34  -0.915   0.166   0.532
    1UNK    H0Z   35  -0.974   0.113   0.375
    1UNK    H10   36  -0.876   0.315   0.267
    1UNK    H11   37  -0.817   0.372   0.424
    1UNK    H12   38  -1.111   0.327   0.353
    1UNK    H13   39  -1.027   0.483   0.367
    1UNK    H14   40  -1.049   0.382   0.511
   1.00000   1.00000   1.00000

