LIGPARGEN GENERATED GRO FILE
   34
    1UNK    C00    1   0.100   0.100   0.000
    1UNK    C01    2  -0.053   0.100   0.000
    1UNK    C02    3  -0.116   0.100   0.141
    1UNK    C03    4  -0.116   0.223   0.231
    1UNK    C04    5  -0.002   0.327   0.243
    1UNK    C05    6  -0.094   0.433   0.177
    1UNK    C06    7  -0.213   0.342   0.213
    1UNK    C07    8  -0.072   0.480   0.032
    1UNK    C08    9  -0.202   0.531  -0.031
    1UNK    C09   10   0.004   0.388  -0.059
    1UNK    O0A   11   0.126   0.391  -0.071
    1UNK    O0B   12  -0.075   0.316  -0.142
    1UNK    C0C   13  -0.119   0.182  -0.113
    1UNK    C0D   14  -0.271   0.182  -0.112
    1UNK    H0E   15   0.139   0.017   0.060
    1UNK    H0F   16   0.144   0.190   0.041
    1UNK    H0G   17   0.139   0.088  -0.102
    1UNK    H0H   18  -0.076  -0.003  -0.033
    1UNK    H0I   19  -0.064   0.021   0.196
    1UNK    H0J   20  -0.219   0.064   0.133
    1UNK    H0K   21  -0.136   0.179   0.331
    1UNK    H0M   22   0.093   0.304   0.195
    1UNK    H0N   23   0.021   0.350   0.348
    1UNK    H0O   24  -0.096   0.524   0.238
    1UNK    H0P   25  -0.295   0.333   0.142
    1UNK    H0Q   26  -0.259   0.373   0.308
    1UNK    H0R   27  -0.007   0.569   0.038
    1UNK    H0S   28  -0.276   0.452  -0.043
    1UNK    H0T   29  -0.183   0.572  -0.131
    1UNK    H0U   30  -0.247   0.609   0.031
    1UNK    H0V   31  -0.092   0.130  -0.206
    1UNK    H0W   32  -0.312   0.222  -0.020
    1UNK    H0X   33  -0.310   0.081  -0.124
    1UNK    H0Y   34  -0.311   0.245  -0.193
   1.00000   1.00000   1.00000

