LIGPARGEN GENERATED GRO FILE
   32
    1UNK    C00    1   0.100   0.100   0.000
    1UNK    C01    2  -0.052   0.100   0.000
    1UNK    S02    3  -0.114   0.100   0.167
    1UNK    O03    4  -0.074  -0.025   0.229
    1UNK    O04    5  -0.078   0.228   0.225
    1UNK    C05    6  -0.292   0.096   0.145
    1UNK    C06    7  -0.368   0.080   0.276
    1UNK    C07    8  -0.352   0.199   0.371
    1UNK    C08    9  -0.427   0.190   0.507
    1UNK    C09   10  -0.377   0.069   0.589
    1UNK    C0A   11  -0.396   0.318   0.587
    1UNK    C0B   12  -0.578   0.179   0.486
    1UNK    H0C   13   0.139   0.105  -0.102
    1UNK    H0D   14   0.139   0.009   0.047
    1UNK    H0E   15   0.139   0.186   0.056
    1UNK    H0F   16  -0.091   0.011  -0.051
    1UNK    H0G   17  -0.090   0.190  -0.049
    1UNK    H0H   18  -0.313   0.010   0.081
    1UNK    H0I   19  -0.321   0.187   0.093
    1UNK    H0J   20  -0.335  -0.012   0.326
    1UNK    H0K   21  -0.474   0.067   0.252
    1UNK    H0M   22  -0.384   0.290   0.319
    1UNK    H0N   23  -0.246   0.212   0.395
    1UNK    H0O   24  -0.269   0.075   0.605
    1UNK    H0P   25  -0.398  -0.026   0.538
    1UNK    H0Q   26  -0.425   0.066   0.687
    1UNK    H0R   27  -0.289   0.328   0.607
    1UNK    H0S   28  -0.448   0.318   0.683
    1UNK    H0T   29  -0.428   0.407   0.532
    1UNK    H0U   30  -0.606   0.086   0.435
    1UNK    H0V   31  -0.616   0.263   0.426
    1UNK    H0W   32  -0.631   0.180   0.582
   1.00000   1.00000   1.00000

