LIGPARGEN GENERATED GRO FILE
   36
    1UNK    C00    1   0.100   0.100   0.000
    1UNK    C01    2  -0.052   0.100   0.000
    1UNK    C02    3  -0.118   0.100   0.141
    1UNK    C03    4  -0.271   0.100   0.125
    1UNK    C04    5  -0.325  -0.031   0.068
    1UNK    C05    6  -0.275  -0.154   0.143
    1UNK    C06    7  -0.124  -0.151   0.169
    1UNK    C07    8  -0.075  -0.019   0.230
    1UNK    C08    9  -0.126  -0.007   0.374
    1UNK    O09   10  -0.189  -0.094   0.433
    1UNK    O0A   11  -0.086   0.110   0.433
    1UNK    C0B   12  -0.131   0.127   0.569
    1UNK    C0C   13  -0.042   0.048   0.665
    1UNK    C0D   14  -0.124   0.276   0.602
    1UNK    H0E   15   0.137   0.100  -0.103
    1UNK    H0F   16   0.141   0.011   0.048
    1UNK    H0G   17   0.140   0.189   0.050
    1UNK    H0H   18  -0.085   0.014  -0.059
    1UNK    H0I   19  -0.086   0.189  -0.054
    1UNK    H0J   20  -0.089   0.194   0.190
    1UNK    H0K   21  -0.302   0.183   0.061
    1UNK    H0M   22  -0.318   0.118   0.223
    1UNK    H0N   23  -0.298  -0.039  -0.038
    1UNK    H0O   24  -0.435  -0.029   0.070
    1UNK    H0P   25  -0.300  -0.244   0.086
    1UNK    H0Q   26  -0.329  -0.162   0.237
    1UNK    H0R   27  -0.070  -0.170   0.075
    1UNK    H0S   28  -0.098  -0.235   0.236
    1UNK    H0T   29   0.034  -0.023   0.238
    1UNK    H0U   30  -0.235   0.095   0.578
    1UNK    H0V   31   0.063   0.078   0.654
    1UNK    H0W   32  -0.046  -0.059   0.643
    1UNK    H0X   33  -0.072   0.064   0.768
    1UNK    H0Y   34  -0.022   0.315   0.592
    1UNK    H0Z   35  -0.159   0.295   0.704
    1UNK    H10   36  -0.187   0.333   0.533
   1.00000   1.00000   1.00000

