LIGPARGEN GENERATED GRO FILE
   28
    1UNK    C00    1   0.100   0.100   0.000
    1UNK    C01    2  -0.052   0.100   0.000
    1UNK    C02    3  -0.109   0.100   0.142
    1UNK    C03    4  -0.262   0.100   0.141
    1UNK    O04    5  -0.322   0.144   0.043
    1UNK    C05    6  -0.331   0.039   0.261
    1UNK    C06    7  -0.286   0.099   0.395
    1UNK    C07    8  -0.322   0.246   0.415
    1UNK    S08    9  -0.509   0.038   0.243
    1UNK    C09   10  -0.543  -0.056   0.095
    1UNK    O0A   11  -0.561  -0.042   0.353
    1UNK    O0B   12  -0.558   0.173   0.224
    1UNK    H0C   13   0.138   0.100  -0.103
    1UNK    H0D   14   0.139   0.011   0.050
    1UNK    H0E   15   0.139   0.189   0.051
    1UNK    H0F   16  -0.088   0.012  -0.054
    1UNK    H0G   17  -0.088   0.188  -0.055
    1UNK    H0H   18  -0.075   0.189   0.197
    1UNK    H0I   19  -0.074   0.010   0.194
    1UNK    H0J   20  -0.303  -0.068   0.261
    1UNK    H0K   21  -0.178   0.089   0.405
    1UNK    H0M   22  -0.330   0.042   0.477
    1UNK    H0N   23  -0.295   0.306   0.328
    1UNK    H0O   24  -0.268   0.286   0.501
    1UNK    H0P   25  -0.429   0.258   0.434
    1UNK    H0Q   26  -0.503  -0.157   0.108
    1UNK    H0R   27  -0.499  -0.008   0.008
    1UNK    H0S   28  -0.651  -0.060   0.083
   1.00000   1.00000   1.00000

