LIGPARGEN GENERATED GRO FILE
   26
    1UNK    C00    1   0.100   0.100   0.000
    1UNK    C01    2  -0.052   0.100   0.000
    1UNK    C02    3  -0.108   0.100   0.143
    1UNK    C03    4  -0.263   0.100   0.152
    1UNK    C04    5  -0.320  -0.024   0.082
    1UNK    C05    6  -0.310   0.109   0.300
    1UNK    C06    7  -0.260   0.236   0.371
    1UNK    S07    8  -0.490   0.105   0.316
    1UNK    O08    9  -0.548   0.211   0.236
    1UNK    O09   10  -0.536  -0.032   0.306
    1UNK    F0A   11  -0.521   0.146   0.467
    1UNK    H0B   12   0.138   0.100  -0.103
    1UNK    H0C   13   0.139   0.011   0.050
    1UNK    H0D   14   0.140   0.189   0.051
    1UNK    H0E   15  -0.085   0.012  -0.055
    1UNK    H0F   16  -0.088   0.188  -0.054
    1UNK    H0G   17  -0.068   0.189   0.192
    1UNK    H0H   18  -0.069   0.013   0.197
    1UNK    H0I   19  -0.300   0.188   0.098
    1UNK    H0J   20  -0.290  -0.116   0.134
    1UNK    H0K   21  -0.287  -0.032  -0.022
    1UNK    H0M   22  -0.429  -0.021   0.077
    1UNK    H0N   23  -0.274   0.022   0.356
    1UNK    H0O   24  -0.290   0.326   0.317
    1UNK    H0P   25  -0.151   0.236   0.382
    1UNK    H0Q   26  -0.301   0.243   0.472
   1.00000   1.00000   1.00000

