
;
; GENERATED BY LigParGen Server
; Jorgensen Lab @ Yale University 
;
[ atomtypes ]
  opls_818  H818     1.0080     0.000    A    2.50000E-01   1.25520E-01
  opls_824  H824     1.0080     0.000    A    2.50000E-01   1.25520E-01
  opls_805  C805    12.0110     0.000    A    3.50000E-01   2.76144E-01
  opls_810  C810    12.0110     0.000    A    3.50000E-01   2.76144E-01
  opls_813  H813     1.0080     0.000    A    2.50000E-01   1.25520E-01
  opls_801  O801    15.9990     0.000    A    2.90000E-01   5.85760E-01
  opls_803  O803    15.9990     0.000    A    2.96000E-01   8.78640E-01
  opls_806  C806    12.0110     0.000    A    3.50000E-01   2.76144E-01
  opls_815  H815     1.0080     0.000    A    2.50000E-01   1.25520E-01
  opls_809  C809    12.0110     0.000    A    3.50000E-01   2.76144E-01
  opls_822  H822     1.0080     0.000    A    2.50000E-01   1.25520E-01
  opls_807  C807    12.0110     0.000    A    3.50000E-01   2.76144E-01
  opls_812  F812    18.9984     0.000    A    2.90000E-01   2.51040E-01
  opls_825  H825     1.0080     0.000    A    2.50000E-01   1.25520E-01
  opls_814  H814     1.0080     0.000    A    2.50000E-01   1.25520E-01
  opls_821  H821     1.0080     0.000    A    2.50000E-01   1.25520E-01
  opls_820  H820     1.0080     0.000    A    2.50000E-01   1.25520E-01
  opls_816  H816     1.0080     0.000    A    2.50000E-01   1.25520E-01
  opls_800  C800    12.0110     0.000    A    3.50000E-01   2.76144E-01
  opls_811  C811    12.0110     0.000    A    3.50000E-01   2.76144E-01
  opls_802  C802    12.0110     0.000    A    3.55000E-01   2.92880E-01
  opls_823  H823     1.0080     0.000    A    2.50000E-01   1.25520E-01
  opls_808  F808    18.9984     0.000    A    2.90000E-01   2.51040E-01
  opls_826  H826     1.0080     0.000    A    2.50000E-01   1.25520E-01
  opls_819  H819     1.0080     0.000    A    2.50000E-01   1.25520E-01
  opls_804  C804    12.0110     0.000    A    3.50000E-01   2.76144E-01
  opls_817  H817     1.0080     0.000    A    2.50000E-01   1.25520E-01
[ moleculetype ]
; Name               nrexcl
UNK                   3
[ atoms ]
;   nr       type  resnr residue  atom   cgnr     charge       mass  
     1   opls_800      1    UNK   C00      1    -0.0592    12.0110 
     2   opls_801      1    UNK   O01      1     -0.356    15.9990 
     3   opls_802      1    UNK   C02      1     0.4412    12.0110 
     4   opls_803      1    UNK   O03      1    -0.4411    15.9990 
     5   opls_804      1    UNK   C04      1     -0.126    12.0110 
     6   opls_805      1    UNK   C05      1    -0.2069    12.0110 
     7   opls_806      1    UNK   C06      1     0.1192    12.0110 
     8   opls_807      1    UNK   C07      1    -0.2655    12.0110 
     9   opls_808      1    UNK   F08      1    -0.1766    18.9984 
    10   opls_809      1    UNK   C09      1    -0.2122    12.0110 
    11   opls_810      1    UNK   C0A      1     -0.148    12.0110 
    12   opls_811      1    UNK   C0B      1     0.0132    12.0110 
    13   opls_812      1    UNK   F0C      1    -0.1864    18.9984 
    14   opls_813      1    UNK   H0D      1      0.104     1.0080 
    15   opls_814      1    UNK   H0E      1      0.104     1.0080 
    16   opls_815      1    UNK   H0F      1      0.104     1.0080 
    17   opls_816      1    UNK   H0G      1     0.1525     1.0080 
    18   opls_817      1    UNK   H0H      1     0.1298     1.0080 
    19   opls_818      1    UNK   H0I      1     0.1298     1.0080 
    20   opls_819      1    UNK   H0J      1     0.1021     1.0080 
    21   opls_820      1    UNK   H0K      1     0.1021     1.0080 
    22   opls_821      1    UNK   H0M      1     0.1021     1.0080 
    23   opls_822      1    UNK   H0N      1     0.1229     1.0080 
    24   opls_823      1    UNK   H0O      1     0.1229     1.0080 
    25   opls_824      1    UNK   H0P      1     0.1254     1.0080 
    26   opls_825      1    UNK   H0Q      1     0.1013     1.0080 
    27   opls_826      1    UNK   H0R      1     0.1013     1.0080 
[ bonds ]
    2     1     1      0.1410 267776.000
    3     2     1      0.1327 179075.200
    4     3     1      0.1229 476976.000
    5     3     1      0.1522 265265.600
    6     5     1      0.1529 224262.400
    7     6     1      0.1529 224262.400
    8     7     1      0.1529 224262.400
    9     7     1      0.1360 307105.600
   10     7     1      0.1529 224262.400
   11     5     1      0.1529 224262.400
   12    11     1      0.1529 224262.400
   13    12     1      0.1360 307105.600
   14     1     1      0.1090 284512.000
   15     1     1      0.1090 284512.000
   16     1     1      0.1090 284512.000
   17     5     1      0.1090 284512.000
   18     6     1      0.1090 284512.000
   19     6     1      0.1090 284512.000
   20     8     1      0.1090 284512.000
   21     8     1      0.1090 284512.000
   22     8     1      0.1090 284512.000
   23    10     1      0.1090 284512.000
   24    10     1      0.1090 284512.000
   25    11     1      0.1090 284512.000
   26    12     1      0.1090 284512.000
   27    12     1      0.1090 284512.000
   11    10     1      0.1529 224262.400

[ angles ]
;  ai    aj    ak funct            c0            c1            c2            c3 
    1     2     3     1    116.900    694.544
    2     3     4     1    123.400    694.544
    2     3     5     1    111.400    677.808
    3     5     6     1    111.100    527.184
    5     6     7     1    112.700    488.273
    6     7     8     1    112.700    488.273
    6     7     9     1    109.500    418.400
    6     7    10     1    112.700    488.273
    3     5    11     1    111.100    527.184
    5    11    12     1    112.700    488.273
   11    12    13     1    109.500    418.400
    2     1    14     1    109.500    292.880
    2     1    15     1    109.500    292.880
    2     1    16     1    109.500    292.880
    3     5    17     1    109.500    292.880
    5     6    18     1    110.700    313.800
    5     6    19     1    110.700    313.800
    7     8    20     1    110.700    313.800
    7     8    21     1    110.700    313.800
    7     8    22     1    110.700    313.800
    7    10    23     1    110.700    313.800
    7    10    24     1    110.700    313.800
    5    11    25     1    110.700    313.800
   11    12    26     1    110.700    313.800
   11    12    27     1    110.700    313.800
    9     7    10     1    109.500    418.400
    6     5    11     1    112.700    488.273
   12    11    25     1    110.700    313.800
   18     6    19     1    107.800    276.144
    8     7    10     1    112.700    488.273
    7    10    11     1    112.700    488.273
    8     7     9     1    109.500    418.400
    6     5    17     1    110.700    313.800
    4     3     5     1    120.400    669.440
   20     8    22     1    107.800    276.144
    5    11    10     1    112.700    488.273
   15     1    16     1    107.800    276.144
   14     1    15     1    107.800    276.144
   10    11    12     1    112.700    488.273
    7     6    18     1    110.700    313.800
    7     6    19     1    110.700    313.800
   23    10    24     1    107.800    276.144
   21     8    22     1    107.800    276.144
   20     8    21     1    107.800    276.144
   14     1    16     1    107.800    276.144
   26    12    27     1    107.800    276.144
   10    11    25     1    110.700    313.800
   11    10    23     1    110.700    313.800
   13    12    26     1    107.000    334.720
   13    12    27     1    107.000    334.720
   11    10    24     1    110.700    313.800
   11     5    17     1    110.700    313.800

[ dihedrals ]
; IMPROPER DIHEDRAL ANGLES 
;  ai    aj    ak    al funct            c0            c1            c2            c3            c4            c5
     5     3     2     4    4        180.000     43.932     2  

[ dihedrals ]
; PROPER DIHEDRAL ANGLES
;  ai    aj    ak    al funct            c0            c1            c2            c3            c4            c5
    5    3    2    1        3      31.206  -9.768  -21.439  -0.000  -0.000   0.000
    6    5    3    4        3       0.000   0.000   0.000  -0.000  -0.000   0.000
   11    5    3    4        3       0.000   0.000   0.000  -0.000  -0.000   0.000
    6    5    3    2        3      -1.157  -3.471   0.000   4.628  -0.000   0.000
   11    5    3    2        3      -1.157  -3.471   0.000   4.628  -0.000   0.000
    7    6    5    3        3      -4.960   6.286   1.310  -2.636  -0.000   0.000
   12   11    5    3        3      -4.960   6.286   1.310  -2.636  -0.000   0.000
   10   11    5    3        3      -4.960   6.286   1.310  -2.636  -0.000   0.000
    7   10   11    5        3       2.301  -1.464   0.837  -1.674  -0.000   0.000
   12   11   10    7        3       2.301  -1.464   0.837  -1.674  -0.000   0.000
   11   10    7    6        3       2.301  -1.464   0.837  -1.674  -0.000   0.000
   10    7    6    5        3       2.301  -1.464   0.837  -1.674  -0.000   0.000
   11   10    7    8        3       2.301  -1.464   0.837  -1.674  -0.000   0.000
   12   11    5    6        3       2.301  -1.464   0.837  -1.674  -0.000   0.000
   10   11    5    6        3       2.301  -1.464   0.837  -1.674  -0.000   0.000
   11    5    6    7        3       2.301  -1.464   0.837  -1.674  -0.000   0.000
    8    7    6    5        3       2.301  -1.464   0.837  -1.674  -0.000   0.000
   11   10    7    9        3      -0.209   1.883   1.674  -3.347  -0.000   0.000
    9    7    6    5        3      -0.209   1.883   1.674  -3.347  -0.000   0.000
   13   12   11   10        3      -0.209   1.883   1.674  -3.347  -0.000   0.000
   13   12   11    5        3      -0.209   1.883   1.674  -3.347  -0.000   0.000
   17    5    3    4        3       0.000   0.000   0.000  -0.000  -0.000   0.000
   17    5    3    2        3       0.276   0.828   0.000  -1.105  -0.000   0.000
   18    6    5    3        3      -0.209  -0.628   0.000   0.837  -0.000   0.000
   19    6    5    3        3      -0.209  -0.628   0.000   0.837  -0.000   0.000
   25   11    5    3        3      -0.209  -0.628   0.000   0.837  -0.000   0.000
   18    6    7   10        3       0.628   1.883   0.000  -2.510  -0.000   0.000
   22    8    7    6        3       0.628   1.883   0.000  -2.510  -0.000   0.000
   20    8    7   10        3       0.628   1.883   0.000  -2.510  -0.000   0.000
   26   12   11   10        3       0.628   1.883   0.000  -2.510  -0.000   0.000
   21    8    7    6        3       0.628   1.883   0.000  -2.510  -0.000   0.000
   25   11    5    6        3       0.628   1.883   0.000  -2.510  -0.000   0.000
   19    6    7   10        3       0.628   1.883   0.000  -2.510  -0.000   0.000
   24   10    7    8        3       0.628   1.883   0.000  -2.510  -0.000   0.000
   24   10   11   12        3       0.628   1.883   0.000  -2.510  -0.000   0.000
   24   10    7    6        3       0.628   1.883   0.000  -2.510  -0.000   0.000
   18    6    5   11        3       0.628   1.883   0.000  -2.510  -0.000   0.000
   26   12   11    5        3       0.628   1.883   0.000  -2.510  -0.000   0.000
   23   10   11    5        3       0.628   1.883   0.000  -2.510  -0.000   0.000
   27   12   11   10        3       0.628   1.883   0.000  -2.510  -0.000   0.000
   23   10   11   12        3       0.628   1.883   0.000  -2.510  -0.000   0.000
   19    6    7    8        3       0.628   1.883   0.000  -2.510  -0.000   0.000
   18    6    7    8        3       0.628   1.883   0.000  -2.510  -0.000   0.000
   19    6    5   11        3       0.628   1.883   0.000  -2.510  -0.000   0.000
   23   10    7    8        3       0.628   1.883   0.000  -2.510  -0.000   0.000
   17    5   11   10        3       0.628   1.883   0.000  -2.510  -0.000   0.000
   25   11   10    7        3       0.628   1.883   0.000  -2.510  -0.000   0.000
   17    5    6    7        3       0.628   1.883   0.000  -2.510  -0.000   0.000
   20    8    7    6        3       0.628   1.883   0.000  -2.510  -0.000   0.000
   23   10    7    6        3       0.628   1.883   0.000  -2.510  -0.000   0.000
   17    5   11   12        3       0.628   1.883   0.000  -2.510  -0.000   0.000
   27   12   11    5        3       0.628   1.883   0.000  -2.510  -0.000   0.000
   24   10   11    5        3       0.628   1.883   0.000  -2.510  -0.000   0.000
   21    8    7   10        3       0.628   1.883   0.000  -2.510  -0.000   0.000
   22    8    7   10        3       0.628   1.883   0.000  -2.510  -0.000   0.000
   19    6    7    9        3       0.837   2.510   0.000  -3.347  -0.000   0.000
   18    6    7    9        3       0.837   2.510   0.000  -3.347  -0.000   0.000
   24   10    7    9        3       0.837   2.510   0.000  -3.347  -0.000   0.000
   25   11   12   13        3       0.837   2.510   0.000  -3.347  -0.000   0.000
   21    8    7    9        3       0.837   2.510   0.000  -3.347  -0.000   0.000
   22    8    7    9        3       0.837   2.510   0.000  -3.347  -0.000   0.000
   23   10    7    9        3       0.837   2.510   0.000  -3.347  -0.000   0.000
   20    8    7    9        3       0.837   2.510   0.000  -3.347  -0.000   0.000
   25   11    5   17        3       0.628   1.883   0.000  -2.510  -0.000   0.000
   27   12   11   25        3       0.628   1.883   0.000  -2.510  -0.000   0.000
   18    6    5   17        3       0.628   1.883   0.000  -2.510  -0.000   0.000
   25   11   10   24        3       0.628   1.883   0.000  -2.510  -0.000   0.000
   19    6    5   17        3       0.628   1.883   0.000  -2.510  -0.000   0.000
   26   12   11   25        3       0.628   1.883   0.000  -2.510  -0.000   0.000
   25   11   10   23        3       0.628   1.883   0.000  -2.510  -0.000   0.000
   15    1    2    3        3       0.414   1.243   0.000  -1.657  -0.000   0.000
   14    1    2    3        3       0.414   1.243   0.000  -1.657  -0.000   0.000
   16    1    2    3        3       0.414   1.243   0.000  -1.657  -0.000   0.000
    4    3    2    1        3      21.439   0.000  -21.439  -0.000  -0.000   0.000

[ pairs ]
     1     4    1
     1     5    1
     2     6    1
     4     6    1
     3     7    1
     5     8    1
     3    10    1
     2    11    1
     5     9    1
     4    11    1
     3    12    1
     3    14    1
     6    12    1
     5    13    1
     3    15    1
     8    11    1
     7    12    1
     3    16    1
     2    17    1
     9    11    1
     4    17    1
     3    18    1
     3    19    1
    10    13    1
     7    17    1
     8    18    1
     6    20    1
    10    17    1
     9    18    1
     8    19    1
     6    21    1
    10    18    1
     9    19    1
     6    22    1
     5    23    1
     3    25    1
    12    17    1
    11    18    1
    10    19    1
     9    20    1
     6    23    1
     5    24    1
    11    19    1
    10    20    1
     9    21    1
     6    24    1
    10    21    1
     9    22    1
     8    23    1
     6    25    1
     5    26    1
    10    22    1
     9    23    1
     8    24    1
     7    25    1
     5    27    1
     9    24    1
    17    18    1
    12    23    1
    17    19    1
    12    24    1
    10    26    1
    10    27    1
    13    25    1
    17    25    1
    23    25    1
    24    25    1
    25    26    1
    25    27    1

