LIGPARGEN GENERATED GRO FILE
   27
    1UNK    C00    1   0.100   0.100   0.000
    1UNK    C01    2  -0.052   0.100   0.000
    1UNK    C02    3  -0.119   0.100   0.139
    1UNK    S03    4  -0.059   0.233   0.252
    1UNK    C04    5  -0.127   0.380   0.169
    1UNK    C05    6  -0.270   0.108   0.123
    1UNK    O06    7  -0.326   0.174   0.037
    1UNK    O07    8  -0.334   0.034   0.218
    1UNK    C08    9  -0.478   0.036   0.209
    1UNK    C09   10  -0.525  -0.065   0.105
    1UNK    C0A   11  -0.534   0.002   0.347
    1UNK    H0B   12   0.137   0.083  -0.102
    1UNK    H0C   13   0.140   0.021   0.064
    1UNK    H0D   14   0.140   0.196   0.033
    1UNK    H0E   15  -0.086   0.011  -0.054
    1UNK    H0F   16  -0.087   0.185  -0.060
    1UNK    H0G   17  -0.094   0.004   0.187
    1UNK    H0H   18  -0.078   0.469   0.209
    1UNK    H0I   19  -0.234   0.388   0.188
    1UNK    H0J   20  -0.108   0.377   0.061
    1UNK    H0K   21  -0.513   0.137   0.183
    1UNK    H0M   22  -0.489  -0.166   0.130
    1UNK    H0N   23  -0.484  -0.041   0.007
    1UNK    H0O   24  -0.634  -0.067   0.098
    1UNK    H0P   25  -0.501  -0.097   0.380
    1UNK    H0Q   26  -0.644   0.003   0.346
    1UNK    H0R   27  -0.499   0.074   0.421
   1.00000   1.00000   1.00000

