LIGPARGEN GENERATED GRO FILE
   40
    1UNK    C00    1   0.100   0.100   0.000
    1UNK    C01    2  -0.052   0.100   0.000
    1UNK    C02    3  -0.107   0.100   0.143
    1UNK    C03    4  -0.262   0.100   0.155
    1UNK    C04    5  -0.312  -0.023   0.078
    1UNK    O05    6  -0.287  -0.137   0.116
    1UNK    C06    7  -0.386   0.005  -0.053
    1UNK    C07    8  -0.441  -0.121  -0.117
    1UNK    C08    9  -0.311   0.099   0.305
    1UNK    C09   10  -0.243   0.214   0.387
    1UNK    C0A   11  -0.286   0.355   0.347
    1UNK    C0B   12  -0.467   0.101   0.326
    1UNK    C0C   13  -0.540  -0.023   0.272
    1UNK    C0D   14  -0.505   0.110   0.476
    1UNK    H0E   15   0.138   0.100  -0.103
    1UNK    H0F   16   0.139   0.011   0.050
    1UNK    H0G   17   0.140   0.188   0.051
    1UNK    H0H   18  -0.086   0.012  -0.055
    1UNK    H0I   19  -0.088   0.189  -0.053
    1UNK    H0J   20  -0.066   0.190   0.191
    1UNK    H0K   21  -0.067   0.013   0.197
    1UNK    H0M   22  -0.302   0.189   0.105
    1UNK    H0N   23  -0.318   0.055  -0.122
    1UNK    H0O   24  -0.469   0.074  -0.031
    1UNK    H0P   25  -0.361  -0.194  -0.134
    1UNK    H0Q   26  -0.488  -0.098  -0.212
    1UNK    H0R   27  -0.516  -0.168  -0.052
    1UNK    H0S   28  -0.274   0.006   0.350
    1UNK    H0T   29  -0.134   0.207   0.379
    1UNK    H0U   30  -0.262   0.201   0.494
    1UNK    H0V   31  -0.290   0.368   0.238
    1UNK    H0W   32  -0.214   0.428   0.386
    1UNK    H0X   33  -0.384   0.380   0.389
    1UNK    H0Y   34  -0.509   0.189   0.276
    1UNK    H0Z   35  -0.492  -0.116   0.306
    1UNK    H10   36  -0.545  -0.023   0.163
    1UNK    H11   37  -0.644  -0.025   0.305
    1UNK    H12   38  -0.456   0.031   0.533
    1UNK    H13   39  -0.613   0.099   0.489
    1UNK    H14   40  -0.479   0.206   0.519
   1.00000   1.00000   1.00000

