LIGPARGEN GENERATED GRO FILE
   35
    1UNK    C00    1   0.100   0.100   0.000
    1UNK    C01    2  -0.052   0.100   0.000
    1UNK    C02    3  -0.108   0.100   0.142
    1UNK    C03    4  -0.263   0.113   0.160
    1UNK    C04    5  -0.344  -0.011   0.105
    1UNK    C05    6  -0.496   0.002   0.130
    1UNK    C06    7  -0.326  -0.038  -0.045
    1UNK    C07    8  -0.297   0.142   0.311
    1UNK    C08    9  -0.258   0.029   0.407
    1UNK    C09   10  -0.235   0.272   0.362
    1UNK    O0A   11  -0.123   0.282   0.410
    1UNK    O0B   12  -0.325   0.374   0.351
    1UNK    C0C   13  -0.280   0.499   0.406
    1UNK    H0D   14   0.138   0.091  -0.102
    1UNK    H0E   15   0.139   0.015   0.057
    1UNK    H0F   16   0.140   0.192   0.043
    1UNK    H0G   17  -0.082   0.011  -0.054
    1UNK    H0H   18  -0.089   0.187  -0.056
    1UNK    H0I   19  -0.061   0.185   0.192
    1UNK    H0J   20  -0.073   0.010   0.194
    1UNK    H0K   21  -0.295   0.201   0.102
    1UNK    H0M   22  -0.310  -0.101   0.159
    1UNK    H0N   23  -0.535   0.094   0.085
    1UNK    H0O   24  -0.520   0.001   0.236
    1UNK    H0P   25  -0.549  -0.083   0.086
    1UNK    H0Q   26  -0.313   0.054  -0.101
    1UNK    H0R   27  -0.412  -0.091  -0.088
    1UNK    H0S   28  -0.241  -0.105  -0.062
    1UNK    H0T   29  -0.405   0.155   0.321
    1UNK    H0U   30  -0.150   0.010   0.407
    1UNK    H0V   31  -0.310  -0.064   0.384
    1UNK    H0W   32  -0.285   0.057   0.510
    1UNK    H0X   33  -0.368   0.555   0.440
    1UNK    H0Y   34  -0.229   0.556   0.328
    1UNK    H0Z   35  -0.214   0.485   0.493
   1.00000   1.00000   1.00000

