LIGPARGEN GENERATED GRO FILE
   26
    1UNK    C00    1   0.100   0.100   0.000
    1UNK    C01    2  -0.052   0.100   0.000
    1UNK    S02    3  -0.116   0.100   0.167
    1UNK    O03    4  -0.074  -0.024   0.230
    1UNK    O04    5  -0.083   0.229   0.224
    1UNK    C05    6  -0.293   0.092   0.142
    1UNK    C06    7  -0.373   0.079   0.274
    1UNK    C07    8  -0.357   0.203   0.362
    1UNK    C08    9  -0.524   0.058   0.247
    1UNK    C09   10  -0.557  -0.072   0.176
    1UNK    Cl0   11  -0.734  -0.089   0.158
    1UNK    H0B   12   0.139   0.105  -0.102
    1UNK    H0C   13   0.139   0.009   0.047
    1UNK    H0D   14   0.140   0.186   0.055
    1UNK    H0E   15  -0.090   0.011  -0.051
    1UNK    H0F   16  -0.090   0.190  -0.050
    1UNK    H0G   17  -0.309   0.003   0.080
    1UNK    H0H   18  -0.323   0.180   0.086
    1UNK    H0I   19  -0.336  -0.007   0.330
    1UNK    H0J   20  -0.381   0.295   0.307
    1UNK    H0K   21  -0.255   0.212   0.401
    1UNK    H0M   22  -0.422   0.198   0.450
    1UNK    H0N   23  -0.562   0.143   0.189
    1UNK    H0O   24  -0.577   0.060   0.344
    1UNK    H0P   25  -0.522  -0.159   0.234
    1UNK    H0Q   26  -0.515  -0.076   0.076
   1.00000   1.00000   1.00000

