LIGPARGEN GENERATED GRO FILE
   31
    1UNK    C00    1   0.100   0.100   0.000
    1UNK    C01    2  -0.051   0.100   0.000
    1UNK    O02    3  -0.113   0.100   0.106
    1UNK    C03    4  -0.120   0.106  -0.137
    1UNK    C04    5  -0.093  -0.017  -0.225
    1UNK    C05    6  -0.167  -0.141  -0.170
    1UNK    C06    7  -0.319  -0.115  -0.167
    1UNK    C07    8  -0.368  -0.083  -0.309
    1UNK    C08    9  -0.295   0.041  -0.364
    1UNK    C09   10  -0.144   0.013  -0.367
    1UNK    C0A   11  -0.323   0.161  -0.271
    1UNK    C0B   12  -0.273   0.130  -0.128
    1UNK    C0C   13  -0.347   0.006  -0.076
    1UNK    H0D   14   0.136   0.111   0.102
    1UNK    H0E   15   0.137   0.184  -0.059
    1UNK    H0F   16   0.138   0.006  -0.040
    1UNK    H0G   17  -0.076   0.195  -0.185
    1UNK    H0H   18   0.015  -0.039  -0.229
    1UNK    H0I   19  -0.131  -0.165  -0.069
    1UNK    H0J   20  -0.146  -0.228  -0.233
    1UNK    H0K   21  -0.371  -0.203  -0.129
    1UNK    H0M   22  -0.476  -0.066  -0.308
    1UNK    H0N   23  -0.350  -0.169  -0.375
    1UNK    H0O   24  -0.331   0.063  -0.465
    1UNK    H0P   25  -0.091   0.099  -0.409
    1UNK    H0Q   26  -0.124  -0.073  -0.433
    1UNK    H0R   27  -0.431   0.182  -0.269
    1UNK    H0S   28  -0.273   0.251  -0.309
    1UNK    H0T   29  -0.295   0.215  -0.063
    1UNK    H0U   30  -0.455   0.026  -0.073
    1UNK    H0V   31  -0.317  -0.017   0.026
   1.00000   1.00000   1.00000

