
;
; GENERATED BY LigParGen Server
; Jorgensen Lab @ Yale University 
;
[ atomtypes ]
  opls_818  H818     1.0080     0.000    A    2.50000E-01   1.25520E-01
  opls_824  H824     1.0080     0.000    A    2.50000E-01   1.25520E-01
  opls_805  C805    12.0110     0.000    A    3.50000E-01   2.76144E-01
  opls_828  H828     1.0080     0.000    A    2.50000E-01   1.25520E-01
  opls_810  C810    12.0110     0.000    A    3.50000E-01   2.76144E-01
  opls_813  H813     1.0080     0.000    A    2.50000E-01   1.25520E-01
  opls_806  C806    12.0110     0.000    A    3.50000E-01   2.76144E-01
  opls_815  H815     1.0080     0.000    A    2.50000E-01   1.25520E-01
  opls_809  C809    12.0110     0.000    A    3.50000E-01   2.76144E-01
  opls_830  H830     1.0080     0.000    A    2.50000E-01   1.25520E-01
  opls_802  O802    15.9990     0.000    A    2.96000E-01   8.78640E-01
  opls_822  H822     1.0080     0.000    A    2.50000E-01   1.25520E-01
  opls_803  C803    12.0110     0.000    A    3.50000E-01   2.76144E-01
  opls_825  H825     1.0080     0.000    A    2.50000E-01   1.25520E-01
  opls_814  H814     1.0080     0.000    A    2.50000E-01   1.25520E-01
  opls_821  H821     1.0080     0.000    A    2.50000E-01   1.25520E-01
  opls_820  H820     1.0080     0.000    A    2.50000E-01   1.25520E-01
  opls_801  C801    12.0110     0.000    A    3.55000E-01   2.92880E-01
  opls_829  H829     1.0080     0.000    A    2.50000E-01   1.25520E-01
  opls_816  H816     1.0080     0.000    A    2.50000E-01   1.25520E-01
  opls_800  C800    12.0110     0.000    A    3.50000E-01   2.76144E-01
  opls_811  C811    12.0110     0.000    A    3.50000E-01   2.76144E-01
  opls_823  H823     1.0080     0.000    A    2.50000E-01   1.25520E-01
  opls_826  H826     1.0080     0.000    A    2.50000E-01   1.25520E-01
  opls_819  H819     1.0080     0.000    A    2.50000E-01   1.25520E-01
  opls_804  C804    12.0110     0.000    A    3.50000E-01   2.76144E-01
  opls_827  H827     1.0080     0.000    A    2.50000E-01   1.25520E-01
  opls_812  C812    12.0110     0.000    A    3.50000E-01   2.76144E-01
  opls_808  C808    12.0110     0.000    A    3.50000E-01   2.76144E-01
  opls_817  H817     1.0080     0.000    A    2.50000E-01   1.25520E-01
  opls_807  C807    12.0110     0.000    A    3.50000E-01   2.76144E-01
[ moleculetype ]
; Name               nrexcl
UNK                   3
[ atoms ]
;   nr       type  resnr residue  atom   cgnr     charge       mass  
     1   opls_800      1    UNK   C00      1     -0.304    12.0110 
     2   opls_801      1    UNK   C01      1     0.3685    12.0110 
     3   opls_802      1    UNK   O02      1    -0.4499    15.9990 
     4   opls_803      1    UNK   C03      1    -0.1579    12.0110 
     5   opls_804      1    UNK   C04      1    -0.0953    12.0110 
     6   opls_805      1    UNK   C05      1    -0.1691    12.0110 
     7   opls_806      1    UNK   C06      1    -0.1133    12.0110 
     8   opls_807      1    UNK   C07      1    -0.1695    12.0110 
     9   opls_808      1    UNK   C08      1    -0.1135    12.0110 
    10   opls_809      1    UNK   C09      1     -0.169    12.0110 
    11   opls_810      1    UNK   C0A      1    -0.1725    12.0110 
    12   opls_811      1    UNK   C0B      1     -0.092    12.0110 
    13   opls_812      1    UNK   C0C      1    -0.1702    12.0110 
    14   opls_813      1    UNK   H0D      1     0.1156     1.0080 
    15   opls_814      1    UNK   H0E      1     0.1156     1.0080 
    16   opls_815      1    UNK   H0F      1     0.1156     1.0080 
    17   opls_816      1    UNK   H0G      1     0.1148     1.0080 
    18   opls_817      1    UNK   H0H      1     0.0997     1.0080 
    19   opls_818      1    UNK   H0I      1      0.092     1.0080 
    20   opls_819      1    UNK   H0J      1      0.092     1.0080 
    21   opls_820      1    UNK   H0K      1     0.1035     1.0080 
    22   opls_821      1    UNK   H0M      1     0.0893     1.0080 
    23   opls_822      1    UNK   H0N      1     0.0893     1.0080 
    24   opls_823      1    UNK   H0O      1     0.1016     1.0080 
    25   opls_824      1    UNK   H0P      1     0.0902     1.0080 
    26   opls_825      1    UNK   H0Q      1     0.0902     1.0080 
    27   opls_826      1    UNK   H0R      1     0.0902     1.0080 
    28   opls_827      1    UNK   H0S      1     0.0902     1.0080 
    29   opls_828      1    UNK   H0T      1     0.1147     1.0080 
    30   opls_829      1    UNK   H0U      1     0.1016     1.0080 
    31   opls_830      1    UNK   H0V      1     0.1016     1.0080 
[ bonds ]
    2     1     1      0.1522 265265.600
    3     2     1      0.1229 476976.000
    4     2     1      0.1522 265265.600
    5     4     1      0.1529 224262.400
    6     5     1      0.1529 224262.400
    7     6     1      0.1529 224262.400
    8     7     1      0.1529 224262.400
    9     8     1      0.1529 224262.400
   10     5     1      0.1529 224262.400
   11     9     1      0.1529 224262.400
   12     4     1      0.1529 224262.400
   13     7     1      0.1529 224262.400
   14     1     1      0.1090 284512.000
   15     1     1      0.1090 284512.000
   16     1     1      0.1090 284512.000
   17     4     1      0.1090 284512.000
   18     5     1      0.1090 284512.000
   19     6     1      0.1090 284512.000
   20     6     1      0.1090 284512.000
   21     7     1      0.1090 284512.000
   22     8     1      0.1090 284512.000
   23     8     1      0.1090 284512.000
   24     9     1      0.1090 284512.000
   25    10     1      0.1090 284512.000
   26    10     1      0.1090 284512.000
   27    11     1      0.1090 284512.000
   28    11     1      0.1090 284512.000
   29    12     1      0.1090 284512.000
   30    13     1      0.1090 284512.000
   31    13     1      0.1090 284512.000
   10     9     1      0.1529 224262.400
   12    11     1      0.1529 224262.400
   13    12     1      0.1529 224262.400

[ angles ]
;  ai    aj    ak funct            c0            c1            c2            c3 
    1     2     3     1    120.400    669.440
    1     2     4     1    116.000    585.760
    2     4     5     1    111.100    527.184
    4     5     6     1    112.700    488.273
    5     6     7     1    112.700    488.273
    6     7     8     1    112.700    488.273
    7     8     9     1    112.700    488.273
    4     5    10     1    112.700    488.273
    8     9    11     1    112.700    488.273
    2     4    12     1    111.100    527.184
    6     7    13     1    112.700    488.273
    2     1    14     1    109.500    292.880
    2     1    15     1    109.500    292.880
    2     1    16     1    109.500    292.880
    2     4    17     1    109.500    292.880
    4     5    18     1    110.700    313.800
    5     6    19     1    110.700    313.800
    5     6    20     1    110.700    313.800
    6     7    21     1    110.700    313.800
    7     8    22     1    110.700    313.800
    7     8    23     1    110.700    313.800
    8     9    24     1    110.700    313.800
    5    10    25     1    110.700    313.800
    5    10    26     1    110.700    313.800
    9    11    27     1    110.700    313.800
    9    11    28     1    110.700    313.800
    4    12    29     1    110.700    313.800
    7    13    30     1    110.700    313.800
    7    13    31     1    110.700    313.800
    9    10    25     1    110.700    313.800
    9    11    12     1    112.700    488.273
    5     4    12     1    112.700    488.273
    4    12    13     1    112.700    488.273
   13    12    29     1    110.700    313.800
   12    11    27     1    110.700    313.800
   27    11    28     1    107.800    276.144
    6     5    10     1    112.700    488.273
    7    13    12     1    112.700    488.273
    5    10     9     1    112.700    488.273
   22     8    23     1    107.800    276.144
   13     7    21     1    110.700    313.800
   12     4    17     1    110.700    313.800
    7     6    19     1    110.700    313.800
   11     9    24     1    110.700    313.800
   12    13    30     1    110.700    313.800
    8     7    13     1    112.700    488.273
   14     1    15     1    107.800    276.144
    4    12    11     1    112.700    488.273
   19     6    20     1    107.800    276.144
    9    10    26     1    110.700    313.800
    3     2     4     1    120.400    669.440
   11    12    29     1    110.700    313.800
   30    13    31     1    107.800    276.144
   12    11    28     1    110.700    313.800
   12    13    31     1    110.700    313.800
    9     8    23     1    110.700    313.800
   25    10    26     1    107.800    276.144
   10     5    18     1    110.700    313.800
   10     9    11     1    112.700    488.273
    8     7    21     1    110.700    313.800
   15     1    16     1    107.800    276.144
   10     9    24     1    110.700    313.800
   14     1    16     1    107.800    276.144
   11    12    13     1    112.700    488.273
    8     9    10     1    112.700    488.273
    9     8    22     1    110.700    313.800
    7     6    20     1    110.700    313.800
    6     5    18     1    110.700    313.800
    5     4    17     1    110.700    313.800

[ dihedrals ]
; IMPROPER DIHEDRAL ANGLES 
;  ai    aj    ak    al funct            c0            c1            c2            c3            c4            c5
     4     2     1     3    4        180.000     43.932     2  

[ dihedrals ]
; PROPER DIHEDRAL ANGLES
;  ai    aj    ak    al funct            c0            c1            c2            c3            c4            c5
   12    4    2    1        3       0.818  -7.906   0.602   6.485  -0.000   0.000
    5    4    2    1        3       0.818  -7.906   0.602   6.485  -0.000   0.000
   12    4    2    3        3       0.000   0.000   0.000  -0.000  -0.000   0.000
    5    4    2    3        3       0.000   0.000   0.000  -0.000  -0.000   0.000
   11   12    4    2        3      -4.960   6.286   1.310  -2.636  -0.000   0.000
   10    5    4    2        3      -4.960   6.286   1.310  -2.636  -0.000   0.000
    6    5    4    2        3      -4.960   6.286   1.310  -2.636  -0.000   0.000
   13   12    4    2        3      -4.960   6.286   1.310  -2.636  -0.000   0.000
   12   11    9    8        3       2.301  -1.464   0.837  -1.674  -0.000   0.000
   11    9    8    7        3       2.301  -1.464   0.837  -1.674  -0.000   0.000
   12   13    7    6        3       2.301  -1.464   0.837  -1.674  -0.000   0.000
   13    7    6    5        3       2.301  -1.464   0.837  -1.674  -0.000   0.000
   13   12   11    9        3       2.301  -1.464   0.837  -1.674  -0.000   0.000
   13    7    8    9        3       2.301  -1.464   0.837  -1.674  -0.000   0.000
   10    5    6    7        3       2.301  -1.464   0.837  -1.674  -0.000   0.000
    9   11   12    4        3       2.301  -1.464   0.837  -1.674  -0.000   0.000
   12    4    5   10        3       2.301  -1.464   0.837  -1.674  -0.000   0.000
    9   10    5    6        3       2.301  -1.464   0.837  -1.674  -0.000   0.000
   12   13    7    8        3       2.301  -1.464   0.837  -1.674  -0.000   0.000
   10    9    8    7        3       2.301  -1.464   0.837  -1.674  -0.000   0.000
   12   11    9   10        3       2.301  -1.464   0.837  -1.674  -0.000   0.000
   11    9   10    5        3       2.301  -1.464   0.837  -1.674  -0.000   0.000
    9   10    5    4        3       2.301  -1.464   0.837  -1.674  -0.000   0.000
   11   12    4    5        3       2.301  -1.464   0.837  -1.674  -0.000   0.000
    7   13   12    4        3       2.301  -1.464   0.837  -1.674  -0.000   0.000
   12    4    5    6        3       2.301  -1.464   0.837  -1.674  -0.000   0.000
   11   12   13    7        3       2.301  -1.464   0.837  -1.674  -0.000   0.000
   13   12    4    5        3       2.301  -1.464   0.837  -1.674  -0.000   0.000
    8    9   10    5        3       2.301  -1.464   0.837  -1.674  -0.000   0.000
    8    7    6    5        3       2.301  -1.464   0.837  -1.674  -0.000   0.000
    7    6    5    4        3       2.301  -1.464   0.837  -1.674  -0.000   0.000
    9    8    7    6        3       2.301  -1.464   0.837  -1.674  -0.000   0.000
   17    4    2    1        3       0.575   1.726   0.000  -2.301  -0.000   0.000
   15    1    2    4        3       0.575   1.726   0.000  -2.301  -0.000   0.000
   16    1    2    4        3       0.575   1.726   0.000  -2.301  -0.000   0.000
   14    1    2    4        3       0.575   1.726   0.000  -2.301  -0.000   0.000
   14    1    2    3        3       0.000   0.000   0.000  -0.000  -0.000   0.000
   16    1    2    3        3       0.000   0.000   0.000  -0.000  -0.000   0.000
   15    1    2    3        3       0.000   0.000   0.000  -0.000  -0.000   0.000
   17    4    2    3        3       0.000   0.000   0.000  -0.000  -0.000   0.000
   18    5    4    2        3      -0.209  -0.628   0.000   0.837  -0.000   0.000
   29   12    4    2        3      -0.209  -0.628   0.000   0.837  -0.000   0.000
   31   13    7    8        3       0.628   1.883   0.000  -2.510  -0.000   0.000
   27   11    9   10        3       0.628   1.883   0.000  -2.510  -0.000   0.000
   28   11   12    4        3       0.628   1.883   0.000  -2.510  -0.000   0.000
   24    9    8    7        3       0.628   1.883   0.000  -2.510  -0.000   0.000
   30   13    7    6        3       0.628   1.883   0.000  -2.510  -0.000   0.000
   31   13   12   11        3       0.628   1.883   0.000  -2.510  -0.000   0.000
   20    6    5    4        3       0.628   1.883   0.000  -2.510  -0.000   0.000
   22    8    9   10        3       0.628   1.883   0.000  -2.510  -0.000   0.000
   27   11    9    8        3       0.628   1.883   0.000  -2.510  -0.000   0.000
   17    4    5   10        3       0.628   1.883   0.000  -2.510  -0.000   0.000
   19    6    5   10        3       0.628   1.883   0.000  -2.510  -0.000   0.000
   27   11   12    4        3       0.628   1.883   0.000  -2.510  -0.000   0.000
   20    6    7    8        3       0.628   1.883   0.000  -2.510  -0.000   0.000
   17    4   12   11        3       0.628   1.883   0.000  -2.510  -0.000   0.000
   26   10    9   11        3       0.628   1.883   0.000  -2.510  -0.000   0.000
   21    7    8    9        3       0.628   1.883   0.000  -2.510  -0.000   0.000
   22    8    7   13        3       0.628   1.883   0.000  -2.510  -0.000   0.000
   31   13    7    6        3       0.628   1.883   0.000  -2.510  -0.000   0.000
   29   12    4    5        3       0.628   1.883   0.000  -2.510  -0.000   0.000
   26   10    9    8        3       0.628   1.883   0.000  -2.510  -0.000   0.000
   18    5    4   12        3       0.628   1.883   0.000  -2.510  -0.000   0.000
   27   11   12   13        3       0.628   1.883   0.000  -2.510  -0.000   0.000
   19    6    5    4        3       0.628   1.883   0.000  -2.510  -0.000   0.000
   19    6    7   13        3       0.628   1.883   0.000  -2.510  -0.000   0.000
   18    5    6    7        3       0.628   1.883   0.000  -2.510  -0.000   0.000
   20    6    5   10        3       0.628   1.883   0.000  -2.510  -0.000   0.000
   22    8    7    6        3       0.628   1.883   0.000  -2.510  -0.000   0.000
   24    9   11   12        3       0.628   1.883   0.000  -2.510  -0.000   0.000
   28   11    9    8        3       0.628   1.883   0.000  -2.510  -0.000   0.000
   20    6    7   13        3       0.628   1.883   0.000  -2.510  -0.000   0.000
   25   10    9    8        3       0.628   1.883   0.000  -2.510  -0.000   0.000
   30   13    7    8        3       0.628   1.883   0.000  -2.510  -0.000   0.000
   23    8    9   11        3       0.628   1.883   0.000  -2.510  -0.000   0.000
   22    8    9   11        3       0.628   1.883   0.000  -2.510  -0.000   0.000
   23    8    9   10        3       0.628   1.883   0.000  -2.510  -0.000   0.000
   23    8    7   13        3       0.628   1.883   0.000  -2.510  -0.000   0.000
   28   11    9   10        3       0.628   1.883   0.000  -2.510  -0.000   0.000
   31   13   12    4        3       0.628   1.883   0.000  -2.510  -0.000   0.000
   29   12   11    9        3       0.628   1.883   0.000  -2.510  -0.000   0.000
   19    6    7    8        3       0.628   1.883   0.000  -2.510  -0.000   0.000
   30   13   12   11        3       0.628   1.883   0.000  -2.510  -0.000   0.000
   25   10    5    4        3       0.628   1.883   0.000  -2.510  -0.000   0.000
   25   10    9   11        3       0.628   1.883   0.000  -2.510  -0.000   0.000
   21    7   13   12        3       0.628   1.883   0.000  -2.510  -0.000   0.000
   23    8    7    6        3       0.628   1.883   0.000  -2.510  -0.000   0.000
   17    4   12   13        3       0.628   1.883   0.000  -2.510  -0.000   0.000
   29   12   13    7        3       0.628   1.883   0.000  -2.510  -0.000   0.000
   17    4    5    6        3       0.628   1.883   0.000  -2.510  -0.000   0.000
   18    5   10    9        3       0.628   1.883   0.000  -2.510  -0.000   0.000
   28   11   12   13        3       0.628   1.883   0.000  -2.510  -0.000   0.000
   26   10    5    6        3       0.628   1.883   0.000  -2.510  -0.000   0.000
   26   10    5    4        3       0.628   1.883   0.000  -2.510  -0.000   0.000
   25   10    5    6        3       0.628   1.883   0.000  -2.510  -0.000   0.000
   30   13   12    4        3       0.628   1.883   0.000  -2.510  -0.000   0.000
   24    9   10    5        3       0.628   1.883   0.000  -2.510  -0.000   0.000
   21    7    6    5        3       0.628   1.883   0.000  -2.510  -0.000   0.000
   26   10    9   24        3       0.628   1.883   0.000  -2.510  -0.000   0.000
   31   13    7   21        3       0.628   1.883   0.000  -2.510  -0.000   0.000
   29   12   11   28        3       0.628   1.883   0.000  -2.510  -0.000   0.000
   18    5    4   17        3       0.628   1.883   0.000  -2.510  -0.000   0.000
   26   10    5   18        3       0.628   1.883   0.000  -2.510  -0.000   0.000
   19    6    5   18        3       0.628   1.883   0.000  -2.510  -0.000   0.000
   21    7    6   19        3       0.628   1.883   0.000  -2.510  -0.000   0.000
   24    9    8   22        3       0.628   1.883   0.000  -2.510  -0.000   0.000
   20    6    5   18        3       0.628   1.883   0.000  -2.510  -0.000   0.000
   28   11    9   24        3       0.628   1.883   0.000  -2.510  -0.000   0.000
   24    9    8   23        3       0.628   1.883   0.000  -2.510  -0.000   0.000
   22    8    7   21        3       0.628   1.883   0.000  -2.510  -0.000   0.000
   25   10    5   18        3       0.628   1.883   0.000  -2.510  -0.000   0.000
   29   12   11   27        3       0.628   1.883   0.000  -2.510  -0.000   0.000
   27   11    9   24        3       0.628   1.883   0.000  -2.510  -0.000   0.000
   21    7    6   20        3       0.628   1.883   0.000  -2.510  -0.000   0.000
   30   13    7   21        3       0.628   1.883   0.000  -2.510  -0.000   0.000
   31   13   12   29        3       0.628   1.883   0.000  -2.510  -0.000   0.000
   29   12    4   17        3       0.628   1.883   0.000  -2.510  -0.000   0.000
   23    8    7   21        3       0.628   1.883   0.000  -2.510  -0.000   0.000
   25   10    9   24        3       0.628   1.883   0.000  -2.510  -0.000   0.000
   30   13   12   29        3       0.628   1.883   0.000  -2.510  -0.000   0.000

[ pairs ]
     1     5    1
     3     5    1
     2     6    1
     4     7    1
     2    10    1
     5     8    1
     4     9    1
     2    11    1
     1    12    1
     6     9    1
     3    12    1
     2    13    1
     5    11    1
     7    10    1
     3    14    1
     7    11    1
     6    12    1
     5    13    1
     4    14    1
     3    15    1
     1    17    1
     4    15    1
     3    16    1
     8    12    1
     4    16    1
     3    17    1
     2    18    1
    10    12    1
     9    13    1
     6    17    1
     4    19    1
     4    20    1
     7    18    1
     5    21    1
    10    17    1
     9    18    1
     8    19    1
    11    17    1
     8    20    1
     6    22    1
    10    19    1
     6    23    1
     5    24    1
     4    25    1
    13    17    1
    12    18    1
    10    20    1
     9    21    1
     4    26    1
     7    24    1
     6    25    1
     4    27    1
     2    29    1
    13    19    1
    10    22    1
     6    26    1
     4    28    1
    13    20    1
    12    21    1
    11    22    1
    10    23    1
     8    25    1
    11    23    1
     8    26    1
     5    29    1
     4    30    1
    17    18    1
    13    22    1
     8    27    1
     4    31    1
    13    23    1
    12    24    1
    11    25    1
     8    28    1
     7    29    1
     6    30    1
    18    19    1
    11    26    1
    10    27    1
     6    31    1
    18    20    1
    10    28    1
     9    29    1
     8    30    1
     8    31    1
    19    21    1
    13    27    1
    20    21    1
    13    28    1
    11    30    1
    11    31    1
    21    22    1
    18    25    1
    21    23    1
    18    26    1
    22    24    1
    17    29    1
    23    24    1
    24    25    1
    24    26    1
    24    27    1
    21    30    1
    24    28    1
    21    31    1
    27    29    1
    28    29    1
    29    30    1
    29    31    1

