LIGPARGEN GENERATED GRO FILE
   29
    1UNK    C00    1   0.100   0.100   0.000
    1UNK    C01    2  -0.053   0.100   0.000
    1UNK    C02    3  -0.105   0.100   0.144
    1UNK    C03    4  -0.105   0.220  -0.081
    1UNK    C04    5  -0.257   0.225  -0.093
    1UNK    O05    6  -0.296   0.336  -0.175
    1UNK    C06    7  -0.296   0.314  -0.309
    1UNK    O07    8  -0.265   0.208  -0.362
    1UNK    C08    9  -0.338   0.439  -0.386
    1UNK    C09   10  -0.224   0.485  -0.475
    1UNK    C0A   11  -0.464   0.407  -0.466
    1UNK    F0B   12  -0.369   0.544  -0.303
    1UNK    H0C   13   0.139   0.013   0.055
    1UNK    H0D   14   0.140   0.191   0.047
    1UNK    H0E   15   0.139   0.095  -0.102
    1UNK    H0F   16  -0.087   0.007  -0.048
    1UNK    H0G   17  -0.080   0.194   0.195
    1UNK    H0H   18  -0.060   0.018   0.201
    1UNK    H0I   19  -0.213   0.087   0.147
    1UNK    H0J   20  -0.061   0.216  -0.182
    1UNK    H0K   21  -0.069   0.314  -0.038
    1UNK    H0M   22  -0.302   0.243   0.005
    1UNK    H0N   23  -0.298   0.132  -0.132
    1UNK    H0O   24  -0.196   0.408  -0.549
    1UNK    H0P   25  -0.135   0.508  -0.415
    1UNK    H0Q   26  -0.251   0.577  -0.529
    1UNK    H0R   27  -0.446   0.328  -0.539
    1UNK    H0S   28  -0.500   0.496  -0.518
    1UNK    H0T   29  -0.544   0.375  -0.399
   1.00000   1.00000   1.00000

