LIGPARGEN GENERATED GRO FILE
   32
    1UNK    C00    1   0.100   0.100   0.000
    1UNK    C01    2  -0.052   0.100   0.000
    1UNK    C02    3  -0.108   0.100   0.142
    1UNK    C03    4  -0.260   0.100   0.141
    1UNK    C04    5  -0.320   0.100   0.279
    1UNK    O05    6  -0.393   0.012   0.322
    1UNK    O06    7  -0.292   0.217   0.343
    1UNK    C07    8  -0.377   0.250   0.454
    1UNK    C08    9  -0.305   0.235   0.588
    1UNK    C09   10  -0.394   0.279   0.706
    1UNK    C0A   11  -0.519   0.191   0.720
    1UNK    C0B   12  -0.315   0.277   0.837
    1UNK    H0C   13   0.138   0.100  -0.103
    1UNK    H0D   14   0.139   0.011   0.051
    1UNK    H0E   15   0.139   0.189   0.051
    1UNK    H0F   16  -0.088   0.012  -0.054
    1UNK    H0G   17  -0.088   0.189  -0.054
    1UNK    H0H   18  -0.071   0.188   0.196
    1UNK    H0I   19  -0.072   0.012   0.197
    1UNK    H0J   20  -0.297   0.011   0.088
    1UNK    H0K   21  -0.299   0.187   0.087
    1UNK    H0M   22  -0.469   0.190   0.451
    1UNK    H0N   23  -0.408   0.354   0.440
    1UNK    H0O   24  -0.214   0.297   0.585
    1UNK    H0P   25  -0.271   0.132   0.601
    1UNK    H0Q   26  -0.427   0.382   0.689
    1UNK    H0R   27  -0.492   0.085   0.730
    1UNK    H0S   28  -0.585   0.201   0.634
    1UNK    H0T   29  -0.577   0.220   0.809
    1UNK    H0U   30  -0.280   0.176   0.861
    1UNK    H0V   31  -0.378   0.311   0.920
    1UNK    H0W   32  -0.228   0.343   0.832
   1.00000   1.00000   1.00000

