
;
; GENERATED BY LigParGen Server
; Jorgensen Lab @ Yale University 
;
[ atomtypes ]
  opls_818  H818     1.0080     0.000    A    2.50000E-01   1.25520E-01
  opls_824  H824     1.0080     0.000    A    2.50000E-01   1.25520E-01
  opls_805  C805    12.0110     0.000    A    3.50000E-01   2.76144E-01
  opls_828  H828     1.0080     0.000    A    2.50000E-01   1.25520E-01
  opls_813  H813     1.0080     0.000    A    2.50000E-01   1.25520E-01
  opls_801  O801    15.9990     0.000    A    2.90000E-01   5.85760E-01
  opls_803  O803    15.9990     0.000    A    2.96000E-01   8.78640E-01
  opls_806  C806    12.0110     0.000    A    3.50000E-01   2.76144E-01
  opls_815  H815     1.0080     0.000    A    2.50000E-01   1.25520E-01
  opls_812  C812    12.0110     0.000    A    3.50000E-01   2.76144E-01
  opls_822  H822     1.0080     0.000    A    2.50000E-01   1.25520E-01
  opls_807  C807    12.0110     0.000    A    3.50000E-01   2.76144E-01
  opls_825  H825     1.0080     0.000    A    2.50000E-01   1.25520E-01
  opls_814  H814     1.0080     0.000    A    2.50000E-01   1.25520E-01
  opls_810  O810    15.9990     0.000    A    2.96000E-01   8.78640E-01
  opls_821  H821     1.0080     0.000    A    2.50000E-01   1.25520E-01
  opls_820  H820     1.0080     0.000    A    2.50000E-01   1.25520E-01
  opls_809  C809    12.0110     0.000    A    3.55000E-01   2.92880E-01
  opls_816  H816     1.0080     0.000    A    2.50000E-01   1.25520E-01
  opls_800  C800    12.0110     0.000    A    3.50000E-01   2.76144E-01
  opls_811  C811    12.0110     0.000    A    3.50000E-01   2.76144E-01
  opls_802  C802    12.0110     0.000    A    3.55000E-01   2.92880E-01
  opls_823  H823     1.0080     0.000    A    2.50000E-01   1.25520E-01
  opls_826  H826     1.0080     0.000    A    2.50000E-01   1.25520E-01
  opls_819  H819     1.0080     0.000    A    2.50000E-01   1.25520E-01
  opls_804  C804    12.0110     0.000    A    3.50000E-01   2.76144E-01
  opls_827  H827     1.0080     0.000    A    2.50000E-01   1.25520E-01
  opls_808  C808    12.0110     0.000    A    3.50000E-01   2.76144E-01
  opls_817  H817     1.0080     0.000    A    2.50000E-01   1.25520E-01
[ moleculetype ]
; Name               nrexcl
UNK                   3
[ atoms ]
;   nr       type  resnr residue  atom   cgnr     charge       mass  
     1   opls_800      1    UNK   C00      1    -0.0563    12.0110 
     2   opls_801      1    UNK   O01      1    -0.3457    15.9990 
     3   opls_802      1    UNK   C02      1     0.4351    12.0110 
     4   opls_803      1    UNK   O03      1    -0.4505    15.9990 
     5   opls_804      1    UNK   C04      1    -0.0306    12.0110 
     6   opls_805      1    UNK   C05      1    -0.2366    12.0110 
     7   opls_806      1    UNK   C06      1    -0.1702    12.0110 
     8   opls_807      1    UNK   C07      1    -0.1775    12.0110 
     9   opls_808      1    UNK   C08      1    -0.2349    12.0110 
    10   opls_809      1    UNK   C09      1      0.369    12.0110 
    11   opls_810      1    UNK   O0A      1    -0.4401    15.9990 
    12   opls_811      1    UNK   C0B      1    -0.1527    12.0110 
    13   opls_812      1    UNK   C0C      1     -0.229    12.0110 
    14   opls_813      1    UNK   H0D      1     0.1038     1.0080 
    15   opls_814      1    UNK   H0E      1     0.1038     1.0080 
    16   opls_815      1    UNK   H0F      1     0.1038     1.0080 
    17   opls_816      1    UNK   H0G      1     0.0991     1.0080 
    18   opls_817      1    UNK   H0H      1     0.0991     1.0080 
    19   opls_818      1    UNK   H0I      1     0.0991     1.0080 
    20   opls_819      1    UNK   H0J      1       0.11     1.0080 
    21   opls_820      1    UNK   H0K      1       0.11     1.0080 
    22   opls_821      1    UNK   H0M      1     0.1064     1.0080 
    23   opls_822      1    UNK   H0N      1     0.1064     1.0080 
    24   opls_823      1    UNK   H0O      1     0.1244     1.0080 
    25   opls_824      1    UNK   H0P      1     0.1244     1.0080 
    26   opls_825      1    UNK   H0Q      1     0.1506     1.0080 
    27   opls_826      1    UNK   H0R      1      0.093     1.0080 
    28   opls_827      1    UNK   H0S      1      0.093     1.0080 
    29   opls_828      1    UNK   H0T      1      0.093     1.0080 
[ bonds ]
    2     1     1      0.1410 267776.000
    3     2     1      0.1327 179075.200
    4     3     1      0.1229 476976.000
    5     3     1      0.1522 265265.600
    6     5     1      0.1529 224262.400
    7     5     1      0.1529 224262.400
    8     7     1      0.1529 224262.400
    9     8     1      0.1529 224262.400
   10     9     1      0.1522 265265.600
   11    10     1      0.1229 476976.000
   12     5     1      0.1529 224262.400
   13    12     1      0.1529 224262.400
   14     1     1      0.1090 284512.000
   15     1     1      0.1090 284512.000
   16     1     1      0.1090 284512.000
   17     6     1      0.1090 284512.000
   18     6     1      0.1090 284512.000
   19     6     1      0.1090 284512.000
   20     7     1      0.1090 284512.000
   21     7     1      0.1090 284512.000
   22     8     1      0.1090 284512.000
   23     8     1      0.1090 284512.000
   24     9     1      0.1090 284512.000
   25     9     1      0.1090 284512.000
   26    12     1      0.1090 284512.000
   27    13     1      0.1090 284512.000
   28    13     1      0.1090 284512.000
   29    13     1      0.1090 284512.000
   12    10     1      0.1522 265265.600

[ angles ]
;  ai    aj    ak funct            c0            c1            c2            c3 
    1     2     3     1    116.900    694.544
    2     3     4     1    123.400    694.544
    2     3     5     1    111.400    677.808
    3     5     6     1    111.100    527.184
    3     5     7     1    111.100    527.184
    5     7     8     1    112.700    488.273
    7     8     9     1    112.700    488.273
    8     9    10     1    111.100    527.184
    9    10    11     1    120.400    669.440
    3     5    12     1    111.100    527.184
    5    12    13     1    112.700    488.273
    2     1    14     1    109.500    292.880
    2     1    15     1    109.500    292.880
    2     1    16     1    109.500    292.880
    5     6    17     1    110.700    313.800
    5     6    18     1    110.700    313.800
    5     6    19     1    110.700    313.800
    5     7    20     1    110.700    313.800
    5     7    21     1    110.700    313.800
    7     8    22     1    110.700    313.800
    7     8    23     1    110.700    313.800
    8     9    24     1    110.700    313.800
    8     9    25     1    110.700    313.800
    5    12    26     1    110.700    313.800
   12    13    27     1    110.700    313.800
   12    13    28     1    110.700    313.800
   12    13    29     1    110.700    313.800
   11    10    12     1    120.400    669.440
    5    12    10     1    111.100    527.184
   17     6    19     1    107.800    276.144
   14     1    16     1    107.800    276.144
   17     6    18     1    107.800    276.144
   18     6    19     1    107.800    276.144
   20     7    21     1    107.800    276.144
   10    12    13     1    111.100    527.184
    7     5    12     1    112.700    488.273
    4     3     5     1    120.400    669.440
   15     1    16     1    107.800    276.144
   22     8    23     1    107.800    276.144
    9    10    12     1    116.000    585.760
   24     9    25     1    107.800    276.144
    6     5     7     1    112.700    488.273
   10    12    26     1    109.500    292.880
   14     1    15     1    107.800    276.144
    9     8    23     1    110.700    313.800
   10     9    25     1    109.500    292.880
    6     5    12     1    112.700    488.273
    9     8    22     1    110.700    313.800
   28    13    29     1    107.800    276.144
    8     7    21     1    110.700    313.800
   10     9    24     1    109.500    292.880
   27    13    29     1    107.800    276.144
    8     7    20     1    110.700    313.800
   13    12    26     1    110.700    313.800
   27    13    28     1    107.800    276.144

[ dihedrals ]
; IMPROPER DIHEDRAL ANGLES 
;  ai    aj    ak    al funct            c0            c1            c2            c3            c4            c5
     9    10    11    12    4        180.000     43.932     2  
     5     3     2     4    4        180.000     43.932     2  

[ dihedrals ]
; PROPER DIHEDRAL ANGLES
;  ai    aj    ak    al funct            c0            c1            c2            c3            c4            c5
   10   12    5    3        3       0.941   7.427   0.000  -8.368  -0.000   0.000
   10   12    5    6        3      -4.960   6.286   1.310  -2.636  -0.000   0.000
   10   12    5    7        3      -4.960   6.286   1.310  -2.636  -0.000   0.000
   10    9    8    7        3      -4.960   6.286   1.310  -2.636  -0.000   0.000
    9   10   12    5        3       0.818  -7.906   0.602   6.485  -0.000   0.000
   12   10    9    8        3       0.818  -7.906   0.602   6.485  -0.000   0.000
    5    3    2    1        3      31.206  -9.768  -21.439  -0.000  -0.000   0.000
   13   12   10    9        3       0.818  -7.906   0.602   6.485  -0.000   0.000
    7    5    3    4        3       0.000   0.000   0.000  -0.000  -0.000   0.000
   13   12   10   11        3       0.000   0.000   0.000  -0.000  -0.000   0.000
    6    5    3    4        3       0.000   0.000   0.000  -0.000  -0.000   0.000
   12    5    3    4        3       0.000   0.000   0.000  -0.000  -0.000   0.000
   12    5    3    2        3      -1.157  -3.471   0.000   4.628  -0.000   0.000
    6    5    3    2        3      -1.157  -3.471   0.000   4.628  -0.000   0.000
    7    5    3    2        3      -1.157  -3.471   0.000   4.628  -0.000   0.000
   13   12    5    3        3      -4.960   6.286   1.310  -2.636  -0.000   0.000
    8    7    5    3        3      -4.960   6.286   1.310  -2.636  -0.000   0.000
    9    8    7    5        3       2.301  -1.464   0.837  -1.674  -0.000   0.000
   13   12    5    7        3       2.301  -1.464   0.837  -1.674  -0.000   0.000
   13   12    5    6        3       2.301  -1.464   0.837  -1.674  -0.000   0.000
    8    7    5    6        3       2.301  -1.464   0.837  -1.674  -0.000   0.000
   12    5    7    8        3       2.301  -1.464   0.837  -1.674  -0.000   0.000
   24    9   10   12        3       0.575   1.726   0.000  -2.301  -0.000   0.000
   25    9   10   12        3       0.575   1.726   0.000  -2.301  -0.000   0.000
   26   12   10    9        3       0.575   1.726   0.000  -2.301  -0.000   0.000
   24    9   10   11        3       0.000   0.000   0.000  -0.000  -0.000   0.000
   25    9   10   11        3       0.000   0.000   0.000  -0.000  -0.000   0.000
   26   12   10   11        3       0.000   0.000   0.000  -0.000  -0.000   0.000
   17    6    5    3        3      -0.209  -0.628   0.000   0.837  -0.000   0.000
   18    6    5    3        3      -0.209  -0.628   0.000   0.837  -0.000   0.000
   27   13   12   10        3      -0.209  -0.628   0.000   0.837  -0.000   0.000
   23    8    9   10        3      -0.209  -0.628   0.000   0.837  -0.000   0.000
   20    7    5    3        3      -0.209  -0.628   0.000   0.837  -0.000   0.000
   28   13   12   10        3      -0.209  -0.628   0.000   0.837  -0.000   0.000
   22    8    9   10        3      -0.209  -0.628   0.000   0.837  -0.000   0.000
   21    7    5    3        3      -0.209  -0.628   0.000   0.837  -0.000   0.000
   26   12    5    3        3      -0.209  -0.628   0.000   0.837  -0.000   0.000
   29   13   12   10        3      -0.209  -0.628   0.000   0.837  -0.000   0.000
   19    6    5    3        3      -0.209  -0.628   0.000   0.837  -0.000   0.000
   29   13   12    5        3       0.628   1.883   0.000  -2.510  -0.000   0.000
   26   12    5    7        3       0.628   1.883   0.000  -2.510  -0.000   0.000
   26   12    5    6        3       0.628   1.883   0.000  -2.510  -0.000   0.000
   17    6    5   12        3       0.628   1.883   0.000  -2.510  -0.000   0.000
   22    8    7    5        3       0.628   1.883   0.000  -2.510  -0.000   0.000
   20    7    5    6        3       0.628   1.883   0.000  -2.510  -0.000   0.000
   18    6    5   12        3       0.628   1.883   0.000  -2.510  -0.000   0.000
   21    7    5   12        3       0.628   1.883   0.000  -2.510  -0.000   0.000
   21    7    8    9        3       0.628   1.883   0.000  -2.510  -0.000   0.000
   23    8    7    5        3       0.628   1.883   0.000  -2.510  -0.000   0.000
   21    7    5    6        3       0.628   1.883   0.000  -2.510  -0.000   0.000
   19    6    5   12        3       0.628   1.883   0.000  -2.510  -0.000   0.000
   17    6    5    7        3       0.628   1.883   0.000  -2.510  -0.000   0.000
   20    7    5   12        3       0.628   1.883   0.000  -2.510  -0.000   0.000
   18    6    5    7        3       0.628   1.883   0.000  -2.510  -0.000   0.000
   27   13   12    5        3       0.628   1.883   0.000  -2.510  -0.000   0.000
   28   13   12    5        3       0.628   1.883   0.000  -2.510  -0.000   0.000
   24    9    8    7        3       0.628   1.883   0.000  -2.510  -0.000   0.000
   25    9    8    7        3       0.628   1.883   0.000  -2.510  -0.000   0.000
   20    7    8    9        3       0.628   1.883   0.000  -2.510  -0.000   0.000
   19    6    5    7        3       0.628   1.883   0.000  -2.510  -0.000   0.000
   24    9    8   22        3       0.628   1.883   0.000  -2.510  -0.000   0.000
   24    9    8   23        3       0.628   1.883   0.000  -2.510  -0.000   0.000
   23    8    7   21        3       0.628   1.883   0.000  -2.510  -0.000   0.000
   28   13   12   26        3       0.628   1.883   0.000  -2.510  -0.000   0.000
   27   13   12   26        3       0.628   1.883   0.000  -2.510  -0.000   0.000
   22    8    7   20        3       0.628   1.883   0.000  -2.510  -0.000   0.000
   23    8    7   20        3       0.628   1.883   0.000  -2.510  -0.000   0.000
   22    8    7   21        3       0.628   1.883   0.000  -2.510  -0.000   0.000
   25    9    8   23        3       0.628   1.883   0.000  -2.510  -0.000   0.000
   25    9    8   22        3       0.628   1.883   0.000  -2.510  -0.000   0.000
   29   13   12   26        3       0.628   1.883   0.000  -2.510  -0.000   0.000
   14    1    2    3        3       0.414   1.243   0.000  -1.657  -0.000   0.000
   15    1    2    3        3       0.414   1.243   0.000  -1.657  -0.000   0.000
   16    1    2    3        3       0.414   1.243   0.000  -1.657  -0.000   0.000
   11   10   12    5        3       0.000   0.000   0.000  -0.000  -0.000   0.000
   11   10    9    8        3       0.000   0.000   0.000  -0.000  -0.000   0.000
    4    3    2    1        3      21.439   0.000  -21.439  -0.000  -0.000   0.000

[ pairs ]
     1     4    1
     1     5    1
     2     6    1
     2     7    1
     4     6    1
     4     7    1
     3     8    1
     3    10    1
     6     8    1
     5     9    1
     2    12    1
     6    10    1
     5    11    1
     4    12    1
     3    13    1
     7    10    1
     3    14    1
     3    15    1
     8    11    1
     6    13    1
     3    16    1
     8    12    1
     7    13    1
     3    17    1
     3    18    1
     9    13    1
     3    19    1
     3    20    1
    11    13    1
     7    17    1
     3    21    1
     7    18    1
     7    19    1
     6    20    1
     6    21    1
     5    22    1
     5    23    1
    12    17    1
     9    20    1
     3    26    1
    12    18    1
     9    21    1
    12    19    1
     7    24    1
    12    20    1
    10    22    1
     7    25    1
     6    26    1
     5    27    1
    12    21    1
    10    23    1
     7    26    1
     5    28    1
     5    29    1
    11    24    1
     9    26    1
    12    24    1
    11    25    1
    12    25    1
    11    26    1
    10    27    1
    10    28    1
    10    29    1
    20    22    1
    21    22    1
    20    23    1
    21    23    1
    22    24    1
    23    24    1
    22    25    1
    23    25    1
    26    27    1
    26    28    1
    26    29    1

