LIGPARGEN GENERATED GRO FILE
   35
    1UNK    C00    1   0.100   0.100   0.000
    1UNK    C01    2  -0.052   0.100   0.000
    1UNK    C02    3  -0.127   0.100   0.137
    1UNK    C03    4  -0.084  -0.018   0.230
    1UNK    C04    5  -0.112  -0.160   0.184
    1UNK    O05    6  -0.099   0.228   0.207
    1UNK    C06    7   0.016   0.258   0.273
    1UNK    C07    8   0.009   0.396   0.331
    1UNK    O08    9   0.115   0.186   0.286
    1UNK    C09   10  -0.287   0.106   0.111
    1UNK    C0A   11  -0.343  -0.007   0.022
    1UNK    C0B   12  -0.365   0.104   0.245
    1UNK    C0C   13  -0.327   0.239   0.040
    1UNK    H0D   14   0.136   0.086  -0.103
    1UNK    H0E   15   0.142   0.019   0.060
    1UNK    H0F   16   0.140   0.196   0.034
    1UNK    H0G   17  -0.083   0.013  -0.058
    1UNK    H0H   18  -0.081   0.189  -0.057
    1UNK    H0I   19  -0.125  -0.004   0.330
    1UNK    H0J   20   0.025  -0.014   0.245
    1UNK    H0K   21  -0.215  -0.190   0.207
    1UNK    H0M   22  -0.048  -0.230   0.240
    1UNK    H0N   23  -0.091  -0.175   0.078
    1UNK    H0O   24  -0.094   0.433   0.329
    1UNK    H0P   25   0.073   0.463   0.273
    1UNK    H0Q   26   0.042   0.392   0.435
    1UNK    H0R   27  -0.338  -0.105   0.069
    1UNK    H0S   28  -0.292  -0.013  -0.074
    1UNK    H0T   29  -0.449   0.011  -0.000
    1UNK    H0U   30  -0.345   0.014   0.303
    1UNK    H0V   31  -0.474   0.105   0.226
    1UNK    H0W   32  -0.342   0.192   0.307
    1UNK    H0X   33  -0.285   0.245  -0.061
    1UNK    H0Y   34  -0.294   0.327   0.096
    1UNK    H0Z   35  -0.436   0.247   0.030
   1.00000   1.00000   1.00000

