
;
; GENERATED BY LigParGen Server
; Jorgensen Lab @ Yale University 
;
[ atomtypes ]
  opls_818  H818     1.0080     0.000    A    2.50000E-01   1.25520E-01
  opls_803  O803    15.9990     0.000    A    2.90000E-01   5.85760E-01
  opls_824  H824     1.0080     0.000    A    2.50000E-01   1.25520E-01
  opls_809  O809    15.9990     0.000    A    2.90000E-01   5.85760E-01
  opls_802  C802    12.0110     0.000    A    3.50000E-01   2.76144E-01
  opls_815  H815     1.0080     0.000    A    2.50000E-01   1.25520E-01
  opls_801  C801    12.0110     0.000    A    3.50000E-01   2.76144E-01
  opls_806  C806    12.0110     0.000    A    3.50000E-01   2.76144E-01
  opls_822  H822     1.0080     0.000    A    2.50000E-01   1.25520E-01
  opls_813  N813    14.0070     0.000    A    3.20000E-01   7.11280E-01
  opls_825  H825     1.0080     0.000    A    2.50000E-01   1.25520E-01
  opls_814  H814     1.0080     0.000    A    2.50000E-01   1.25520E-01
  opls_810  C810    12.0110     0.000    A    3.50000E-01   2.76144E-01
  opls_820  H820     1.0080     0.000    A    2.50000E-01   1.25520E-01
  opls_821  H821     1.0080     0.000    A    2.50000E-01   1.25520E-01
  opls_816  H816     1.0080     0.000    A    2.50000E-01   1.25520E-01
  opls_800  C800    12.0110     0.000    A    3.50000E-01   2.76144E-01
  opls_808  O808    15.9990     0.000    A    2.96000E-01   8.78640E-01
  opls_811  C811    12.0110     0.000    A    3.50000E-01   2.76144E-01
  opls_823  H823     1.0080     0.000    A    2.50000E-01   1.25520E-01
  opls_805  C805    12.0110     0.000    A    3.50000E-01   2.76144E-01
  opls_826  H826     1.0080     0.000    A    2.50000E-01   1.25520E-01
  opls_819  H819     1.0080     0.000    A    2.50000E-01   1.25520E-01
  opls_804  C804    12.0110     0.000    A    3.50000E-01   2.76144E-01
  opls_807  C807    12.0110     0.000    A    3.55000E-01   2.92880E-01
  opls_817  H817     1.0080     0.000    A    2.50000E-01   1.25520E-01
  opls_812  C812    12.0110     0.000    A    3.30000E-01   2.76144E-01
[ moleculetype ]
; Name               nrexcl
UNK                   3
[ atoms ]
;   nr       type  resnr residue  atom   cgnr     charge       mass  
     1   opls_800      1    UNK   C00      1    -0.2405    12.0110 
     2   opls_801      1    UNK   C01      1      -0.15    12.0110 
     3   opls_802      1    UNK   C02      1     0.0124    12.0110 
     4   opls_803      1    UNK   O03      1    -0.3611    15.9990 
     5   opls_804      1    UNK   C04      1     0.0274    12.0110 
     6   opls_805      1    UNK   C05      1    -0.1451    12.0110 
     7   opls_806      1    UNK   C06      1    -0.1581    12.0110 
     8   opls_807      1    UNK   C07      1     0.4457    12.0110 
     9   opls_808      1    UNK   O08      1    -0.3809    15.9990 
    10   opls_809      1    UNK   O09      1     -0.323    15.9990 
    11   opls_810      1    UNK   C0A      1    -0.0001    12.0110 
    12   opls_811      1    UNK   C0B      1     0.0018    12.0110 
    13   opls_812      1    UNK   C0C      1     0.1363    12.0110 
    14   opls_813      1    UNK   N0D      1    -0.3507    14.0070 
    15   opls_814      1    UNK   H0E      1     0.0887     1.0080 
    16   opls_815      1    UNK   H0F      1     0.0887     1.0080 
    17   opls_816      1    UNK   H0G      1     0.0887     1.0080 
    18   opls_817      1    UNK   H0H      1     0.1113     1.0080 
    19   opls_818      1    UNK   H0I      1     0.1066     1.0080 
    20   opls_819      1    UNK   H0J      1     0.1066     1.0080 
    21   opls_820      1    UNK   H0K      1     0.1212     1.0080 
    22   opls_821      1    UNK   H0M      1     0.1212     1.0080 
    23   opls_822      1    UNK   H0N      1     0.1137     1.0080 
    24   opls_823      1    UNK   H0O      1     0.1137     1.0080 
    25   opls_824      1    UNK   H0P      1     0.1331     1.0080 
    26   opls_825      1    UNK   H0Q      1     0.1331     1.0080 
    27   opls_826      1    UNK   H0R      1     0.1595     1.0080 
[ bonds ]
    2     1     1      0.1529 224262.400
    3     2     1      0.1529 224262.400
    4     3     1      0.1410 267776.000
    5     4     1      0.1410 267776.000
    6     5     1      0.1529 224262.400
    7     2     1      0.1529 224262.400
    8     6     1      0.1522 265265.600
    9     8     1      0.1229 476976.000
   10     8     1      0.1327 179075.200
   11    10     1      0.1410 267776.000
   12     6     1      0.1529 224262.400
   13    12     1      0.1470 326352.000
   14    13     1      0.1157 543920.000
   15     1     1      0.1090 284512.000
   16     1     1      0.1090 284512.000
   17     1     1      0.1090 284512.000
   18     2     1      0.1090 284512.000
   19     3     1      0.1090 284512.000
   20     3     1      0.1090 284512.000
   21     5     1      0.1090 284512.000
   22     5     1      0.1090 284512.000
   23     7     1      0.1090 284512.000
   24     7     1      0.1090 284512.000
   25    11     1      0.1090 284512.000
   26    11     1      0.1090 284512.000
   27    12     1      0.1090 284512.000
    7     6     1      0.1529 224262.400
   12    11     1      0.1529 224262.400

[ angles ]
;  ai    aj    ak funct            c0            c1            c2            c3 
    1     2     3     1    112.700    488.273
    2     3     4     1    109.500    418.400
    3     4     5     1    109.500    502.080
    4     5     6     1    109.500    418.400
    1     2     7     1    112.700    488.273
    5     6     8     1    111.100    527.184
    6     8     9     1    120.400    669.440
    6     8    10     1    111.400    677.808
    8    10    11     1    116.900    694.544
    5     6    12     1    112.700    488.273
    6    12    13     1    112.700    488.273
   12    13    14     1    180.000   1255.200
    2     1    15     1    110.700    313.800
    2     1    16     1    110.700    313.800
    2     1    17     1    110.700    313.800
    1     2    18     1    110.700    313.800
    2     3    19     1    110.700    313.800
    2     3    20     1    110.700    313.800
    4     5    21     1    109.500    292.880
    4     5    22     1    109.500    292.880
    2     7    23     1    110.700    313.800
    2     7    24     1    110.700    313.800
   10    11    25     1    109.500    292.880
   10    11    26     1    109.500    292.880
    6    12    27     1    110.700    313.800
   23     7    24     1    107.800    276.144
   21     5    22     1    107.800    276.144
   25    11    26     1    107.800    276.144
    7     2    18     1    110.700    313.800
    3     2    18     1    110.700    313.800
    6     5    22     1    110.700    313.800
    6     5    21     1    110.700    313.800
    2     7     6     1    112.700    488.273
   15     1    17     1    107.800    276.144
   11    12    27     1    110.700    313.800
    4     3    19     1    109.500    292.880
    5     6     7     1    112.700    488.273
    6     7    24     1    110.700    313.800
   13    12    27     1    108.500    292.880
    6     7    23     1    110.700    313.800
   15     1    16     1    107.800    276.144
   10    11    12     1    109.500    418.400
    7     6     8     1    111.100    527.184
    6    12    11     1    112.700    488.273
   16     1    17     1    107.800    276.144
   19     3    20     1    107.800    276.144
   12    11    25     1    110.700    313.800
    3     2     7     1    112.700    488.273
    8     6    12     1    111.100    527.184
    4     3    20     1    109.500    292.880
   11    12    13     1    112.700    488.273
   12    11    26     1    110.700    313.800
    9     8    10     1    123.400    694.544
    7     6    12     1    112.700    488.273

[ dihedrals ]
; IMPROPER DIHEDRAL ANGLES 
;  ai    aj    ak    al funct            c0            c1            c2            c3            c4            c5
    10     8     6     9    4        180.000     43.932     2  

[ dihedrals ]
; PROPER DIHEDRAL ANGLES
;  ai    aj    ak    al funct            c0            c1            c2            c3            c4            c5
    8    6    7    2        3      -4.960   6.286   1.310  -2.636  -0.000   0.000
    8    6    5    4        3      -12.929  12.929   0.000  -0.000  -0.000   0.000
   12    6    8    9        3       0.000   0.000   0.000  -0.000  -0.000   0.000
   12    6    8   10        3      -1.157  -3.471   0.000   4.628  -0.000   0.000
   11   12    6    8        3      -4.960   6.286   1.310  -2.636  -0.000   0.000
    5    6    7    2        3       2.301  -1.464   0.837  -1.674  -0.000   0.000
   11   12    6    7        3       2.301  -1.464   0.837  -1.674  -0.000   0.000
    6    7    2    3        3       2.301  -1.464   0.837  -1.674  -0.000   0.000
   12    6    7    2        3       2.301  -1.464   0.837  -1.674  -0.000   0.000
   11   12    6    5        3       2.301  -1.464   0.837  -1.674  -0.000   0.000
    6    7    2    1        3       2.301  -1.464   0.837  -1.674  -0.000   0.000
    7    2    3    4        3       2.874   0.582   2.092  -5.548  -0.000   0.000
   12    6    5    4        3       2.874   0.582   2.092  -5.548  -0.000   0.000
    7    6    5    4        3       2.874   0.582   2.092  -5.548  -0.000   0.000
   12   11   10    8        3      -2.197   5.201   0.527  -3.531  -0.000   0.000
    6    5    4    3        3       1.715   2.845   1.046  -5.607  -0.000   0.000
   11   10    8    6        3      31.206  -9.768  -21.439  -0.000  -0.000   0.000
   11   10    8    9        3      21.439   0.000  -21.439  -0.000  -0.000   0.000
    5    4    3    2        3       1.715   2.845   1.046  -5.607  -0.000   0.000
   13   12    6    8        3      -4.960   6.286   1.310  -2.636  -0.000   0.000
   13   12    6    5        3      -2.720   0.000   2.720  -0.000  -0.000   0.000
   13   12    6    7        3      -2.720   0.000   2.720  -0.000  -0.000   0.000
   13   12   11   10        3       2.874   0.582   2.092  -5.548  -0.000   0.000
   23    7    6    8        3      -0.209  -0.628   0.000   0.837  -0.000   0.000
   21    5    6    8        3      -0.209  -0.628   0.000   0.837  -0.000   0.000
   27   12    6    8        3      -0.209  -0.628   0.000   0.837  -0.000   0.000
   24    7    6    8        3      -0.209  -0.628   0.000   0.837  -0.000   0.000
   22    5    6    8        3      -0.209  -0.628   0.000   0.837  -0.000   0.000
   17    1    2    7        3       0.628   1.883   0.000  -2.510  -0.000   0.000
   19    3    2    7        3       0.628   1.883   0.000  -2.510  -0.000   0.000
   20    3    2    1        3       0.628   1.883   0.000  -2.510  -0.000   0.000
   16    1    2    7        3       0.628   1.883   0.000  -2.510  -0.000   0.000
   22    5    6    7        3       0.628   1.883   0.000  -2.510  -0.000   0.000
   24    7    2    1        3       0.628   1.883   0.000  -2.510  -0.000   0.000
   23    7    2    1        3       0.628   1.883   0.000  -2.510  -0.000   0.000
   25   11   12    6        3       0.628   1.883   0.000  -2.510  -0.000   0.000
   15    1    2    7        3       0.628   1.883   0.000  -2.510  -0.000   0.000
   16    1    2    3        3       0.628   1.883   0.000  -2.510  -0.000   0.000
   21    5    6   12        3       0.628   1.883   0.000  -2.510  -0.000   0.000
   21    5    6    7        3       0.628   1.883   0.000  -2.510  -0.000   0.000
   23    7    6   12        3       0.628   1.883   0.000  -2.510  -0.000   0.000
   24    7    6    5        3       0.628   1.883   0.000  -2.510  -0.000   0.000
   18    2    7    6        3       0.628   1.883   0.000  -2.510  -0.000   0.000
   23    7    6    5        3       0.628   1.883   0.000  -2.510  -0.000   0.000
   17    1    2    3        3       0.628   1.883   0.000  -2.510  -0.000   0.000
   24    7    2    3        3       0.628   1.883   0.000  -2.510  -0.000   0.000
   27   12    6    7        3       0.628   1.883   0.000  -2.510  -0.000   0.000
   23    7    2    3        3       0.628   1.883   0.000  -2.510  -0.000   0.000
   24    7    6   12        3       0.628   1.883   0.000  -2.510  -0.000   0.000
   20    3    2    7        3       0.628   1.883   0.000  -2.510  -0.000   0.000
   19    3    2    1        3       0.628   1.883   0.000  -2.510  -0.000   0.000
   22    5    6   12        3       0.628   1.883   0.000  -2.510  -0.000   0.000
   27   12    6    5        3       0.628   1.883   0.000  -2.510  -0.000   0.000
   15    1    2    3        3       0.628   1.883   0.000  -2.510  -0.000   0.000
   26   11   12    6        3       0.628   1.883   0.000  -2.510  -0.000   0.000
   26   11   12   13        3       0.766   2.297   0.000  -3.063  -0.000   0.000
   25   11   12   13        3       0.766   2.297   0.000  -3.063  -0.000   0.000
   18    2    1   16        3       0.628   1.883   0.000  -2.510  -0.000   0.000
   27   12   11   26        3       0.628   1.883   0.000  -2.510  -0.000   0.000
   18    2    1   15        3       0.628   1.883   0.000  -2.510  -0.000   0.000
   24    7    2   18        3       0.628   1.883   0.000  -2.510  -0.000   0.000
   18    2    1   17        3       0.628   1.883   0.000  -2.510  -0.000   0.000
   27   12   11   25        3       0.628   1.883   0.000  -2.510  -0.000   0.000
   20    3    2   18        3       0.628   1.883   0.000  -2.510  -0.000   0.000
   19    3    2   18        3       0.628   1.883   0.000  -2.510  -0.000   0.000
   23    7    2   18        3       0.628   1.883   0.000  -2.510  -0.000   0.000
   27   12   11   10        3       0.979   2.937   0.000  -3.916  -0.000   0.000
   18    2    3    4        3       0.979   2.937   0.000  -3.916  -0.000   0.000
   27   12   13   14        3       0.000   0.000   0.000  -0.000  -0.000   0.000
   26   11   10    8        3       0.414   1.243   0.000  -1.657  -0.000   0.000
   25   11   10    8        3       0.414   1.243   0.000  -1.657  -0.000   0.000
   21    5    4    3        3       1.590   4.770   0.000  -6.360  -0.000   0.000
   20    3    4    5        3       1.590   4.770   0.000  -6.360  -0.000   0.000
   22    5    4    3        3       1.590   4.770   0.000  -6.360  -0.000   0.000
   19    3    4    5        3       1.590   4.770   0.000  -6.360  -0.000   0.000
   14   13   12   11        3       0.000   0.000   0.000  -0.000  -0.000   0.000
   14   13   12    6        3       0.000   0.000   0.000  -0.000  -0.000   0.000
    9    8    6    5        3       0.000   0.000   0.000  -0.000  -0.000   0.000
    9    8    6    7        3       0.000   0.000   0.000  -0.000  -0.000   0.000
   10    8    6    5        3      -1.157  -3.471   0.000   4.628  -0.000   0.000
   10    8    6    7        3      -1.157  -3.471   0.000   4.628  -0.000   0.000
   10   11   12    6        3       2.874   0.582   2.092  -5.548  -0.000   0.000
    4    3    2    1        3       2.874   0.582   2.092  -5.548  -0.000   0.000

[ pairs ]
     1     4    1
     2     5    1
     1     6    1
     3     6    1
     2     8    1
     4     7    1
     4     8    1
     5     9    1
     2    12    1
     5    10    1
     7     9    1
     5    11    1
     4    12    1
     7    10    1
     7    11    1
     5    13    1
     3    15    1
     3    16    1
     9    11    1
     7    13    1
     6    14    1
     3    17    1
     1    19    1
     9    12    1
     8    13    1
     1    20    1
     7    15    1
     4    18    1
    10    13    1
     7    16    1
     7    17    1
     6    18    1
     5    19    1
     3    21    1
     1    23    1
    11    14    1
     5    20    1
     3    22    1
     1    24    1
     7    19    1
     3    23    1
     7    20    1
     3    24    1
     7    21    1
     5    23    1
     8    21    1
     7    22    1
     5    24    1
     8    22    1
     8    23    1
     6    25    1
     8    24    1
     6    26    1
     5    27    1
    15    18    1
    12    21    1
     8    25    1
    16    18    1
    12    22    1
     8    26    1
     7    27    1
    17    18    1
    12    23    1
     8    27    1
    12    24    1
    18    19    1
    10    27    1
    18    20    1
    13    25    1
    13    26    1
    18    23    1
    14    27    1
    18    24    1
    25    27    1
    26    27    1

