LIGPARGEN GENERATED GRO FILE
   32
    1UNK    C00    1   0.100   0.100   0.000
    1UNK    C01    2  -0.052   0.100   0.000
    1UNK    C02    3  -0.120   0.100   0.139
    1UNK    C03    4  -0.132  -0.053   0.129
    1UNK    C04    5  -0.120  -0.032  -0.018
    1UNK    C05    6  -0.226  -0.061  -0.119
    1UNK    C06    7  -0.094  -0.135  -0.124
    1UNK    C07    8  -0.086  -0.279  -0.089
    1UNK    O08    9  -0.178  -0.341  -0.038
    1UNK    O09   10   0.037  -0.329  -0.121
    1UNK    C0A   11   0.062  -0.470  -0.100
    1UNK    C0B   12  -0.001  -0.560  -0.201
    1UNK    C0C   13   0.202  -0.499  -0.051
    1UNK    C0D   14   0.084  -0.517   0.041
    1UNK    H0E   15   0.138   0.199   0.029
    1UNK    H0F   16   0.139   0.077  -0.100
    1UNK    H0G   17   0.141   0.027   0.070
    1UNK    H0H   18  -0.090   0.179  -0.066
    1UNK    H0I   19  -0.216   0.152   0.141
    1UNK    H0J   20  -0.059   0.136   0.223
    1UNK    H0K   21  -0.227  -0.094   0.166
    1UNK    H0M   22  -0.049  -0.108   0.173
    1UNK    H0N   23  -0.245   0.013  -0.197
    1UNK    H0O   24  -0.314  -0.115  -0.087
    1UNK    H0P   25  -0.026  -0.106  -0.203
    1UNK    H0Q   26   0.018  -0.524  -0.302
    1UNK    H0R   27  -0.110  -0.565  -0.187
    1UNK    H0S   28   0.038  -0.662  -0.194
    1UNK    H0T   29   0.268  -0.416  -0.033
    1UNK    H0U   30   0.251  -0.588  -0.088
    1UNK    H0V   31   0.071  -0.446   0.122
    1UNK    H0W   32   0.055  -0.618   0.067
   1.00000   1.00000   1.00000

