LIGPARGEN GENERATED GRO FILE
   31
    1UNK    C00    1   0.100   0.100   0.000
    1UNK    C01    2  -0.052   0.100   0.000
    1UNK    C02    3  -0.117   0.100   0.140
    1UNK    O03    4  -0.073   0.213   0.220
    1UNK    C04    5  -0.106   0.339   0.185
    1UNK    O05    6  -0.176   0.374   0.091
    1UNK    O06    7  -0.046   0.423   0.275
    1UNK    C07    8  -0.078   0.561   0.260
    1UNK    C08    9  -0.270   0.088   0.130
    1UNK    C09   10  -0.314   0.035   0.265
    1UNK    C0A   11  -0.202  -0.060   0.308
    1UNK    C0B   12  -0.176  -0.051   0.458
    1UNK    C0C   13  -0.079  -0.025   0.223
    1UNK    H0D   14   0.137   0.100  -0.103
    1UNK    H0E   15   0.140   0.011   0.049
    1UNK    H0F   16   0.140   0.189   0.050
    1UNK    H0G   17  -0.086   0.012  -0.056
    1UNK    H0H   18  -0.086   0.188  -0.057
    1UNK    H0I   19   0.006   0.619   0.299
    1UNK    H0J   20  -0.167   0.584   0.320
    1UNK    H0K   21  -0.094   0.590   0.156
    1UNK    H0M   22  -0.298   0.016   0.052
    1UNK    H0N   23  -0.321   0.182   0.108
    1UNK    H0O   24  -0.410  -0.018   0.258
    1UNK    H0P   25  -0.326   0.117   0.336
    1UNK    H0Q   26  -0.232  -0.163   0.285
    1UNK    H0R   27  -0.140   0.048   0.487
    1UNK    H0S   28  -0.102  -0.125   0.489
    1UNK    H0T   29  -0.269  -0.071   0.514
    1UNK    H0U   30  -0.057  -0.110   0.157
    1UNK    H0V   31   0.010  -0.007   0.285
   1.00000   1.00000   1.00000

