LIGPARGEN GENERATED GRO FILE
   26
    1UNK    C00    1   0.100   0.100   0.000
    1UNK    C01    2  -0.052   0.100   0.000
    1UNK    C02    3  -0.116   0.100   0.140
    1UNK    C03    4  -0.076   0.217   0.233
    1UNK    C04    5  -0.115   0.357   0.185
    1UNK    C05    6  -0.073   0.466   0.281
    1UNK    F06    7  -0.060   0.382   0.064
    1UNK    F07    8  -0.250   0.363   0.171
    1UNK    C08    9  -0.268   0.087   0.126
    1UNK    O09   10  -0.328   0.128   0.025
    1UNK    C0A   11  -0.346   0.021   0.238
    1UNK    C0B   12  -0.309  -0.120   0.250
    1UNK    N0C   13  -0.280  -0.232   0.259
    1UNK    H0D   14   0.137   0.080  -0.101
    1UNK    H0E   15   0.140   0.022   0.066
    1UNK    H0F   16   0.140   0.197   0.032
    1UNK    H0G   17  -0.086   0.010  -0.053
    1UNK    H0H   18  -0.088   0.185  -0.060
    1UNK    H0I   19  -0.081   0.008   0.189
    1UNK    H0J   20   0.033   0.214   0.248
    1UNK    H0K   21  -0.122   0.200   0.331
    1UNK    H0M   22   0.034   0.459   0.305
    1UNK    H0N   23  -0.131   0.461   0.374
    1UNK    H0O   24  -0.090   0.564   0.236
    1UNK    H0P   25  -0.453   0.030   0.215
    1UNK    H0Q   26  -0.327   0.076   0.331
   1.00000   1.00000   1.00000

