LIGPARGEN GENERATED GRO FILE
   29
    1UNK    C00    1   0.100   0.100   0.000
    1UNK    C01    2  -0.052   0.100   0.000
    1UNK    C02    3  -0.111   0.100   0.141
    1UNK    C03    4  -0.073   0.226   0.216
    1UNK    O04    5  -0.105   0.337   0.173
    1UNK    C05    6   0.006   0.208   0.345
    1UNK    C06    7   0.094   0.329   0.370
    1UNK    C07    8  -0.084   0.178   0.464
    1UNK    O08    9  -0.207   0.186   0.456
    1UNK    C09   10  -0.019   0.132   0.592
    1UNK    C0A   11  -0.036   0.227   0.707
    1UNK    C0B   12  -0.173   0.242   0.768
    1UNK    O0C   13   0.061   0.285   0.754
    1UNK    H0D   14   0.138   0.100  -0.103
    1UNK    H0E   15   0.139   0.012   0.051
    1UNK    H0F   16   0.140   0.189   0.050
    1UNK    H0G   17  -0.088   0.011  -0.054
    1UNK    H0H   18  -0.088   0.188  -0.056
    1UNK    H0I   19  -0.078   0.012   0.196
    1UNK    H0J   20  -0.221   0.096   0.136
    1UNK    H0K   21   0.071   0.121   0.331
    1UNK    H0M   22   0.035   0.420   0.383
    1UNK    H0N   23   0.161   0.346   0.284
    1UNK    H0O   24   0.156   0.317   0.459
    1UNK    H0P   25   0.088   0.116   0.575
    1UNK    H0Q   26  -0.060   0.034   0.619
    1UNK    H0R   27  -0.250   0.196   0.706
    1UNK    H0S   28  -0.196   0.348   0.779
    1UNK    H0T   29  -0.174   0.193   0.866
   1.00000   1.00000   1.00000

