
;
; GENERATED BY LigParGen Server
; Jorgensen Lab @ Yale University 
;
[ atomtypes ]
  opls_818  H818     1.0080     0.000    A    2.50000E-01   1.25520E-01
  opls_824  H824     1.0080     0.000    A    2.50000E-01   1.25520E-01
  opls_808  O808    15.9990     0.000    A    2.96000E-01   8.78640E-01
  opls_804  O804    15.9990     0.000    A    2.96000E-01   8.78640E-01
  opls_828  H828     1.0080     0.000    A    2.50000E-01   1.25520E-01
  opls_813  H813     1.0080     0.000    A    2.50000E-01   1.25520E-01
  opls_802  C802    12.0110     0.000    A    3.50000E-01   2.76144E-01
  opls_807  C807    12.0110     0.000    A    3.55000E-01   2.92880E-01
  opls_809  C809    12.0110     0.000    A    3.50000E-01   2.76144E-01
  opls_806  C806    12.0110     0.000    A    3.50000E-01   2.76144E-01
  opls_822  H822     1.0080     0.000    A    2.50000E-01   1.25520E-01
  opls_825  H825     1.0080     0.000    A    2.50000E-01   1.25520E-01
  opls_814  H814     1.0080     0.000    A    2.50000E-01   1.25520E-01
  opls_821  H821     1.0080     0.000    A    2.50000E-01   1.25520E-01
  opls_827  H827     1.0080     0.000    A    2.50000E-01   1.25520E-01
  opls_820  H820     1.0080     0.000    A    2.50000E-01   1.25520E-01
  opls_810  C810    12.0110     0.000    A    3.55000E-01   2.92880E-01
  opls_812  O812    15.9990     0.000    A    2.96000E-01   8.78640E-01
  opls_816  H816     1.0080     0.000    A    2.50000E-01   1.25520E-01
  opls_800  C800    12.0110     0.000    A    3.50000E-01   2.76144E-01
  opls_811  C811    12.0110     0.000    A    3.50000E-01   2.76144E-01
  opls_823  H823     1.0080     0.000    A    2.50000E-01   1.25520E-01
  opls_826  H826     1.0080     0.000    A    2.50000E-01   1.25520E-01
  opls_819  H819     1.0080     0.000    A    2.50000E-01   1.25520E-01
  opls_805  C805    12.0110     0.000    A    3.50000E-01   2.76144E-01
  opls_815  H815     1.0080     0.000    A    2.50000E-01   1.25520E-01
  opls_801  C801    12.0110     0.000    A    3.50000E-01   2.76144E-01
  opls_803  C803    12.0110     0.000    A    3.55000E-01   2.92880E-01
  opls_817  H817     1.0080     0.000    A    2.50000E-01   1.25520E-01
[ moleculetype ]
; Name               nrexcl
UNK                   3
[ atoms ]
;   nr       type  resnr residue  atom   cgnr     charge       mass  
     1   opls_800      1    UNK   C00      1    -0.2449    12.0110 
     2   opls_801      1    UNK   C01      1    -0.1706    12.0110 
     3   opls_802      1    UNK   C02      1    -0.2277    12.0110 
     4   opls_803      1    UNK   C03      1     0.3865    12.0110 
     5   opls_804      1    UNK   O04      1    -0.4251    15.9990 
     6   opls_805      1    UNK   C05      1    -0.2174    12.0110 
     7   opls_806      1    UNK   C06      1    -0.2311    12.0110 
     8   opls_807      1    UNK   C07      1     0.3985    12.0110 
     9   opls_808      1    UNK   O08      1    -0.4342    15.9990 
    10   opls_809      1    UNK   C09      1    -0.2998    12.0110 
    11   opls_810      1    UNK   C0A      1     0.3838    12.0110 
    12   opls_811      1    UNK   C0B      1    -0.3003    12.0110 
    13   opls_812      1    UNK   O0C      1    -0.4436    15.9990 
    14   opls_813      1    UNK   H0D      1     0.0839     1.0080 
    15   opls_814      1    UNK   H0E      1     0.0839     1.0080 
    16   opls_815      1    UNK   H0F      1     0.0839     1.0080 
    17   opls_816      1    UNK   H0G      1     0.1048     1.0080 
    18   opls_817      1    UNK   H0H      1     0.1048     1.0080 
    19   opls_818      1    UNK   H0I      1     0.1185     1.0080 
    20   opls_819      1    UNK   H0J      1     0.1185     1.0080 
    21   opls_820      1    UNK   H0K      1     0.1381     1.0080 
    22   opls_821      1    UNK   H0M      1      0.106     1.0080 
    23   opls_822      1    UNK   H0N      1      0.106     1.0080 
    24   opls_823      1    UNK   H0O      1      0.106     1.0080 
    25   opls_824      1    UNK   H0P      1     0.1449     1.0080 
    26   opls_825      1    UNK   H0Q      1     0.1449     1.0080 
    27   opls_826      1    UNK   H0R      1     0.1272     1.0080 
    28   opls_827      1    UNK   H0S      1     0.1272     1.0080 
    29   opls_828      1    UNK   H0T      1     0.1272     1.0080 
[ bonds ]
    2     1     1      0.1529 224262.400
    3     2     1      0.1529 224262.400
    4     3     1      0.1522 265265.600
    5     4     1      0.1229 476976.000
    6     4     1      0.1522 265265.600
    7     6     1      0.1529 224262.400
    8     6     1      0.1522 265265.600
    9     8     1      0.1229 476976.000
   10     8     1      0.1522 265265.600
   11    10     1      0.1522 265265.600
   12    11     1      0.1522 265265.600
   13    11     1      0.1229 476976.000
   14     1     1      0.1090 284512.000
   15     1     1      0.1090 284512.000
   16     1     1      0.1090 284512.000
   17     2     1      0.1090 284512.000
   18     2     1      0.1090 284512.000
   19     3     1      0.1090 284512.000
   20     3     1      0.1090 284512.000
   21     6     1      0.1090 284512.000
   22     7     1      0.1090 284512.000
   23     7     1      0.1090 284512.000
   24     7     1      0.1090 284512.000
   25    10     1      0.1090 284512.000
   26    10     1      0.1090 284512.000
   27    12     1      0.1090 284512.000
   28    12     1      0.1090 284512.000
   29    12     1      0.1090 284512.000

[ angles ]
;  ai    aj    ak funct            c0            c1            c2            c3 
    1     2     3     1    112.700    488.273
    2     3     4     1    111.100    527.184
    3     4     5     1    120.400    669.440
    3     4     6     1    116.000    585.760
    4     6     7     1    111.100    527.184
    4     6     8     1    111.100    527.184
    6     8     9     1    120.400    669.440
    6     8    10     1    116.000    585.760
    8    10    11     1    111.100    527.184
   10    11    12     1    116.000    585.760
   10    11    13     1    120.400    669.440
    2     1    14     1    110.700    313.800
    2     1    15     1    110.700    313.800
    2     1    16     1    110.700    313.800
    1     2    17     1    110.700    313.800
    1     2    18     1    110.700    313.800
    2     3    19     1    110.700    313.800
    2     3    20     1    110.700    313.800
    4     6    21     1    109.500    292.880
    6     7    22     1    110.700    313.800
    6     7    23     1    110.700    313.800
    6     7    24     1    110.700    313.800
    8    10    25     1    109.500    292.880
    8    10    26     1    109.500    292.880
   11    12    27     1    109.500    292.880
   11    12    28     1    109.500    292.880
   11    12    29     1    109.500    292.880
   23     7    24     1    107.800    276.144
    5     4     6     1    120.400    669.440
   27    12    29     1    107.800    276.144
    8     6    21     1    109.500    292.880
    3     2    18     1    110.700    313.800
   28    12    29     1    107.800    276.144
   25    10    26     1    107.800    276.144
    3     2    17     1    110.700    313.800
   22     7    23     1    107.800    276.144
    4     3    19     1    109.500    292.880
    9     8    10     1    120.400    669.440
   27    12    28     1    107.800    276.144
   22     7    24     1    107.800    276.144
   15     1    16     1    107.800    276.144
   14     1    15     1    107.800    276.144
    7     6     8     1    111.100    527.184
   17     2    18     1    107.800    276.144
   11    10    26     1    109.500    292.880
   12    11    13     1    120.400    669.440
   11    10    25     1    109.500    292.880
   19     3    20     1    107.800    276.144
   14     1    16     1    107.800    276.144
    4     3    20     1    109.500    292.880
    7     6    21     1    110.700    313.800

[ dihedrals ]
; IMPROPER DIHEDRAL ANGLES 
;  ai    aj    ak    al funct            c0            c1            c2            c3            c4            c5
     6     4     3     5    4        180.000     43.932     2  
    10     8     6     9    4        180.000     43.932     2  
    13    11    10    12    4        180.000     43.932     2  

[ dihedrals ]
; PROPER DIHEDRAL ANGLES
;  ai    aj    ak    al funct            c0            c1            c2            c3            c4            c5
    8    6    4    3        3       0.818  -7.906   0.602   6.485  -0.000   0.000
   11   10    8    6        3       0.818  -7.906   0.602   6.485  -0.000   0.000
    8    6    4    5        3       0.000   0.000   0.000  -0.000  -0.000   0.000
   11   10    8    9        3       0.000   0.000   0.000  -0.000  -0.000   0.000
    4    3    2    1        3      -4.960   6.286   1.310  -2.636  -0.000   0.000
   10    8    6    4        3       0.818  -7.906   0.602   6.485  -0.000   0.000
   12   11   10    8        3       0.818  -7.906   0.602   6.485  -0.000   0.000
    6    4    3    2        3       0.818  -7.906   0.602   6.485  -0.000   0.000
   10    8    6    7        3       0.818  -7.906   0.602   6.485  -0.000   0.000
    7    6    4    3        3       0.818  -7.906   0.602   6.485  -0.000   0.000
    7    6    4    5        3       0.000   0.000   0.000  -0.000  -0.000   0.000
   28   12   11   10        3       0.575   1.726   0.000  -2.301  -0.000   0.000
   20    3    4    6        3       0.575   1.726   0.000  -2.301  -0.000   0.000
   21    6    8   10        3       0.575   1.726   0.000  -2.301  -0.000   0.000
   21    6    4    3        3       0.575   1.726   0.000  -2.301  -0.000   0.000
   25   10   11   12        3       0.575   1.726   0.000  -2.301  -0.000   0.000
   25   10    8    6        3       0.575   1.726   0.000  -2.301  -0.000   0.000
   26   10    8    6        3       0.575   1.726   0.000  -2.301  -0.000   0.000
   26   10   11   12        3       0.575   1.726   0.000  -2.301  -0.000   0.000
   19    3    4    6        3       0.575   1.726   0.000  -2.301  -0.000   0.000
   29   12   11   10        3       0.575   1.726   0.000  -2.301  -0.000   0.000
   27   12   11   10        3       0.575   1.726   0.000  -2.301  -0.000   0.000
   20    3    4    5        3       0.000   0.000   0.000  -0.000  -0.000   0.000
   21    6    4    5        3       0.000   0.000   0.000  -0.000  -0.000   0.000
   27   12   11   13        3       0.000   0.000   0.000  -0.000  -0.000   0.000
   25   10    8    9        3       0.000   0.000   0.000  -0.000  -0.000   0.000
   21    6    8    9        3       0.000   0.000   0.000  -0.000  -0.000   0.000
   19    3    4    5        3       0.000   0.000   0.000  -0.000  -0.000   0.000
   25   10   11   13        3       0.000   0.000   0.000  -0.000  -0.000   0.000
   29   12   11   13        3       0.000   0.000   0.000  -0.000  -0.000   0.000
   28   12   11   13        3       0.000   0.000   0.000  -0.000  -0.000   0.000
   26   10   11   13        3       0.000   0.000   0.000  -0.000  -0.000   0.000
   26   10    8    9        3       0.000   0.000   0.000  -0.000  -0.000   0.000
   24    7    6    8        3      -0.209  -0.628   0.000   0.837  -0.000   0.000
   24    7    6    4        3      -0.209  -0.628   0.000   0.837  -0.000   0.000
   23    7    6    8        3      -0.209  -0.628   0.000   0.837  -0.000   0.000
   23    7    6    4        3      -0.209  -0.628   0.000   0.837  -0.000   0.000
   18    2    3    4        3      -0.209  -0.628   0.000   0.837  -0.000   0.000
   17    2    3    4        3      -0.209  -0.628   0.000   0.837  -0.000   0.000
   22    7    6    8        3      -0.209  -0.628   0.000   0.837  -0.000   0.000
   22    7    6    4        3      -0.209  -0.628   0.000   0.837  -0.000   0.000
   16    1    2    3        3       0.628   1.883   0.000  -2.510  -0.000   0.000
   14    1    2    3        3       0.628   1.883   0.000  -2.510  -0.000   0.000
   19    3    2    1        3       0.628   1.883   0.000  -2.510  -0.000   0.000
   20    3    2    1        3       0.628   1.883   0.000  -2.510  -0.000   0.000
   15    1    2    3        3       0.628   1.883   0.000  -2.510  -0.000   0.000
   17    2    1   16        3       0.628   1.883   0.000  -2.510  -0.000   0.000
   22    7    6   21        3       0.628   1.883   0.000  -2.510  -0.000   0.000
   18    2    1   16        3       0.628   1.883   0.000  -2.510  -0.000   0.000
   24    7    6   21        3       0.628   1.883   0.000  -2.510  -0.000   0.000
   20    3    2   17        3       0.628   1.883   0.000  -2.510  -0.000   0.000
   17    2    1   14        3       0.628   1.883   0.000  -2.510  -0.000   0.000
   23    7    6   21        3       0.628   1.883   0.000  -2.510  -0.000   0.000
   19    3    2   18        3       0.628   1.883   0.000  -2.510  -0.000   0.000
   18    2    1   15        3       0.628   1.883   0.000  -2.510  -0.000   0.000
   17    2    1   15        3       0.628   1.883   0.000  -2.510  -0.000   0.000
   20    3    2   18        3       0.628   1.883   0.000  -2.510  -0.000   0.000
   19    3    2   17        3       0.628   1.883   0.000  -2.510  -0.000   0.000
   18    2    1   14        3       0.628   1.883   0.000  -2.510  -0.000   0.000
   13   11   10    8        3       0.000   0.000   0.000  -0.000  -0.000   0.000
    9    8    6    4        3       0.000   0.000   0.000  -0.000  -0.000   0.000
    5    4    3    2        3       0.000   0.000   0.000  -0.000  -0.000   0.000
    9    8    6    7        3       0.000   0.000   0.000  -0.000  -0.000   0.000

[ pairs ]
     1     4    1
     2     5    1
     2     6    1
     3     7    1
     3     8    1
     5     7    1
     5     8    1
     4     9    1
     4    10    1
     7     9    1
     7    10    1
     6    11    1
     3    14    1
     3    15    1
     3    16    1
     9    11    1
     8    12    1
     1    19    1
     8    13    1
     4    17    1
     1    20    1
     4    18    1
     5    19    1
     3    21    1
     6    19    1
     5    20    1
     6    20    1
     5    21    1
     4    22    1
     4    23    1
     4    24    1
     9    21    1
     8    22    1
    14    17    1
    10    21    1
     8    23    1
     6    25    1
    15    17    1
    14    18    1
     8    24    1
     6    26    1
    16    17    1
    15    18    1
    16    18    1
     9    25    1
     9    26    1
    17    19    1
    18    19    1
    17    20    1
    12    25    1
    10    27    1
    18    20    1
    13    25    1
    12    26    1
    10    28    1
    13    26    1
    10    29    1
    13    27    1
    13    28    1
    13    29    1
    21    22    1
    21    23    1
    21    24    1

