LIGPARGEN GENERATED GRO FILE
   30
    1UNK    C00    1   0.100   0.100   0.000
    1UNK    C01    2  -0.052   0.100   0.000
    1UNK    C02    3  -0.116   0.100   0.140
    1UNK    O03    4  -0.259   0.106   0.123
    1UNK    C04    5  -0.329  -0.005   0.090
    1UNK    O05    6  -0.430   0.001   0.022
    1UNK    C06    7  -0.285  -0.133   0.157
    1UNK    C07    8  -0.135  -0.144   0.176
    1UNK    C08    9  -0.076  -0.016   0.234
    1UNK    C09   10  -0.121   0.008   0.383
    1UNK    C0A   11  -0.080  -0.108   0.475
    1UNK    C0B   12  -0.062   0.138   0.441
    1UNK    H0C   13   0.137   0.122  -0.101
    1UNK    H0D   14   0.140   0.002   0.029
    1UNK    H0E   15   0.140   0.176   0.068
    1UNK    H0F   16  -0.089   0.016  -0.060
    1UNK    H0G   17  -0.087   0.190  -0.052
    1UNK    H0H   18  -0.087   0.195   0.186
    1UNK    H0I   19  -0.320  -0.217   0.096
    1UNK    H0J   20  -0.337  -0.138   0.254
    1UNK    H0K   21  -0.089  -0.165   0.079
    1UNK    H0M   22  -0.112  -0.232   0.238
    1UNK    H0N   23   0.034  -0.026   0.235
    1UNK    H0O   24  -0.230   0.018   0.387
    1UNK    H0P   25   0.028  -0.127   0.469
    1UNK    H0Q   26  -0.133  -0.200   0.449
    1UNK    H0R   27  -0.105  -0.085   0.579
    1UNK    H0S   28   0.047   0.140   0.431
    1UNK    H0T   29  -0.086   0.146   0.548
    1UNK    H0U   30  -0.103   0.226   0.393
   1.00000   1.00000   1.00000

