LIGPARGEN GENERATED GRO FILE
   31
    1UNK    C00    1   0.100   0.100   0.000
    1UNK    C01    2  -0.052   0.100   0.000
    1UNK    O02    3  -0.096   0.100   0.136
    1UNK    N03    4  -0.240   0.119   0.147
    1UNK    C04    5  -0.302  -0.010   0.117
    1UNK    C05    6  -0.265   0.164   0.288
    1UNK    C06    7  -0.417   0.187   0.307
    1UNK    C07    8  -0.206   0.073   0.402
    1UNK    C08    9  -0.053   0.062   0.404
    1UNK    C09   10  -0.014   0.005   0.539
    1UNK    C0A   11  -0.083   0.089   0.644
    1UNK    S0B   12  -0.244   0.130   0.573
    1UNK    H0C   13   0.139   0.070  -0.098
    1UNK    H0D   14   0.139   0.032   0.076
    1UNK    H0E   15   0.138   0.200   0.023
    1UNK    H0F   16  -0.085   0.007  -0.048
    1UNK    H0G   17  -0.091   0.186  -0.055
    1UNK    H0H   18  -0.285  -0.038   0.012
    1UNK    H0I   19  -0.411  -0.006   0.127
    1UNK    H0J   20  -0.264  -0.091   0.180
    1UNK    H0K   21  -0.218   0.263   0.297
    1UNK    H0M   22  -0.472   0.092   0.313
    1UNK    H0N   23  -0.458   0.245   0.224
    1UNK    H0O   24  -0.438   0.242   0.398
    1UNK    H0P   25  -0.250  -0.027   0.394
    1UNK    H0Q   26  -0.007   0.161   0.389
    1UNK    H0R   27  -0.017  -0.005   0.326
    1UNK    H0S   28   0.095   0.007   0.552
    1UNK    H0T   29  -0.045  -0.099   0.546
    1UNK    H0U   30  -0.028   0.182   0.663
    1UNK    H0V   31  -0.094   0.035   0.738
   1.00000   1.00000   1.00000

