
;
; GENERATED BY LigParGen Server
; Jorgensen Lab @ Yale University 
;
[ atomtypes ]
  opls_818  H818     1.0080     0.000    A    2.50000E-01   1.25520E-01
  opls_824  H824     1.0080     0.000    A    2.50000E-01   1.25520E-01
  opls_805  O805    15.9990     0.000    A    2.96000E-01   8.78640E-01
  opls_801  S801    32.0600     0.000    A    3.60000E-01   1.48532E+00
  opls_828  H828     1.0080     0.000    A    2.50000E-01   1.25520E-01
  opls_813  H813     1.0080     0.000    A    2.50000E-01   1.25520E-01
  opls_811  C811    12.0110     0.000    A    3.50000E-01   2.76144E-01
  opls_815  H815     1.0080     0.000    A    2.50000E-01   1.25520E-01
  opls_809  C809    12.0110     0.000    A    3.50000E-01   2.76144E-01
  opls_822  H822     1.0080     0.000    A    2.50000E-01   1.25520E-01
  opls_803  C803    12.0110     0.000    A    3.50000E-01   2.76144E-01
  opls_825  H825     1.0080     0.000    A    2.50000E-01   1.25520E-01
  opls_814  H814     1.0080     0.000    A    2.50000E-01   1.25520E-01
  opls_821  H821     1.0080     0.000    A    2.50000E-01   1.25520E-01
  opls_820  H820     1.0080     0.000    A    2.50000E-01   1.25520E-01
  opls_804  C804    12.0110     0.000    A    3.55000E-01   2.92880E-01
  opls_816  H816     1.0080     0.000    A    2.50000E-01   1.25520E-01
  opls_800  C800    12.0110     0.000    A    3.50000E-01   2.76144E-01
  opls_802  C802    12.0110     0.000    A    3.50000E-01   2.76144E-01
  opls_823  H823     1.0080     0.000    A    2.50000E-01   1.25520E-01
  opls_826  H826     1.0080     0.000    A    2.50000E-01   1.25520E-01
  opls_819  H819     1.0080     0.000    A    2.50000E-01   1.25520E-01
  opls_810  C810    12.0110     0.000    A    3.50000E-01   2.76144E-01
  opls_827  H827     1.0080     0.000    A    2.50000E-01   1.25520E-01
  opls_808  C808    12.0110     0.000    A    3.50000E-01   2.76144E-01
  opls_817  H817     1.0080     0.000    A    2.50000E-01   1.25520E-01
  opls_812  H812     1.0080     0.000    A    2.50000E-01   1.25520E-01
  opls_806  F806    18.9984     0.000    A    2.90000E-01   2.51040E-01
  opls_807  C807    12.0110     0.000    A    3.50000E-01   2.76144E-01
[ moleculetype ]
; Name               nrexcl
UNK                   3
[ atoms ]
;   nr       type  resnr residue  atom   cgnr     charge       mass  
     1   opls_800      1    UNK   C00      1    -0.1507    12.0110 
     2   opls_801      1    UNK   S01      1     -0.373    32.0600 
     3   opls_802      1    UNK   C02      1    -0.0815    12.0110 
     4   opls_803      1    UNK   C03      1    -0.1243    12.0110 
     5   opls_804      1    UNK   C04      1     0.4757    12.0110 
     6   opls_805      1    UNK   O05      1    -0.4574    15.9990 
     7   opls_806      1    UNK   F06      1    -0.1182    18.9984 
     8   opls_807      1    UNK   C07      1    -0.0891    12.0110 
     9   opls_808      1    UNK   C08      1    -0.2504    12.0110 
    10   opls_809      1    UNK   C09      1    -0.1099    12.0110 
    11   opls_810      1    UNK   C0A      1    -0.2435    12.0110 
    12   opls_811      1    UNK   C0B      1    -0.2358    12.0110 
    13   opls_812      1    UNK   H0C      1     0.1173     1.0080 
    14   opls_813      1    UNK   H0D      1     0.1173     1.0080 
    15   opls_814      1    UNK   H0E      1     0.1173     1.0080 
    16   opls_815      1    UNK   H0F      1     0.1297     1.0080 
    17   opls_816      1    UNK   H0G      1     0.1297     1.0080 
    18   opls_817      1    UNK   H0H      1     0.1411     1.0080 
    19   opls_818      1    UNK   H0I      1     0.1073     1.0080 
    20   opls_819      1    UNK   H0J      1     0.0949     1.0080 
    21   opls_820      1    UNK   H0K      1     0.0949     1.0080 
    22   opls_821      1    UNK   H0M      1     0.0949     1.0080 
    23   opls_822      1    UNK   H0N      1     0.0963     1.0080 
    24   opls_823      1    UNK   H0O      1     0.0864     1.0080 
    25   opls_824      1    UNK   H0P      1     0.0864     1.0080 
    26   opls_825      1    UNK   H0Q      1     0.0864     1.0080 
    27   opls_826      1    UNK   H0R      1      0.086     1.0080 
    28   opls_827      1    UNK   H0S      1      0.086     1.0080 
    29   opls_828      1    UNK   H0T      1      0.086     1.0080 
[ bonds ]
    2     1     1      0.1810 185769.600
    3     2     1      0.1810 185769.600
    4     3     1      0.1529 224262.400
    5     4     1      0.1522 265265.600
    6     5     1      0.1229 476976.000
    7     5     1      0.1357 351456.000
    8     4     1      0.1529 224262.400
    9     8     1      0.1529 224262.400
   10     8     1      0.1529 224262.400
   11    10     1      0.1529 224262.400
   12    10     1      0.1529 224262.400
   13     1     1      0.1090 284512.000
   14     1     1      0.1090 284512.000
   15     1     1      0.1090 284512.000
   16     3     1      0.1090 284512.000
   17     3     1      0.1090 284512.000
   18     4     1      0.1090 284512.000
   19     8     1      0.1090 284512.000
   20     9     1      0.1090 284512.000
   21     9     1      0.1090 284512.000
   22     9     1      0.1090 284512.000
   23    10     1      0.1090 284512.000
   24    11     1      0.1090 284512.000
   25    11     1      0.1090 284512.000
   26    11     1      0.1090 284512.000
   27    12     1      0.1090 284512.000
   28    12     1      0.1090 284512.000
   29    12     1      0.1090 284512.000

[ angles ]
;  ai    aj    ak funct            c0            c1            c2            c3 
    1     2     3     1     98.900    518.816
    2     3     4     1    114.700    418.400
    3     4     5     1    111.100    527.184
    4     5     6     1    120.400    669.440
    4     5     7     1    111.000    669.440
    3     4     8     1    112.700    488.273
    4     8     9     1    112.700    488.273
    4     8    10     1    112.700    488.273
    8    10    11     1    112.700    488.273
    8    10    12     1    112.700    488.273
    2     1    13     1    109.500    292.880
    2     1    14     1    109.500    292.880
    2     1    15     1    109.500    292.880
    2     3    16     1    109.500    292.880
    2     3    17     1    109.500    292.880
    3     4    18     1    110.700    313.800
    4     8    19     1    110.700    313.800
    8     9    20     1    110.700    313.800
    8     9    21     1    110.700    313.800
    8     9    22     1    110.700    313.800
    8    10    23     1    110.700    313.800
   10    11    24     1    110.700    313.800
   10    11    25     1    110.700    313.800
   10    11    26     1    110.700    313.800
   10    12    27     1    110.700    313.800
   10    12    28     1    110.700    313.800
   10    12    29     1    110.700    313.800
   20     9    22     1    107.800    276.144
   27    12    29     1    107.800    276.144
   13     1    14     1    107.800    276.144
   28    12    29     1    107.800    276.144
   11    10    12     1    112.700    488.273
   24    11    25     1    107.800    276.144
   20     9    21     1    107.800    276.144
    9     8    10     1    112.700    488.273
    8     4    18     1    110.700    313.800
   10     8    19     1    110.700    313.800
   27    12    28     1    107.800    276.144
    5     4     8     1    111.100    527.184
   14     1    15     1    107.800    276.144
    9     8    19     1    110.700    313.800
   12    10    23     1    110.700    313.800
   21     9    22     1    107.800    276.144
   24    11    26     1    107.800    276.144
    6     5     7     1    121.000    669.440
    4     3    16     1    110.700    313.800
    4     3    17     1    110.700    313.800
   25    11    26     1    107.800    276.144
   16     3    17     1    107.800    276.144
    5     4    18     1    109.500    292.880
   13     1    15     1    107.800    276.144
   11    10    23     1    110.700    313.800

[ dihedrals ]
; IMPROPER DIHEDRAL ANGLES 
;  ai    aj    ak    al funct            c0            c1            c2            c3            c4            c5
     7     5     4     6    4        180.000     43.932     2  

[ dihedrals ]
; PROPER DIHEDRAL ANGLES
;  ai    aj    ak    al funct            c0            c1            c2            c3            c4            c5
    5    4    3    2        3      -16.259   9.088   7.171  -0.000  -0.000   0.000
    8    4    5    7        3       0.000   0.000   0.000  -0.000  -0.000   0.000
    8    4    5    6        3       0.000   0.000   0.000  -0.000  -0.000   0.000
    9    8    4    5        3      -4.960   6.286   1.310  -2.636  -0.000   0.000
   10    8    4    5        3      -4.960   6.286   1.310  -2.636  -0.000   0.000
   12   10    8    9        3       2.301  -1.464   0.837  -1.674  -0.000   0.000
    9    8    4    3        3       2.301  -1.464   0.837  -1.674  -0.000   0.000
   11   10    8    4        3       2.301  -1.464   0.837  -1.674  -0.000   0.000
   11   10    8    9        3       2.301  -1.464   0.837  -1.674  -0.000   0.000
   10    8    4    3        3       2.301  -1.464   0.837  -1.674  -0.000   0.000
   12   10    8    4        3       2.301  -1.464   0.837  -1.674  -0.000   0.000
    8    4    3    2        3       3.425  -3.860   2.594  -2.159  -0.000   0.000
    4    3    2    1        3       0.941   2.314   2.410  -5.665  -0.000   0.000
    7    5    4    3        3       0.000   0.000   0.000  -0.000  -0.000   0.000
   18    4    5    7        3       0.753   2.259   0.000  -3.012  -0.000   0.000
   18    4    5    6        3       0.000   0.000   0.000  -0.000  -0.000   0.000
   17    3    4    5        3      -0.209  -0.628   0.000   0.837  -0.000   0.000
   16    3    4    5        3      -0.209  -0.628   0.000   0.837  -0.000   0.000
   19    8    4    5        3      -0.209  -0.628   0.000   0.837  -0.000   0.000
   25   11   10   12        3       0.628   1.883   0.000  -2.510  -0.000   0.000
   19    8    4    3        3       0.628   1.883   0.000  -2.510  -0.000   0.000
   23   10    8    9        3       0.628   1.883   0.000  -2.510  -0.000   0.000
   28   12   10    8        3       0.628   1.883   0.000  -2.510  -0.000   0.000
   18    4    8   10        3       0.628   1.883   0.000  -2.510  -0.000   0.000
   20    9    8    4        3       0.628   1.883   0.000  -2.510  -0.000   0.000
   16    3    4    8        3       0.628   1.883   0.000  -2.510  -0.000   0.000
   25   11   10    8        3       0.628   1.883   0.000  -2.510  -0.000   0.000
   23   10    8    4        3       0.628   1.883   0.000  -2.510  -0.000   0.000
   29   12   10    8        3       0.628   1.883   0.000  -2.510  -0.000   0.000
   19    8   10   11        3       0.628   1.883   0.000  -2.510  -0.000   0.000
   21    9    8   10        3       0.628   1.883   0.000  -2.510  -0.000   0.000
   29   12   10   11        3       0.628   1.883   0.000  -2.510  -0.000   0.000
   28   12   10   11        3       0.628   1.883   0.000  -2.510  -0.000   0.000
   26   11   10   12        3       0.628   1.883   0.000  -2.510  -0.000   0.000
   22    9    8   10        3       0.628   1.883   0.000  -2.510  -0.000   0.000
   18    4    8    9        3       0.628   1.883   0.000  -2.510  -0.000   0.000
   19    8   10   12        3       0.628   1.883   0.000  -2.510  -0.000   0.000
   27   12   10    8        3       0.628   1.883   0.000  -2.510  -0.000   0.000
   24   11   10    8        3       0.628   1.883   0.000  -2.510  -0.000   0.000
   26   11   10    8        3       0.628   1.883   0.000  -2.510  -0.000   0.000
   24   11   10   12        3       0.628   1.883   0.000  -2.510  -0.000   0.000
   27   12   10   11        3       0.628   1.883   0.000  -2.510  -0.000   0.000
   17    3    4    8        3       0.628   1.883   0.000  -2.510  -0.000   0.000
   21    9    8    4        3       0.628   1.883   0.000  -2.510  -0.000   0.000
   22    9    8    4        3       0.628   1.883   0.000  -2.510  -0.000   0.000
   20    9    8   10        3       0.628   1.883   0.000  -2.510  -0.000   0.000
   28   12   10   23        3       0.628   1.883   0.000  -2.510  -0.000   0.000
   21    9    8   19        3       0.628   1.883   0.000  -2.510  -0.000   0.000
   23   10    8   19        3       0.628   1.883   0.000  -2.510  -0.000   0.000
   26   11   10   23        3       0.628   1.883   0.000  -2.510  -0.000   0.000
   18    4    3   17        3       0.628   1.883   0.000  -2.510  -0.000   0.000
   19    8    4   18        3       0.628   1.883   0.000  -2.510  -0.000   0.000
   20    9    8   19        3       0.628   1.883   0.000  -2.510  -0.000   0.000
   29   12   10   23        3       0.628   1.883   0.000  -2.510  -0.000   0.000
   24   11   10   23        3       0.628   1.883   0.000  -2.510  -0.000   0.000
   18    4    3   16        3       0.628   1.883   0.000  -2.510  -0.000   0.000
   27   12   10   23        3       0.628   1.883   0.000  -2.510  -0.000   0.000
   22    9    8   19        3       0.628   1.883   0.000  -2.510  -0.000   0.000
   25   11   10   23        3       0.628   1.883   0.000  -2.510  -0.000   0.000
   18    4    3    2        3       0.946   2.837   0.000  -3.782  -0.000   0.000
   13    1    2    3        3       1.354   4.061   0.000  -5.414  -0.000   0.000
   16    3    2    1        3       1.354   4.061   0.000  -5.414  -0.000   0.000
   14    1    2    3        3       1.354   4.061   0.000  -5.414  -0.000   0.000
   15    1    2    3        3       1.354   4.061   0.000  -5.414  -0.000   0.000
   17    3    2    1        3       1.354   4.061   0.000  -5.414  -0.000   0.000
    6    5    4    3        3       0.000   0.000   0.000  -0.000  -0.000   0.000

[ pairs ]
     1     4    1
     2     5    1
     3     6    1
     3     7    1
     2     8    1
     3     9    1
     3    10    1
     6     8    1
     5     9    1
     7     8    1
     5    10    1
     4    11    1
     4    12    1
     3    13    1
     3    14    1
     1    16    1
     3    15    1
     1    17    1
     9    11    1
     2    18    1
     9    12    1
     5    16    1
     5    17    1
     3    19    1
     8    16    1
     6    18    1
     5    19    1
     4    20    1
     8    17    1
     7    18    1
     4    21    1
     4    22    1
     9    18    1
     4    23    1
    10    18    1
    11    19    1
    10    20    1
    12    19    1
    10    21    1
    10    22    1
     9    23    1
     8    24    1
     8    25    1
    16    18    1
     8    26    1
    17    18    1
     8    27    1
    12    24    1
     8    28    1
    18    19    1
    12    25    1
     8    29    1
    12    26    1
    11    27    1
    19    20    1
    11    28    1
    19    21    1
    11    29    1
    19    22    1
    19    23    1
    23    24    1
    23    25    1
    23    26    1
    23    27    1
    23    28    1
    23    29    1

