
;
; GENERATED BY LigParGen Server
; Jorgensen Lab @ Yale University 
;
[ atomtypes ]
  opls_818  H818     1.0080     0.000    A    2.50000E-01   1.25520E-01
  opls_824  H824     1.0080     0.000    A    2.50000E-01   1.25520E-01
  opls_805  O805    15.9990     0.000    A    2.96000E-01   8.78640E-01
  opls_813  H813     1.0080     0.000    A    2.50000E-01   1.25520E-01
  opls_815  H815     1.0080     0.000    A    2.50000E-01   1.25520E-01
  opls_802  O802    15.9990     0.000    A    2.96000E-01   8.78640E-01
  opls_822  H822     1.0080     0.000    A    2.50000E-01   1.25520E-01
  opls_803  C803    12.0110     0.000    A    3.50000E-01   2.76144E-01
  opls_808  C808    12.0110     0.000    A    3.45000E-01   3.47272E-01
  opls_814  H814     1.0080     0.000    A    2.50000E-01   1.25520E-01
  opls_821  H821     1.0080     0.000    A    2.50000E-01   1.25520E-01
  opls_820  H820     1.0080     0.000    A    2.50000E-01   1.25520E-01
  opls_801  C801    12.0110     0.000    A    3.55000E-01   2.92880E-01
  opls_811  H811     1.0080     0.000    A    2.50000E-01   1.25520E-01
  opls_804  C804    12.0110     0.000    A    3.55000E-01   2.92880E-01
  opls_816  H816     1.0080     0.000    A    2.50000E-01   1.25520E-01
  opls_800  C800    12.0110     0.000    A    3.50000E-01   2.76144E-01
  opls_823  H823     1.0080     0.000    A    2.50000E-01   1.25520E-01
  opls_806  C806    12.0110     0.000    A    3.45000E-01   3.47272E-01
  opls_819  H819     1.0080     0.000    A    2.50000E-01   1.25520E-01
  opls_810  C810    12.0110     0.000    A    3.50000E-01   2.76144E-01
  opls_817  H817     1.0080     0.000    A    2.50000E-01   1.25520E-01
  opls_809  C809    12.0110     0.000    A    3.45000E-01   3.47272E-01
  opls_812  H812     1.0080     0.000    A    2.50000E-01   1.25520E-01
  opls_807  C807    12.0110     0.000    A    3.50000E-01   2.76144E-01
[ moleculetype ]
; Name               nrexcl
UNK                   3
[ atoms ]
;   nr       type  resnr residue  atom   cgnr     charge       mass  
     1   opls_800      1    UNK   C00      1    -0.3005    12.0110 
     2   opls_801      1    UNK   C01      1     0.3819    12.0110 
     3   opls_802      1    UNK   O02      1    -0.4423    15.9990 
     4   opls_803      1    UNK   C03      1     -0.297    12.0110 
     5   opls_804      1    UNK   C04      1     0.4252    12.0110 
     6   opls_805      1    UNK   O05      1    -0.4507    15.9990 
     7   opls_806      1    UNK   C06      1     -0.195    12.0110 
     8   opls_807      1    UNK   C07      1    -0.2025    12.0110 
     9   opls_808      1    UNK   C08      1    -0.2044    12.0110 
    10   opls_809      1    UNK   C09      1    -0.1481    12.0110 
    11   opls_810      1    UNK   C0A      1    -0.2132    12.0110 
    12   opls_811      1    UNK   H0B      1     0.1242     1.0080 
    13   opls_812      1    UNK   H0C      1     0.1242     1.0080 
    14   opls_813      1    UNK   H0D      1     0.1242     1.0080 
    15   opls_814      1    UNK   H0E      1      0.147     1.0080 
    16   opls_815      1    UNK   H0F      1      0.147     1.0080 
    17   opls_816      1    UNK   H0G      1     0.0962     1.0080 
    18   opls_817      1    UNK   H0H      1     0.0962     1.0080 
    19   opls_818      1    UNK   H0I      1     0.0962     1.0080 
    20   opls_819      1    UNK   H0J      1     0.1356     1.0080 
    21   opls_820      1    UNK   H0K      1     0.1356     1.0080 
    22   opls_821      1    UNK   H0M      1      0.149     1.0080 
    23   opls_822      1    UNK   H0N      1     0.0903     1.0080 
    24   opls_823      1    UNK   H0O      1     0.0903     1.0080 
    25   opls_824      1    UNK   H0P      1     0.0903     1.0080 
[ bonds ]
    2     1     1      0.1522 265265.600
    3     2     1      0.1229 476976.000
    4     2     1      0.1522 265265.600
    5     4     1      0.1522 265265.600
    6     5     1      0.1229 476976.000
    7     5     1      0.1522 265265.600
    8     7     1      0.1510 234304.000
    9     7     1      0.1520 217568.000
   10     7     1      0.1520 217568.000
   11    10     1      0.1510 234304.000
   12     1     1      0.1090 284512.000
   13     1     1      0.1090 284512.000
   14     1     1      0.1090 284512.000
   15     4     1      0.1090 284512.000
   16     4     1      0.1090 284512.000
   17     8     1      0.1090 284512.000
   18     8     1      0.1090 284512.000
   19     8     1      0.1090 284512.000
   20     9     1      0.1088 284512.000
   21     9     1      0.1088 284512.000
   22    10     1      0.1088 284512.000
   23    11     1      0.1090 284512.000
   24    11     1      0.1090 284512.000
   25    11     1      0.1090 284512.000
   10     9     1      0.1520 217568.000

[ angles ]
;  ai    aj    ak funct            c0            c1            c2            c3 
    1     2     3     1    120.400    669.440
    1     2     4     1    116.000    585.760
    2     4     5     1    111.100    527.184
    4     5     6     1    120.400    669.440
    4     5     7     1    116.000    585.760
    5     7     8     1    111.100    527.184
    5     7     9     1    111.100    527.184
    5     7    10     1    111.100    527.184
    7    10    11     1    117.200    313.800
    2     1    12     1    109.500    292.880
    2     1    13     1    109.500    292.880
    2     1    14     1    109.500    292.880
    2     4    15     1    109.500    292.880
    2     4    16     1    109.500    292.880
    7     8    17     1    110.700    313.800
    7     8    18     1    110.700    313.800
    7     8    19     1    110.700    313.800
    7     9    20     1    117.200    313.800
    7     9    21     1    117.200    313.800
    7    10    22     1    117.200    313.800
   10    11    23     1    110.700    313.800
   10    11    24     1    110.700    313.800
   10    11    25     1    110.700    313.800
    9     7    10     1     83.000    251.040
   15     4    16     1    107.800    276.144
   13     1    14     1    107.800    276.144
   18     8    19     1    107.800    276.144
   24    11    25     1    107.800    276.144
   17     8    19     1    107.800    276.144
   12     1    14     1    107.800    276.144
    8     7    10     1    117.200    313.800
    8     7     9     1    117.200    313.800
   17     8    18     1    107.800    276.144
    5     4    16     1    109.500    292.880
    6     5     7     1    120.400    669.440
   12     1    13     1    107.800    276.144
    3     2     4     1    120.400    669.440
    5     4    15     1    109.500    292.880
   11    10    22     1    114.300    292.880
   20     9    21     1    114.300    292.880
    7    10     9     1     83.000    251.040
   10     9    21     1    117.200    313.800
    9    10    11     1    117.200    313.800
   23    11    25     1    107.800    276.144
    7     9    10     1     83.000    251.040
    9    10    22     1    117.200    313.800
   23    11    24     1    107.800    276.144
   10     9    20     1    117.200    313.800

[ dihedrals ]
; IMPROPER DIHEDRAL ANGLES 
;  ai    aj    ak    al funct            c0            c1            c2            c3            c4            c5
     4     2     1     3    4        180.000     43.932     2  
     7     5     4     6    4        180.000     43.932     2  

[ dihedrals ]
; PROPER DIHEDRAL ANGLES
;  ai    aj    ak    al funct            c0            c1            c2            c3            c4            c5
    5    4    2    1        3       0.818  -7.906   0.602   6.485  -0.000   0.000
    5    4    2    3        3       0.000   0.000   0.000  -0.000  -0.000   0.000
    8    7    5    4        3       0.818  -7.906   0.602   6.485  -0.000   0.000
    8    7    5    6        3       0.000   0.000   0.000  -0.000  -0.000   0.000
   11   10    7    5        3       0.000   0.000   0.000  -0.000  -0.000   0.000
   11   10    7    8        3       0.000   0.000   0.000  -0.000  -0.000   0.000
   11   10    7    9        3       0.000   0.000   0.000  -0.000  -0.000   0.000
   11   10    9    7        3       0.000   0.000   0.000  -0.000  -0.000   0.000
    7    5    4    2        3       0.000   0.000   0.000  -0.000  -0.000   0.000
    9    7    5    4        3       0.000   0.000   0.000  -0.000  -0.000   0.000
   10    7    5    4        3       0.000   0.000   0.000  -0.000  -0.000   0.000
   10    7    5    6        3       0.000   0.000   0.000  -0.000  -0.000   0.000
    9    7    5    6        3       0.000   0.000   0.000  -0.000  -0.000   0.000
   16    4    2    1        3       0.575   1.726   0.000  -2.301  -0.000   0.000
   13    1    2    4        3       0.575   1.726   0.000  -2.301  -0.000   0.000
   14    1    2    4        3       0.575   1.726   0.000  -2.301  -0.000   0.000
   12    1    2    4        3       0.575   1.726   0.000  -2.301  -0.000   0.000
   15    4    2    1        3       0.575   1.726   0.000  -2.301  -0.000   0.000
   15    4    5    7        3       0.575   1.726   0.000  -2.301  -0.000   0.000
   16    4    5    7        3       0.575   1.726   0.000  -2.301  -0.000   0.000
   16    4    5    6        3       0.000   0.000   0.000  -0.000  -0.000   0.000
   16    4    2    3        3       0.000   0.000   0.000  -0.000  -0.000   0.000
   15    4    5    6        3       0.000   0.000   0.000  -0.000  -0.000   0.000
   14    1    2    3        3       0.000   0.000   0.000  -0.000  -0.000   0.000
   12    1    2    3        3       0.000   0.000   0.000  -0.000  -0.000   0.000
   15    4    2    3        3       0.000   0.000   0.000  -0.000  -0.000   0.000
   13    1    2    3        3       0.000   0.000   0.000  -0.000  -0.000   0.000
   19    8    7    5        3       0.628   1.883   0.000  -2.510  -0.000   0.000
   17    8    7    5        3       0.628   1.883   0.000  -2.510  -0.000   0.000
   18    8    7    5        3       0.628   1.883   0.000  -2.510  -0.000   0.000
   19    8    7    9        3       0.628   1.883   0.000  -2.510  -0.000   0.000
   18    8    7   10        3       0.628   1.883   0.000  -2.510  -0.000   0.000
   24   11   10    7        3       0.628   1.883   0.000  -2.510  -0.000   0.000
   19    8    7   10        3       0.628   1.883   0.000  -2.510  -0.000   0.000
   24   11   10    9        3       0.628   1.883   0.000  -2.510  -0.000   0.000
   23   11   10    9        3       0.628   1.883   0.000  -2.510  -0.000   0.000
   17    8    7    9        3       0.628   1.883   0.000  -2.510  -0.000   0.000
   18    8    7    9        3       0.628   1.883   0.000  -2.510  -0.000   0.000
   23   11   10    7        3       0.628   1.883   0.000  -2.510  -0.000   0.000
   25   11   10    7        3       0.628   1.883   0.000  -2.510  -0.000   0.000
   25   11   10    9        3       0.628   1.883   0.000  -2.510  -0.000   0.000
   17    8    7   10        3       0.628   1.883   0.000  -2.510  -0.000   0.000
   24   11   10   22        3       0.628   1.883   0.000  -2.510  -0.000   0.000
   23   11   10   22        3       0.628   1.883   0.000  -2.510  -0.000   0.000
   25   11   10   22        3       0.628   1.883   0.000  -2.510  -0.000   0.000
   21    9    7    5        3       0.000   0.000   0.000  -0.000  -0.000   0.000
   22   10    7    5        3       0.000   0.000   0.000  -0.000  -0.000   0.000
   20    9    7    5        3       0.000   0.000   0.000  -0.000  -0.000   0.000
   22   10    7    8        3       0.000   0.000   0.000  -0.000  -0.000   0.000
   21    9   10   11        3       0.000   0.000   0.000  -0.000  -0.000   0.000
   20    9   10   11        3       0.000   0.000   0.000  -0.000  -0.000   0.000
   21    9    7    8        3       0.000   0.000   0.000  -0.000  -0.000   0.000
   20    9    7    8        3       0.000   0.000   0.000  -0.000  -0.000   0.000
   22   10    7    9        3       0.000   0.000   0.000  -0.000  -0.000   0.000
   21    9   10    7        3       0.000   0.000   0.000  -0.000  -0.000   0.000
   20    9   10    7        3       0.000   0.000   0.000  -0.000  -0.000   0.000
   21    9    7   10        3       0.000   0.000   0.000  -0.000  -0.000   0.000
   22   10    9    7        3       0.000   0.000   0.000  -0.000  -0.000   0.000
   20    9    7   10        3       0.000   0.000   0.000  -0.000  -0.000   0.000
   22   10    9   21        3       0.000   0.000   0.000  -0.000  -0.000   0.000
   22   10    9   20        3       0.000   0.000   0.000  -0.000  -0.000   0.000
    6    5    4    2        3       0.000   0.000   0.000  -0.000  -0.000   0.000

[ pairs ]
     1     5    1
     3     5    1
     2     6    1
     2     7    1
     4     8    1
     4     9    1
     6     8    1
     4    10    1
     6     9    1
     3    12    1
     6    10    1
     5    11    1
     4    12    1
     3    13    1
     1    15    1
     4    13    1
     3    14    1
     1    16    1
     4    14    1
     3    15    1
     8    11    1
     3    16    1
     6    15    1
     7    15    1
     6    16    1
     5    17    1
     7    16    1
     5    18    1
     5    19    1
     5    20    1
     9    17    1
     5    21    1
    10    17    1
     9    18    1
     5    22    1
    10    18    1
     9    19    1
     8    20    1
    10    19    1
     8    21    1
     8    22    1
     7    23    1
    11    20    1
     7    24    1
    11    21    1
     9    23    1
     7    25    1
     9    24    1
     9    25    1
    20    22    1
    21    22    1
    22    23    1
    22    24    1
    22    25    1

