LIGPARGEN GENERATED GRO FILE
   25
    1UNK    C00    1   0.100   0.100   0.000
    1UNK    C01    2  -0.051   0.100   0.000
    1UNK    O02    3  -0.115   0.100   0.105
    1UNK    C03    4  -0.120   0.100  -0.133
    1UNK    C04    5  -0.089   0.222  -0.214
    1UNK    O05    6   0.008   0.224  -0.290
    1UNK    C06    7  -0.176   0.346  -0.197
    1UNK    C07    8  -0.291   0.341  -0.099
    1UNK    C08    9  -0.106   0.482  -0.209
    1UNK    C09   10  -0.192   0.433  -0.323
    1UNK    C0A   11  -0.319   0.503  -0.359
    1UNK    H0B   12   0.136   0.086   0.102
    1UNK    H0C   13   0.137   0.195  -0.038
    1UNK    H0D   14   0.137   0.017  -0.061
    1UNK    H0E   15  -0.228   0.089  -0.119
    1UNK    H0F   16  -0.088   0.011  -0.189
    1UNK    H0G   17  -0.257   0.306  -0.001
    1UNK    H0H   18  -0.370   0.274  -0.135
    1UNK    H0I   19  -0.336   0.440  -0.081
    1UNK    H0J   20   0.001   0.483  -0.224
    1UNK    H0K   21  -0.142   0.565  -0.149
    1UNK    H0M   22  -0.140   0.401  -0.413
    1UNK    H0N   23  -0.370   0.546  -0.272
    1UNK    H0O   24  -0.387   0.433  -0.408
    1UNK    H0P   25  -0.298   0.584  -0.429
   1.00000   1.00000   1.00000

