LIGPARGEN GENERATED GRO FILE
   36
    1UNK    C00    1   0.100   0.100   0.000
    1UNK    C01    2  -0.052   0.100   0.000
    1UNK    C02    3  -0.105   0.100   0.143
    1UNK    O03    4  -0.248   0.106   0.149
    1UNK    C04    5  -0.310  -0.008   0.190
    1UNK    O05    6  -0.260  -0.119   0.190
    1UNK    C06    7  -0.446   0.027   0.250
    1UNK    C07    8  -0.541   0.080   0.143
    1UNK    C08    9  -0.512  -0.092   0.323
    1UNK    C09   10  -0.434  -0.147   0.446
    1UNK    C0A   11  -0.569  -0.165   0.518
    1UNK    C0B   12  -0.629  -0.059   0.422
    1UNK    C0C   13  -0.770  -0.086   0.371
    1UNK    C0D   14  -0.870  -0.087   0.485
    1UNK    H0E   15   0.139   0.100  -0.102
    1UNK    H0F   16   0.139   0.011   0.051
    1UNK    H0G   17   0.139   0.189   0.051
    1UNK    H0H   18  -0.090   0.013  -0.054
    1UNK    H0I   19  -0.089   0.188  -0.054
    1UNK    H0J   20  -0.069   0.190   0.195
    1UNK    H0K   21  -0.065   0.014   0.199
    1UNK    H0M   22  -0.428   0.106   0.324
    1UNK    H0N   23  -0.567   0.001   0.071
    1UNK    H0O   24  -0.496   0.163   0.087
    1UNK    H0P   25  -0.634   0.116   0.187
    1UNK    H0Q   26  -0.537  -0.172   0.253
    1UNK    H0R   27  -0.368  -0.075   0.495
    1UNK    H0S   28  -0.379  -0.240   0.429
    1UNK    H0T   29  -0.570  -0.138   0.624
    1UNK    H0U   30  -0.612  -0.265   0.506
    1UNK    H0V   31  -0.621   0.043   0.465
    1UNK    H0W   32  -0.774  -0.183   0.319
    1UNK    H0X   33  -0.798  -0.009   0.298
    1UNK    H0Y   34  -0.847  -0.165   0.557
    1UNK    H0Z   35  -0.971  -0.105   0.446
    1UNK    H10   36  -0.871   0.009   0.537
   1.00000   1.00000   1.00000

