LIGPARGEN GENERATED GRO FILE
   35
    1UNK    C00    1   0.100   0.100   0.000
    1UNK    C01    2  -0.052   0.100   0.000
    1UNK    C02    3  -0.108   0.100   0.142
    1UNK    C03    4  -0.261   0.100   0.142
    1UNK    C04    5  -0.320   0.100   0.283
    1UNK    C05    6  -0.283   0.226   0.358
    1UNK    O06    7  -0.308   0.339   0.318
    1UNK    O07    8  -0.219   0.195   0.473
    1UNK    C08    9  -0.171   0.307   0.551
    1UNK    C09   10  -0.286   0.363   0.634
    1UNK    C0A   11  -0.058   0.257   0.642
    1UNK    C0B   12   0.061   0.202   0.563
    1UNK    C0C   13   0.172   0.154   0.656
    1UNK    H0D   14   0.138   0.100  -0.103
    1UNK    H0E   15   0.139   0.011   0.051
    1UNK    H0F   16   0.139   0.189   0.051
    1UNK    H0G   17  -0.088   0.012  -0.054
    1UNK    H0H   18  -0.088   0.189  -0.054
    1UNK    H0I   19  -0.070   0.188   0.195
    1UNK    H0J   20  -0.071   0.012   0.196
    1UNK    H0K   21  -0.297   0.011   0.089
    1UNK    H0M   22  -0.297   0.188   0.087
    1UNK    H0N   23  -0.285   0.012   0.338
    1UNK    H0O   24  -0.429   0.095   0.279
    1UNK    H0P   25  -0.131   0.384   0.484
    1UNK    H0Q   26  -0.326   0.286   0.702
    1UNK    H0R   27  -0.369   0.394   0.570
    1UNK    H0S   28  -0.254   0.449   0.693
    1UNK    H0T   29  -0.096   0.177   0.708
    1UNK    H0U   30  -0.024   0.340   0.707
    1UNK    H0V   31   0.101   0.280   0.497
    1UNK    H0W   32   0.030   0.119   0.500
    1UNK    H0X   33   0.209   0.236   0.719
    1UNK    H0Y   34   0.256   0.116   0.598
    1UNK    H0Z   35   0.136   0.074   0.722
   1.00000   1.00000   1.00000

