
;
; GENERATED BY LigParGen Server
; Jorgensen Lab @ Yale University 
;
[ atomtypes ]
  opls_818  H818     1.0080     0.000    A    2.50000E-01   1.25520E-01
  opls_803  O803    15.9990     0.000    A    2.90000E-01   5.85760E-01
  opls_824  H824     1.0080     0.000    A    2.50000E-01   1.25520E-01
  opls_805  C805    12.0110     0.000    A    3.50000E-01   2.76144E-01
  opls_833  H833     1.0080     0.000    A    2.50000E-01   1.25520E-01
  opls_834  H834     1.0080     0.000    A    2.50000E-01   1.25520E-01
  opls_810  C810    12.0110     0.000    A    3.50000E-01   2.76144E-01
  opls_828  H828     1.0080     0.000    A    2.50000E-01   1.25520E-01
  opls_832  H832     1.0080     0.000    A    2.50000E-01   1.25520E-01
  opls_806  C806    12.0110     0.000    A    3.50000E-01   2.76144E-01
  opls_815  H815     1.0080     0.000    A    2.50000E-01   1.25520E-01
  opls_809  C809    12.0110     0.000    A    3.50000E-01   2.76144E-01
  opls_830  H830     1.0080     0.000    A    2.50000E-01   1.25520E-01
  opls_802  O802    15.9990     0.000    A    2.96000E-01   8.78640E-01
  opls_822  H822     1.0080     0.000    A    2.50000E-01   1.25520E-01
  opls_807  C807    12.0110     0.000    A    3.50000E-01   2.76144E-01
  opls_825  H825     1.0080     0.000    A    2.50000E-01   1.25520E-01
  opls_814  H814     1.0080     0.000    A    2.50000E-01   1.25520E-01
  opls_821  H821     1.0080     0.000    A    2.50000E-01   1.25520E-01
  opls_820  H820     1.0080     0.000    A    2.50000E-01   1.25520E-01
  opls_801  C801    12.0110     0.000    A    3.55000E-01   2.92880E-01
  opls_829  H829     1.0080     0.000    A    2.50000E-01   1.25520E-01
  opls_831  H831     1.0080     0.000    A    2.50000E-01   1.25520E-01
  opls_816  H816     1.0080     0.000    A    2.50000E-01   1.25520E-01
  opls_800  C800    12.0110     0.000    A    3.50000E-01   2.76144E-01
  opls_811  C811    12.0110     0.000    A    3.50000E-01   2.76144E-01
  opls_823  H823     1.0080     0.000    A    2.50000E-01   1.25520E-01
  opls_813  C813    12.0110     0.000    A    3.50000E-01   2.76144E-01
  opls_826  H826     1.0080     0.000    A    2.50000E-01   1.25520E-01
  opls_835  H835     1.0080     0.000    A    2.50000E-01   1.25520E-01
  opls_819  H819     1.0080     0.000    A    2.50000E-01   1.25520E-01
  opls_804  C804    12.0110     0.000    A    3.50000E-01   2.76144E-01
  opls_827  H827     1.0080     0.000    A    2.50000E-01   1.25520E-01
  opls_812  C812    12.0110     0.000    A    3.50000E-01   2.76144E-01
  opls_808  C808    12.0110     0.000    A    3.50000E-01   2.76144E-01
  opls_817  H817     1.0080     0.000    A    2.50000E-01   1.25520E-01
[ moleculetype ]
; Name               nrexcl
UNK                   3
[ atoms ]
;   nr       type  resnr residue  atom   cgnr     charge       mass  
     1   opls_800      1    UNK   C00      1    -0.2612    12.0110 
     2   opls_801      1    UNK   C01      1     0.4539    12.0110 
     3   opls_802      1    UNK   O02      1    -0.4622    15.9990 
     4   opls_803      1    UNK   O03      1    -0.3746    15.9990 
     5   opls_804      1    UNK   C04      1     0.1543    12.0110 
     6   opls_805      1    UNK   C05      1    -0.2698    12.0110 
     7   opls_806      1    UNK   C06      1    -0.1688    12.0110 
     8   opls_807      1    UNK   C07      1    -0.1736    12.0110 
     9   opls_808      1    UNK   C08      1    -0.1664    12.0110 
    10   opls_809      1    UNK   C09      1    -0.0373    12.0110 
    11   opls_810      1    UNK   C0A      1    -0.2356    12.0110 
    12   opls_811      1    UNK   C0B      1    -0.2330    12.0110 
    13   opls_812      1    UNK   C0C      1    -0.1112    12.0110 
    14   opls_813      1    UNK   C0D      1    -0.2315    12.0110 
    15   opls_814      1    UNK   H0E      1     0.1251     1.0080 
    16   opls_815      1    UNK   H0F      1     0.1251     1.0080 
    17   opls_816      1    UNK   H0G      1     0.1251     1.0080 
    18   opls_817      1    UNK   H0H      1     0.1016     1.0080 
    19   opls_818      1    UNK   H0I      1     0.1016     1.0080 
    20   opls_819      1    UNK   H0J      1     0.1016     1.0080 
    21   opls_820      1    UNK   H0K      1     0.1011     1.0080 
    22   opls_821      1    UNK   H0M      1     0.1011     1.0080 
    23   opls_822      1    UNK   H0N      1     0.0916     1.0080 
    24   opls_823      1    UNK   H0O      1     0.0916     1.0080 
    25   opls_824      1    UNK   H0P      1     0.0876     1.0080 
    26   opls_825      1    UNK   H0Q      1     0.0876     1.0080 
    27   opls_826      1    UNK   H0R      1     0.0838     1.0080 
    28   opls_827      1    UNK   H0S      1     0.0838     1.0080 
    29   opls_828      1    UNK   H0T      1     0.0838     1.0080 
    30   opls_829      1    UNK   H0U      1     0.0825     1.0080 
    31   opls_830      1    UNK   H0V      1     0.0825     1.0080 
    32   opls_831      1    UNK   H0W      1     0.0825     1.0080 
    33   opls_832      1    UNK   H0X      2     0.1230     1.0080 
    34   opls_833      1    UNK   H0Y      2     0.0848     1.0080 
    35   opls_834      1    UNK   H0Z      2     0.0848     1.0080 
    36   opls_835      1    UNK   H10      2     0.0848     1.0080 
[ bonds ]
    2     1     1      0.1522 265265.600
    3     2     1      0.1229 476976.000
    4     2     1      0.1327 179075.200
    5     4     1      0.1410 267776.000
    6     5     1      0.1529 224262.400
    7     5     1      0.1529 224262.400
    8     7     1      0.1529 224262.400
    9     8     1      0.1529 224262.400
   10     9     1      0.1529 224262.400
   11    10     1      0.1529 224262.400
   12    10     1      0.1529 224262.400
   13     5     1      0.1529 224262.400
   14    13     1      0.1529 224262.400
   15     1     1      0.1090 284512.000
   16     1     1      0.1090 284512.000
   17     1     1      0.1090 284512.000
   18     6     1      0.1090 284512.000
   19     6     1      0.1090 284512.000
   20     6     1      0.1090 284512.000
   21     7     1      0.1090 284512.000
   22     7     1      0.1090 284512.000
   23     8     1      0.1090 284512.000
   24     8     1      0.1090 284512.000
   25     9     1      0.1090 284512.000
   26     9     1      0.1090 284512.000
   27    11     1      0.1090 284512.000
   28    11     1      0.1090 284512.000
   29    11     1      0.1090 284512.000
   30    12     1      0.1090 284512.000
   31    12     1      0.1090 284512.000
   32    12     1      0.1090 284512.000
   33    13     1      0.1090 284512.000
   34    14     1      0.1090 284512.000
   35    14     1      0.1090 284512.000
   36    14     1      0.1090 284512.000
   13    10     1      0.1529 224262.400

[ angles ]
;  ai    aj    ak funct            c0            c1            c2            c3 
    1     2     3     1    120.400    669.440
    1     2     4     1    111.400    677.808
    2     4     5     1    116.900    694.544
    4     5     6     1    109.500    418.400
    4     5     7     1    109.500    418.400
    5     7     8     1    112.700    488.273
    7     8     9     1    112.700    488.273
    8     9    10     1    112.700    488.273
    9    10    11     1    112.700    488.273
    9    10    12     1    112.700    488.273
    4     5    13     1    109.500    418.400
    5    13    14     1    112.700    488.273
    2     1    15     1    109.500    292.880
    2     1    16     1    109.500    292.880
    2     1    17     1    109.500    292.880
    5     6    18     1    110.700    313.800
    5     6    19     1    110.700    313.800
    5     6    20     1    110.700    313.800
    5     7    21     1    110.700    313.800
    5     7    22     1    110.700    313.800
    7     8    23     1    110.700    313.800
    7     8    24     1    110.700    313.800
    8     9    25     1    110.700    313.800
    8     9    26     1    110.700    313.800
   10    11    27     1    110.700    313.800
   10    11    28     1    110.700    313.800
   10    11    29     1    110.700    313.800
   10    12    30     1    110.700    313.800
   10    12    31     1    110.700    313.800
   10    12    32     1    110.700    313.800
    5    13    33     1    110.700    313.800
   13    14    34     1    110.700    313.800
   13    14    35     1    110.700    313.800
   13    14    36     1    110.700    313.800
   12    10    11     1    112.700    488.273
   13    10    12     1    112.700    488.273
   36    14    34     1    107.800    276.144
   10    13     5     1    112.700    488.273
   24     8    23     1    107.800    276.144
   33    13    14     1    110.700    313.800
   35    14    34     1    107.800    276.144
   19     6    18     1    107.800    276.144
   26     9    25     1    107.800    276.144
   13    10     9     1    112.700    488.273
   17     1    16     1    107.800    276.144
   23     8     9     1    110.700    313.800
   14    13    10     1    112.700    488.273
   36    14    35     1    107.800    276.144
   28    11    27     1    107.800    276.144
   32    12    30     1    107.800    276.144
   13     5     6     1    112.700    488.273
   29    11    27     1    107.800    276.144
   31    12    30     1    107.800    276.144
   24     8     9     1    110.700    313.800
   22     7    21     1    107.800    276.144
    7     5     6     1    112.700    488.273
   16     1    15     1    107.800    276.144
    4     2     3     1    123.400    694.544
   25     9    10     1    110.700    313.800
   22     7     8     1    110.700    313.800
   32    12    31     1    107.800    276.144
   33    13    10     1    110.700    313.800
   17     1    15     1    107.800    276.144
   26     9    10     1    110.700    313.800
   21     7     8     1    110.700    313.800
   13    10    11     1    112.700    488.273
   29    11    28     1    107.800    276.144
   13     5     7     1    112.700    488.273
   20     6    18     1    107.800    276.144
   20     6    19     1    107.800    276.144

[ dihedrals ]
; IMPROPER DIHEDRAL ANGLES 
;  ai    aj    ak    al funct            c0            c1            c2            c3            c4            c5
     4     2     1     3    4        180.000     43.932     2  

[ dihedrals ]
; PROPER DIHEDRAL ANGLES
;  ai    aj    ak    al funct            c0            c1            c2            c3            c4            c5
    2    4    5    7        3      -2.197   5.201   0.527  -3.531  -0.000   0.000
    2    4    5   13        3      -2.197   5.201   0.527  -3.531  -0.000   0.000
    5   13   10   12        3       2.301  -1.464   0.837  -1.674  -0.000   0.000
    9   10   13   14        3       2.301  -1.464   0.837  -1.674  -0.000   0.000
    6    5   13   14        3       2.301  -1.464   0.837  -1.674  -0.000   0.000
    7    5   13   10        3       2.301  -1.464   0.837  -1.674  -0.000   0.000
    8    7    5   13        3       2.301  -1.464   0.837  -1.674  -0.000   0.000
   11   10   13   14        3       2.301  -1.464   0.837  -1.674  -0.000   0.000
    8    9   10   13        3       2.301  -1.464   0.837  -1.674  -0.000   0.000
   12   10   13   14        3       2.301  -1.464   0.837  -1.674  -0.000   0.000
    7    5   13   14        3       2.301  -1.464   0.837  -1.674  -0.000   0.000
    6    5    7    8        3       2.301  -1.464   0.837  -1.674  -0.000   0.000
    6    5   13   10        3       2.301  -1.464   0.837  -1.674  -0.000   0.000
    5   13   10    9        3       2.301  -1.464   0.837  -1.674  -0.000   0.000
   10    9    8    7        3       2.301  -1.464   0.837  -1.674  -0.000   0.000
   11   10    9    8        3       2.301  -1.464   0.837  -1.674  -0.000   0.000
    9    8    7    5        3       2.301  -1.464   0.837  -1.674  -0.000   0.000
    8    9   10   12        3       2.301  -1.464   0.837  -1.674  -0.000   0.000
    5   13   10   11        3       2.301  -1.464   0.837  -1.674  -0.000   0.000
    7    5    6   20        3       0.628   1.883   0.000  -2.510  -0.000   0.000
   10   13   14   36        3       0.628   1.883   0.000  -2.510  -0.000   0.000
   12   10   11   29        3       0.628   1.883   0.000  -2.510  -0.000   0.000
    5    7    8   23        3       0.628   1.883   0.000  -2.510  -0.000   0.000
   11   10   12   32        3       0.628   1.883   0.000  -2.510  -0.000   0.000
   13   10   11   28        3       0.628   1.883   0.000  -2.510  -0.000   0.000
   13   10    9   26        3       0.628   1.883   0.000  -2.510  -0.000   0.000
   12   10   13   33        3       0.628   1.883   0.000  -2.510  -0.000   0.000
   12   10   11   27        3       0.628   1.883   0.000  -2.510  -0.000   0.000
   11   10   12   30        3       0.628   1.883   0.000  -2.510  -0.000   0.000
    7    8    9   25        3       0.628   1.883   0.000  -2.510  -0.000   0.000
    9    8    7   22        3       0.628   1.883   0.000  -2.510  -0.000   0.000
   13    5    6   20        3       0.628   1.883   0.000  -2.510  -0.000   0.000
    6    5    7   21        3       0.628   1.883   0.000  -2.510  -0.000   0.000
    9   10   13   33        3       0.628   1.883   0.000  -2.510  -0.000   0.000
    6    5    7   22        3       0.628   1.883   0.000  -2.510  -0.000   0.000
   10   13   14   35        3       0.628   1.883   0.000  -2.510  -0.000   0.000
   13    5    6   18        3       0.628   1.883   0.000  -2.510  -0.000   0.000
   11   10   12   31        3       0.628   1.883   0.000  -2.510  -0.000   0.000
   13    5    7   21        3       0.628   1.883   0.000  -2.510  -0.000   0.000
   13   10   11   27        3       0.628   1.883   0.000  -2.510  -0.000   0.000
   13   10    9   25        3       0.628   1.883   0.000  -2.510  -0.000   0.000
   12   10    9   26        3       0.628   1.883   0.000  -2.510  -0.000   0.000
    7    5    6   18        3       0.628   1.883   0.000  -2.510  -0.000   0.000
    9   10   12   31        3       0.628   1.883   0.000  -2.510  -0.000   0.000
    7    5   13   33        3       0.628   1.883   0.000  -2.510  -0.000   0.000
   13   10   11   29        3       0.628   1.883   0.000  -2.510  -0.000   0.000
   13   10   12   31        3       0.628   1.883   0.000  -2.510  -0.000   0.000
    5    7    8   24        3       0.628   1.883   0.000  -2.510  -0.000   0.000
    9    8    7   21        3       0.628   1.883   0.000  -2.510  -0.000   0.000
    9   10   11   28        3       0.628   1.883   0.000  -2.510  -0.000   0.000
    9   10   12   32        3       0.628   1.883   0.000  -2.510  -0.000   0.000
    5   13   14   36        3       0.628   1.883   0.000  -2.510  -0.000   0.000
   12   10   11   28        3       0.628   1.883   0.000  -2.510  -0.000   0.000
   11   10    9   25        3       0.628   1.883   0.000  -2.510  -0.000   0.000
   10   13   14   34        3       0.628   1.883   0.000  -2.510  -0.000   0.000
   11   10    9   26        3       0.628   1.883   0.000  -2.510  -0.000   0.000
   12   10    9   25        3       0.628   1.883   0.000  -2.510  -0.000   0.000
    5   13   14   35        3       0.628   1.883   0.000  -2.510  -0.000   0.000
    7    5    6   19        3       0.628   1.883   0.000  -2.510  -0.000   0.000
    9   10   11   29        3       0.628   1.883   0.000  -2.510  -0.000   0.000
   10    9    8   23        3       0.628   1.883   0.000  -2.510  -0.000   0.000
    7    8    9   26        3       0.628   1.883   0.000  -2.510  -0.000   0.000
   13   10   12   32        3       0.628   1.883   0.000  -2.510  -0.000   0.000
   10    9    8   24        3       0.628   1.883   0.000  -2.510  -0.000   0.000
   11   10   13   33        3       0.628   1.883   0.000  -2.510  -0.000   0.000
   13    5    6   19        3       0.628   1.883   0.000  -2.510  -0.000   0.000
   13   10   12   30        3       0.628   1.883   0.000  -2.510  -0.000   0.000
    6    5   13   33        3       0.628   1.883   0.000  -2.510  -0.000   0.000
   13    5    7   22        3       0.628   1.883   0.000  -2.510  -0.000   0.000
    8    7    5    4        3       2.874   0.582   2.092  -5.548  -0.000   0.000
    6    5    4    2        3      -2.197   5.201   0.527  -3.531  -0.000   0.000
    5    4    2    1        3      31.206  -9.768  -21.439  -0.000  -0.000   0.000
   15    1    2    3        3       0.000   0.000   0.000  -0.000  -0.000   0.000
   27   11   10    9        3       0.628   1.883   0.000  -2.510  -0.000   0.000
   34   14   13    5        3       0.628   1.883   0.000  -2.510  -0.000   0.000
   30   12   10    9        3       0.628   1.883   0.000  -2.510  -0.000   0.000
   24    8    9   25        3       0.628   1.883   0.000  -2.510  -0.000   0.000
   23    8    9   26        3       0.628   1.883   0.000  -2.510  -0.000   0.000
   33   13   14   35        3       0.628   1.883   0.000  -2.510  -0.000   0.000
   21    7    8   24        3       0.628   1.883   0.000  -2.510  -0.000   0.000
   33   13   14   34        3       0.628   1.883   0.000  -2.510  -0.000   0.000
   33   13   14   36        3       0.628   1.883   0.000  -2.510  -0.000   0.000
   23    8    9   25        3       0.628   1.883   0.000  -2.510  -0.000   0.000
   22    7    8   24        3       0.628   1.883   0.000  -2.510  -0.000   0.000
   24    8    9   26        3       0.628   1.883   0.000  -2.510  -0.000   0.000
   21    7    8   23        3       0.628   1.883   0.000  -2.510  -0.000   0.000
   22    7    8   23        3       0.628   1.883   0.000  -2.510  -0.000   0.000
   18    6    5    4        3       0.979   2.937   0.000  -3.916  -0.000   0.000
    3    2    1   16        3       0.000   0.000   0.000  -0.000  -0.000   0.000
    3    2    1   17        3       0.000   0.000   0.000  -0.000  -0.000   0.000
    3    2    4    5        3      21.439   0.000  -21.439  -0.000  -0.000   0.000
    4    2    1   15        3       0.276   0.828   0.000  -1.105  -0.000   0.000
    4    2    1   16        3       0.276   0.828   0.000  -1.105  -0.000   0.000
    4    2    1   17        3       0.276   0.828   0.000  -1.105  -0.000   0.000
    4    5   13   10        3       2.874   0.582   2.092  -5.548  -0.000   0.000
    4    5   13   14        3       2.874   0.582   2.092  -5.548  -0.000   0.000
    4    5    7   22        3       0.979   2.937   0.000  -3.916  -0.000   0.000
    4    5    7   21        3       0.979   2.937   0.000  -3.916  -0.000   0.000
    4    5    6   20        3       0.979   2.937   0.000  -3.916  -0.000   0.000
    4    5    6   19        3       0.979   2.937   0.000  -3.916  -0.000   0.000
    4    5   13   33        3       0.979   2.937   0.000  -3.916  -0.000   0.000

[ pairs ]
     1     5    1
     3     5    1
     2     6    1
     2     7    1
     4     8    1
     6     8    1
     5     9    1
     4    10    1
     2    13    1
     6    10    1
     5    11    1
     7    10    1
     5    12    1
     4    14    1
     3    15    1
     8    11    1
     4    15    1
     3    16    1
     8    12    1
     6    14    1
     4    16    1
     3    17    1
     8    13    1
     7    14    1
     4    17    1
     4    18    1
     9    14    1
     4    19    1
     4    20    1
    11    14    1
     7    18    1
     4    21    1
    12    14    1
     7    19    1
     4    22    1
     7    20    1
     6    21    1
     6    22    1
     5    23    1
     5    24    1
     9    21    1
    13    18    1
     9    22    1
    13    19    1
     7    25    1
    13    20    1
    10    23    1
     7    26    1
    13    21    1
    10    24    1
    13    22    1
    11    25    1
     9    27    1
    12    25    1
    11    26    1
     9    28    1
     4    33    1
    13    25    1
    12    26    1
     9    29    1
    13    26    1
    12    27    1
     9    30    1
     6    33    1
     5    34    1
    13    27    1
    12    28    1
     9    31    1
     7    33    1
     5    35    1
    13    28    1
    12    29    1
    11    30    1
     9    32    1
     5    36    1
    13    29    1
    11    31    1
     9    33    1
    13    30    1
    11    32    1
    21    23    1
    13    31    1
    11    33    1
    10    34    1
    22    23    1
    21    24    1
    13    32    1
    12    33    1
    10    35    1
    22    24    1
    10    36    1
    23    25    1
    24    25    1
    23    26    1
    24    26    1
    33    34    1
    33    35    1
    33    36    1

