LIGPARGEN GENERATED GRO FILE
   23
    1UNK    C00    1   0.100   0.100   0.000
    1UNK    O01    2  -0.043   0.100   0.000
    1UNK    C02    3  -0.097   0.100   0.124
    1UNK    O03    4  -0.035   0.100   0.230
    1UNK    O04    5  -0.232   0.100   0.111
    1UNK    C05    6  -0.306   0.094   0.234
    1UNK    C06    7  -0.315  -0.051   0.282
    1UNK    C07    8  -0.388  -0.058   0.416
    1UNK    S08    9  -0.391  -0.225   0.490
    1UNK    S09   10  -0.192  -0.279   0.499
    1UNK    C0A   11  -0.128  -0.165   0.624
    1UNK    H0B   12   0.134   0.100  -0.104
    1UNK    H0C   13   0.138   0.010   0.049
    1UNK    H0D   14   0.139   0.190   0.049
    1UNK    H0E   15  -0.406   0.133   0.213
    1UNK    H0F   16  -0.260   0.160   0.309
    1UNK    H0G   17  -0.214  -0.091   0.289
    1UNK    H0H   18  -0.367  -0.111   0.207
    1UNK    H0I   19  -0.492  -0.026   0.403
    1UNK    H0J   20  -0.342   0.011   0.489
    1UNK    H0K   21  -0.022  -0.188   0.642
    1UNK    H0M   22  -0.182  -0.177   0.719
    1UNK    H0N   23  -0.135  -0.062   0.589
   1.00000   1.00000   1.00000

