LIGPARGEN GENERATED GRO FILE
   28
    1UNK    C00    1   0.100   0.100   0.000
    1UNK    C01    2  -0.051   0.100   0.000
    1UNK    O02    3  -0.114   0.100   0.105
    1UNK    C03    4  -0.118   0.089  -0.136
    1UNK    C04    5  -0.257   0.156  -0.141
    1UNK    C05    6  -0.245   0.307  -0.115
    1UNK    C06    7  -0.326   0.135  -0.277
    1UNK    C07    8  -0.356  -0.012  -0.309
    1UNK    O08    9  -0.420  -0.022  -0.438
    1UNK    C09   10  -0.555  -0.011  -0.438
    1UNK    C0A   11  -0.610  -0.029  -0.576
    1UNK    O0B   12  -0.625   0.011  -0.340
    1UNK    H0C   13   0.137   0.123   0.100
    1UNK    H0D   14   0.137   0.177  -0.069
    1UNK    H0E   15   0.136   0.002  -0.030
    1UNK    H0F   16  -0.125  -0.018  -0.157
    1UNK    H0G   17  -0.053   0.135  -0.211
    1UNK    H0H   18  -0.320   0.113  -0.062
    1UNK    H0I   19  -0.186   0.356  -0.193
    1UNK    H0J   20  -0.198   0.328  -0.018
    1UNK    H0K   21  -0.345   0.353  -0.113
    1UNK    H0M   22  -0.264   0.177  -0.358
    1UNK    H0N   23  -0.420   0.191  -0.280
    1UNK    H0O   24  -0.417  -0.059  -0.231
    1UNK    H0P   25  -0.264  -0.070  -0.318
    1UNK    H0Q   26  -0.531  -0.060  -0.646
    1UNK    H0R   27  -0.653   0.065  -0.611
    1UNK    H0S   28  -0.686  -0.108  -0.574
   1.00000   1.00000   1.00000

