LIGPARGEN GENERATED GRO FILE
   27
    1UNK    C00    1   0.100   0.100   0.000
    1UNK    C01    2  -0.054   0.100   0.000
    1UNK    C02    3  -0.104   0.100   0.145
    1UNK    C03    4  -0.100   0.232  -0.067
    1UNK    C04    5  -0.113  -0.019  -0.081
    1UNK    C05    6  -0.077  -0.158  -0.029
    1UNK    C06    7  -0.139  -0.274  -0.113
    1UNK    C07    8  -0.020  -0.368  -0.082
    1UNK    S08    9   0.084  -0.226  -0.063
    1UNK    O09   10   0.137  -0.182  -0.191
    1UNK    O0A   11   0.165  -0.237   0.056
    1UNK    H0B   12   0.139   0.192   0.044
    1UNK    H0C   13   0.140   0.093  -0.102
    1UNK    H0D   14   0.140   0.018   0.060
    1UNK    H0E   15  -0.065   0.186   0.200
    1UNK    H0F   16  -0.073   0.011   0.200
    1UNK    H0G   17  -0.214   0.105   0.149
    1UNK    H0H   18  -0.058   0.319  -0.015
    1UNK    H0I   19  -0.209   0.241  -0.065
    1UNK    H0J   20  -0.067   0.237  -0.171
    1UNK    H0K   21  -0.082  -0.010  -0.186
    1UNK    H0M   22  -0.222  -0.009  -0.081
    1UNK    H0N   23  -0.102  -0.170   0.077
    1UNK    H0O   24  -0.148  -0.252  -0.220
    1UNK    H0P   25  -0.236  -0.311  -0.078
    1UNK    H0Q   26   0.010  -0.435  -0.162
    1UNK    H0R   27  -0.030  -0.424   0.012
   1.00000   1.00000   1.00000

