LIGPARGEN GENERATED GRO FILE
   30
    1UNK    C00    1   0.100   0.100   0.000
    1UNK    C01    2  -0.052   0.100   0.000
    1UNK    C02    3  -0.114   0.100   0.142
    1UNK    C03    4  -0.078   0.229   0.213
    1UNK    O04    5   0.020   0.236   0.287
    1UNK    O05    6  -0.149   0.339   0.180
    1UNK    C06    7  -0.292   0.332   0.160
    1UNK    C07    8  -0.360   0.362   0.293
    1UNK    C08    9  -0.336   0.205   0.086
    1UNK    C09   10  -0.487   0.190   0.072
    1UNK    C0A   11  -0.266   0.078   0.138
    1UNK    C0B   12  -0.316   0.028   0.275
    1UNK    H0C   13   0.137   0.095  -0.103
    1UNK    H0D   14   0.139   0.014   0.054
    1UNK    H0E   15   0.140   0.191   0.045
    1UNK    H0F   16  -0.086   0.011  -0.054
    1UNK    H0G   17  -0.086   0.187  -0.057
    1UNK    H0H   18  -0.069   0.017   0.198
    1UNK    H0I   19  -0.315   0.417   0.094
    1UNK    H0J   20  -0.324   0.296   0.373
    1UNK    H0K   21  -0.469   0.355   0.288
    1UNK    H0M   22  -0.334   0.463   0.325
    1UNK    H0N   23  -0.300   0.218  -0.018
    1UNK    H0O   24  -0.537   0.177   0.169
    1UNK    H0P   25  -0.512   0.103   0.010
    1UNK    H0Q   26  -0.530   0.279   0.024
    1UNK    H0R   27  -0.288  -0.003   0.067
    1UNK    H0S   28  -0.283   0.091   0.357
    1UNK    H0T   29  -0.277  -0.072   0.294
    1UNK    H0U   30  -0.425   0.021   0.278
   1.00000   1.00000   1.00000

