LIGPARGEN GENERATED GRO FILE
   36
    1UNK    C00    1   0.100   0.100   0.000
    1UNK    C01    2  -0.052   0.100   0.000
    1UNK    C02    3  -0.108   0.100   0.143
    1UNK    C03    4  -0.261   0.100   0.149
    1UNK    C04    5  -0.322  -0.019   0.081
    1UNK    C05    6  -0.295  -0.158   0.131
    1UNK    C06    7  -0.433  -0.099   0.147
    1UNK    C07    8  -0.548  -0.147   0.063
    1UNK    C08    9  -0.587  -0.291   0.083
    1UNK    O09   10  -0.510  -0.383   0.106
    1UNK    C0A   11  -0.733  -0.312   0.056
    1UNK    C0B   12  -0.793  -0.177   0.091
    1UNK    C0C   13  -0.680  -0.074   0.097
    1UNK    C0D   14  -0.705   0.044   0.004
    1UNK    H0E   15   0.138   0.100  -0.103
    1UNK    H0F   16   0.139   0.011   0.051
    1UNK    H0G   17   0.139   0.189   0.051
    1UNK    H0H   18  -0.087   0.011  -0.054
    1UNK    H0I   19  -0.089   0.188  -0.054
    1UNK    H0J   20  -0.071   0.189   0.196
    1UNK    H0K   21  -0.069   0.013   0.197
    1UNK    H0M   22  -0.299   0.191   0.101
    1UNK    H0N   23  -0.292   0.104   0.254
    1UNK    H0O   24  -0.326  -0.005  -0.027
    1UNK    H0P   25  -0.237  -0.171   0.222
    1UNK    H0Q   26  -0.281  -0.237   0.058
    1UNK    H0R   27  -0.462  -0.075   0.249
    1UNK    H0S   28  -0.525  -0.137  -0.044
    1UNK    H0T   29  -0.774  -0.393   0.117
    1UNK    H0U   30  -0.746  -0.335  -0.051
    1UNK    H0V   31  -0.841  -0.184   0.189
    1UNK    H0W   32  -0.872  -0.150   0.019
    1UNK    H0X   33  -0.677  -0.034   0.199
    1UNK    H0Y   34  -0.714   0.012  -0.101
    1UNK    H0Z   35  -0.623   0.117   0.010
    1UNK    H10   36  -0.798   0.095   0.031
   1.00000   1.00000   1.00000

