LIGPARGEN GENERATED GRO FILE
   28
    1UNK    C00    1   0.100   0.100   0.000
    1UNK    C01    2  -0.052   0.100   0.000
    1UNK    C02    3  -0.106   0.100   0.143
    1UNK    C03    4  -0.102   0.223  -0.075
    1UNK    O04    5  -0.125   0.329  -0.019
    1UNK    C05    6  -0.118   0.210  -0.227
    1UNK    O06    7  -0.097   0.101  -0.279
    1UNK    C07    8  -0.158   0.334  -0.308
    1UNK    C08    9  -0.294   0.387  -0.259
    1UNK    C09   10  -0.048   0.442  -0.292
    1UNK    C0A   11  -0.169   0.293  -0.459
    1UNK    C0B   12  -0.209   0.415  -0.542
    1UNK    N0C   13  -0.242   0.515  -0.610
    1UNK    H0D   14   0.139   0.012   0.052
    1UNK    H0E   15   0.140   0.189   0.050
    1UNK    H0F   16   0.139   0.100  -0.102
    1UNK    H0G   17  -0.090   0.010  -0.050
    1UNK    H0H   18  -0.075   0.190   0.198
    1UNK    H0I   19  -0.070   0.013   0.198
    1UNK    H0J   20  -0.216   0.098   0.143
    1UNK    H0K   21  -0.293   0.418  -0.155
    1UNK    H0M   22  -0.371   0.308  -0.268
    1UNK    H0N   23  -0.328   0.474  -0.317
    1UNK    H0O   24  -0.036   0.474  -0.188
    1UNK    H0P   25  -0.070   0.532  -0.350
    1UNK    H0Q   26   0.049   0.403  -0.325
    1UNK    H0R   27  -0.244   0.215  -0.473
    1UNK    H0S   28  -0.073   0.255  -0.497
   1.00000   1.00000   1.00000

