LIGPARGEN GENERATED GRO FILE
   31
    1UNK    C00    1   0.100   0.100   0.000
    1UNK    O01    2  -0.042   0.100   0.000
    1UNK    O02    3  -0.080   0.100   0.141
    1UNK    C03    4  -0.223   0.091   0.140
    1UNK    C04    5  -0.276   0.084   0.284
    1UNK    C05    6  -0.231   0.207   0.364
    1UNK    C06    7  -0.429   0.071   0.288
    1UNK    C07    8  -0.482  -0.056   0.221
    1UNK    C08    9  -0.635  -0.071   0.224
    1UNK    C09   10  -0.706   0.044   0.151
    1UNK    C0A   11  -0.674  -0.204   0.160
    1UNK    H0B   12   0.135   0.100  -0.104
    1UNK    H0C   13   0.138   0.010   0.050
    1UNK    H0D   14   0.137   0.190   0.050
    1UNK    H0E   15  -0.250   0.001   0.084
    1UNK    H0F   16  -0.264   0.179   0.089
    1UNK    H0G   17  -0.231  -0.004   0.333
    1UNK    H0H   18  -0.274   0.299   0.322
    1UNK    H0I   19  -0.123   0.218   0.364
    1UNK    H0J   20  -0.264   0.199   0.468
    1UNK    H0K   21  -0.472   0.160   0.240
    1UNK    H0M   22  -0.463   0.072   0.393
    1UNK    H0N   23  -0.437  -0.143   0.272
    1UNK    H0O   24  -0.449  -0.060   0.117
    1UNK    H0P   25  -0.669  -0.071   0.329
    1UNK    H0Q   26  -0.668   0.055   0.049
    1UNK    H0R   27  -0.691   0.139   0.203
    1UNK    H0S   28  -0.814   0.026   0.146
    1UNK    H0T   29  -0.643  -0.209   0.056
    1UNK    H0U   30  -0.783  -0.218   0.163
    1UNK    H0V   31  -0.628  -0.288   0.213
   1.00000   1.00000   1.00000

