LIGPARGEN GENERATED GRO FILE
   26
    1UNK    C00    1   0.100   0.100   0.000
    1UNK    C01    2  -0.053   0.100   0.000
    1UNK    C02    3  -0.122   0.100   0.139
    1UNK    C03    4  -0.247   0.189   0.143
    1UNK    C04    5  -0.310   0.082   0.053
    1UNK    C05    6  -0.256   0.071  -0.093
    1UNK    C06    7  -0.130  -0.026  -0.074
    1UNK    C07    8  -0.247  -0.108  -0.001
    1UNK    C08    9  -0.226  -0.031   0.138
    1UNK    C09   10  -0.118  -0.134   0.165
    1UNK    C0A   11  -0.051  -0.128   0.023
    1UNK    O0B   12   0.043  -0.197  -0.013
    1UNK    H0C   13   0.137   0.204   0.002
    1UNK    H0D   14   0.140   0.055  -0.092
    1UNK    H0E   15   0.142   0.050   0.087
    1UNK    H0F   16  -0.073   0.196  -0.050
    1UNK    H0G   17  -0.056   0.115   0.225
    1UNK    H0H   18  -0.240   0.290   0.100
    1UNK    H0I   19  -0.294   0.198   0.242
    1UNK    H0J   20  -0.420   0.079   0.060
    1UNK    H0K   21  -0.237   0.170  -0.138
    1UNK    H0M   22  -0.330   0.030  -0.164
    1UNK    H0N   23  -0.232  -0.219  -0.001
    1UNK    H0O   24  -0.350  -0.114  -0.040
    1UNK    H0P   25  -0.043  -0.133   0.245
    1UNK    H0Q   26  -0.175  -0.227   0.185
   1.00000   1.00000   1.00000

