LIGPARGEN GENERATED GRO FILE
   35
    1UNK    C00    1   0.100   0.100   0.000
    1UNK    C01    2  -0.052   0.100   0.000
    1UNK    C02    3  -0.107   0.100   0.143
    1UNK    C03    4  -0.262   0.100   0.163
    1UNK    C04    5  -0.284   0.100   0.316
    1UNK    C05    6  -0.329   0.226   0.101
    1UNK    C06    7  -0.473   0.189   0.062
    1UNK    C07    8  -0.577   0.218   0.171
    1UNK    C08    9  -0.720   0.189   0.127
    1UNK    C09   10  -0.459   0.042   0.034
    1UNK    O0A   11  -0.542  -0.023  -0.029
    1UNK    C0B   12  -0.332  -0.018   0.089
    1UNK    C0C   13  -0.364  -0.141   0.174
    1UNK    H0D   14   0.138   0.100  -0.103
    1UNK    H0E   15   0.139   0.011   0.051
    1UNK    H0F   16   0.139   0.189   0.051
    1UNK    H0G   17  -0.086   0.011  -0.055
    1UNK    H0H   18  -0.087   0.188  -0.055
    1UNK    H0I   19  -0.066   0.188   0.195
    1UNK    H0J   20  -0.066   0.012   0.194
    1UNK    H0K   21  -0.247   0.193   0.361
    1UNK    H0M   22  -0.231   0.017   0.363
    1UNK    H0N   23  -0.389   0.090   0.344
    1UNK    H0O   24  -0.277   0.255   0.009
    1UNK    H0P   25  -0.324   0.313   0.168
    1UNK    H0Q   26  -0.499   0.242  -0.030
    1UNK    H0R   27  -0.570   0.323   0.201
    1UNK    H0S   28  -0.558   0.158   0.260
    1UNK    H0T   29  -0.746   0.248   0.039
    1UNK    H0U   30  -0.789   0.214   0.207
    1UNK    H0V   31  -0.734   0.083   0.103
    1UNK    H0W   32  -0.274  -0.050   0.002
    1UNK    H0X   33  -0.439  -0.119   0.251
    1UNK    H0Y   34  -0.274  -0.181   0.222
    1UNK    H0Z   35  -0.406  -0.220   0.111
   1.00000   1.00000   1.00000

