LIGPARGEN GENERATED GRO FILE
   27
    1UNK    C00    1   0.100   0.100   0.000
    1UNK    C01    2  -0.052   0.100   0.000
    1UNK    C02    3  -0.108   0.100   0.143
    1UNK    C03    4  -0.261   0.113   0.155
    1UNK    C04    5  -0.305   0.111   0.304
    1UNK    C05    6  -0.251   0.227   0.388
    1UNK    O06    7  -0.302   0.238   0.097
    1UNK    O07    8  -0.438   0.212   0.050
    1UNK    O08    9  -0.468   0.069   0.060
    1UNK    C09   10  -0.339   0.011   0.070
    1UNK    C0A   11  -0.349  -0.129   0.127
    1UNK    H0B   12   0.138   0.095  -0.103
    1UNK    H0C   13   0.139   0.014   0.055
    1UNK    H0D   14   0.139   0.191   0.047
    1UNK    H0E   15  -0.086   0.011  -0.054
    1UNK    H0F   16  -0.088   0.188  -0.055
    1UNK    H0G   17  -0.061   0.185   0.194
    1UNK    H0H   18  -0.074   0.009   0.194
    1UNK    H0I   19  -0.274   0.017   0.351
    1UNK    H0J   20  -0.414   0.116   0.310
    1UNK    H0K   21  -0.142   0.222   0.397
    1UNK    H0M   22  -0.292   0.221   0.489
    1UNK    H0N   23  -0.279   0.323   0.345
    1UNK    H0O   24  -0.300   0.006  -0.033
    1UNK    H0P   25  -0.411  -0.131   0.217
    1UNK    H0Q   26  -0.251  -0.171   0.150
    1UNK    H0R   27  -0.399  -0.195   0.055
   1.00000   1.00000   1.00000

