LIGPARGEN GENERATED GRO FILE
   35
    1UNK    C00    1   0.100   0.100   0.000
    1UNK    C01    2  -0.052   0.100   0.000
    1UNK    C02    3  -0.106   0.100   0.143
    1UNK    C03    4  -0.259   0.091   0.148
    1UNK    C04    5  -0.316   0.097   0.289
    1UNK    C05    6  -0.320  -0.048   0.337
    1UNK    C06    7  -0.447  -0.078   0.419
    1UNK    C07    8  -0.448  -0.008   0.555
    1UNK    C08    9  -0.324  -0.042   0.637
    1UNK    C09   10  -0.196  -0.017   0.560
    1UNK    C0A   11  -0.198  -0.087   0.424
    1UNK    C0B   12  -0.320  -0.127   0.205
    1UNK    O0C   13  -0.302  -0.035   0.097
    1UNK    H0D   14   0.138   0.100  -0.103
    1UNK    H0E   15   0.139   0.011   0.051
    1UNK    H0F   16   0.139   0.189   0.051
    1UNK    H0G   17  -0.088   0.011  -0.054
    1UNK    H0H   18  -0.089   0.188  -0.054
    1UNK    H0I   19  -0.073   0.191   0.195
    1UNK    H0J   20  -0.061   0.014   0.194
    1UNK    H0K   21  -0.302   0.171   0.087
    1UNK    H0M   22  -0.419   0.136   0.282
    1UNK    H0N   23  -0.262   0.166   0.354
    1UNK    H0O   24  -0.455  -0.187   0.436
    1UNK    H0P   25  -0.537  -0.050   0.363
    1UNK    H0Q   26  -0.538  -0.036   0.611
    1UNK    H0R   27  -0.453   0.101   0.540
    1UNK    H0S   28  -0.329  -0.147   0.667
    1UNK    H0T   29  -0.324   0.017   0.730
    1UNK    H0U   30  -0.110  -0.054   0.618
    1UNK    H0V   31  -0.180   0.091   0.547
    1UNK    H0W   32  -0.199  -0.196   0.441
    1UNK    H0X   33  -0.103  -0.066   0.374
    1UNK    H0Y   34  -0.415  -0.180   0.188
    1UNK    H0Z   35  -0.240  -0.201   0.200
   1.00000   1.00000   1.00000

