LIGPARGEN GENERATED GRO FILE
   32
    1UNK    C00    1   0.100   0.100   0.000
    1UNK    C01    2  -0.053   0.100   0.000
    1UNK    C02    3  -0.116   0.100   0.140
    1UNK    C03    4  -0.124   0.237   0.212
    1UNK    C04    5   0.017   0.280   0.259
    1UNK    C05    6  -0.206   0.214   0.342
    1UNK    C06    7  -0.191   0.345   0.117
    1UNK    C07    8  -0.184   0.487   0.178
    1UNK    C08    9  -0.340   0.316   0.090
    1UNK    C09   10  -0.117   0.350  -0.019
    1UNK    C0A   11  -0.105   0.215  -0.084
    1UNK    O0B   12  -0.126   0.201  -0.204
    1UNK    H0C   13   0.140   0.031   0.075
    1UNK    H0D   14   0.142   0.199   0.018
    1UNK    H0E   15   0.137   0.068  -0.098
    1UNK    H0F   16  -0.085   0.007  -0.049
    1UNK    H0G   17  -0.064   0.027   0.203
    1UNK    H0H   18  -0.218   0.061   0.128
    1UNK    H0I   19   0.072   0.195   0.302
    1UNK    H0J   20   0.011   0.357   0.338
    1UNK    H0K   21   0.078   0.322   0.179
    1UNK    H0M   22  -0.157   0.140   0.406
    1UNK    H0N   23  -0.306   0.176   0.321
    1UNK    H0O   24  -0.216   0.306   0.401
    1UNK    H0P   25  -0.238   0.493   0.274
    1UNK    H0Q   26  -0.231   0.561   0.111
    1UNK    H0R   27  -0.081   0.520   0.195
    1UNK    H0S   28  -0.400   0.321   0.181
    1UNK    H0T   29  -0.355   0.217   0.044
    1UNK    H0U   30  -0.382   0.390   0.020
    1UNK    H0V   31  -0.016   0.391  -0.009
    1UNK    H0W   32  -0.170   0.416  -0.088
   1.00000   1.00000   1.00000

