
;
; GENERATED BY LigParGen Server
; Jorgensen Lab @ Yale University 
;
[ atomtypes ]
  opls_818  H818     1.0080     0.000    A    2.50000E-01   1.25520E-01
  opls_824  H824     1.0080     0.000    A    2.50000E-01   1.25520E-01
  opls_813  H813     1.0080     0.000    A    2.50000E-01   1.25520E-01
  opls_802  C802    12.0110     0.000    A    3.50000E-01   2.76144E-01
  opls_815  H815     1.0080     0.000    A    2.50000E-01   1.25520E-01
  opls_801  C801    12.0110     0.000    A    3.50000E-01   2.76144E-01
  opls_822  H822     1.0080     0.000    A    2.50000E-01   1.25520E-01
  opls_807  C807    12.0110     0.000    A    3.50000E-01   2.76144E-01
  opls_803  C803    12.0110     0.000    A    3.30000E-01   2.76144E-01
  opls_814  H814     1.0080     0.000    A    2.50000E-01   1.25520E-01
  opls_810  O810    15.9990     0.000    A    2.96000E-01   8.78640E-01
  opls_821  H821     1.0080     0.000    A    2.50000E-01   1.25520E-01
  opls_820  H820     1.0080     0.000    A    2.50000E-01   1.25520E-01
  opls_809  C809    12.0110     0.000    A    3.55000E-01   2.92880E-01
  opls_816  H816     1.0080     0.000    A    2.50000E-01   1.25520E-01
  opls_800  C800    12.0110     0.000    A    3.50000E-01   2.76144E-01
  opls_806  C806    12.0110     0.000    A    3.50000E-01   2.76144E-01
  opls_823  H823     1.0080     0.000    A    2.50000E-01   1.25520E-01
  opls_819  H819     1.0080     0.000    A    2.50000E-01   1.25520E-01
  opls_805  C805    12.0110     0.000    A    3.50000E-01   2.76144E-01
  opls_811  O811    15.9990     0.000    A    2.90000E-01   5.85760E-01
  opls_808  C808    12.0110     0.000    A    3.50000E-01   2.76144E-01
  opls_804  N804    14.0070     0.000    A    3.20000E-01   7.11280E-01
  opls_817  H817     1.0080     0.000    A    2.50000E-01   1.25520E-01
  opls_812  H812     1.0080     0.000    A    2.50000E-01   1.25520E-01
[ moleculetype ]
; Name               nrexcl
UNK                   3
[ atoms ]
;   nr       type  resnr residue  atom   cgnr     charge       mass  
     1   opls_800      1    UNK   C00      1    -0.2436    12.0110 
     2   opls_801      1    UNK   C01      1     -0.171    12.0110 
     3   opls_802      1    UNK   C02      1     0.2914    12.0110 
     4   opls_803      1    UNK   C03      1     0.1304    12.0110 
     5   opls_804      1    UNK   N04      1    -0.3436    14.0070 
     6   opls_805      1    UNK   C05      1    -0.2003    12.0110 
     7   opls_806      1    UNK   C06      1    -0.1847    12.0110 
     8   opls_807      1    UNK   C07      1     -0.171    12.0110 
     9   opls_808      1    UNK   C08      1    -0.2285    12.0110 
    10   opls_809      1    UNK   C09      1     0.4618    12.0110 
    11   opls_810      1    UNK   O0A      1     -0.382    15.9990 
    12   opls_811      1    UNK   O0B      1    -0.3846    15.9990 
    13   opls_812      1    UNK   H0C      1     0.0958     1.0080 
    14   opls_813      1    UNK   H0D      1     0.0958     1.0080 
    15   opls_814      1    UNK   H0E      1     0.0958     1.0080 
    16   opls_815      1    UNK   H0F      1     0.1121     1.0080 
    17   opls_816      1    UNK   H0G      1     0.1121     1.0080 
    18   opls_817      1    UNK   H0H      1     0.1163     1.0080 
    19   opls_818      1    UNK   H0I      1     0.1163     1.0080 
    20   opls_819      1    UNK   H0J      1     0.1031     1.0080 
    21   opls_820      1    UNK   H0K      1     0.1031     1.0080 
    22   opls_821      1    UNK   H0M      1     0.1025     1.0080 
    23   opls_822      1    UNK   H0N      1     0.1025     1.0080 
    24   opls_823      1    UNK   H0O      1      0.135     1.0080 
    25   opls_824      1    UNK   H0P      1      0.135     1.0080 
[ bonds ]
    2     1     1      0.1529 224262.400
    3     2     1      0.1529 224262.400
    4     3     1      0.1470 326352.000
    5     4     1      0.1157 543920.000
    6     3     1      0.1529 224262.400
    7     6     1      0.1529 224262.400
    8     7     1      0.1529 224262.400
    9     8     1      0.1529 224262.400
   10     9     1      0.1522 265265.600
   11    10     1      0.1229 476976.000
   12     3     1      0.1410 267776.000
   13     1     1      0.1090 284512.000
   14     1     1      0.1090 284512.000
   15     1     1      0.1090 284512.000
   16     2     1      0.1090 284512.000
   17     2     1      0.1090 284512.000
   18     6     1      0.1090 284512.000
   19     6     1      0.1090 284512.000
   20     7     1      0.1090 284512.000
   21     7     1      0.1090 284512.000
   22     8     1      0.1090 284512.000
   23     8     1      0.1090 284512.000
   24     9     1      0.1090 284512.000
   25     9     1      0.1090 284512.000
   12    10     1      0.1327 179075.200

[ angles ]
;  ai    aj    ak funct            c0            c1            c2            c3 
    1     2     3     1    112.700    488.273
    2     3     4     1    112.700    488.273
    3     4     5     1    180.000   1255.200
    2     3     6     1    112.700    488.273
    3     6     7     1    112.700    488.273
    6     7     8     1    112.700    488.273
    7     8     9     1    112.700    488.273
    8     9    10     1    111.100    527.184
    9    10    11     1    120.400    669.440
    2     3    12     1    109.500    418.400
    2     1    13     1    110.700    313.800
    2     1    14     1    110.700    313.800
    2     1    15     1    110.700    313.800
    1     2    16     1    110.700    313.800
    1     2    17     1    110.700    313.800
    3     6    18     1    110.700    313.800
    3     6    19     1    110.700    313.800
    6     7    20     1    110.700    313.800
    6     7    21     1    110.700    313.800
    7     8    22     1    110.700    313.800
    7     8    23     1    110.700    313.800
    8     9    24     1    110.700    313.800
    8     9    25     1    110.700    313.800
   13     1    14     1    107.800    276.144
    7     6    18     1    110.700    313.800
   11    10    12     1    123.400    694.544
   18     6    19     1    107.800    276.144
    3     2    17     1    110.700    313.800
    3    12    10     1    116.900    694.544
    7     6    19     1    110.700    313.800
    3     2    16     1    110.700    313.800
    9    10    12     1    111.400    677.808
   24     9    25     1    107.800    276.144
   16     2    17     1    107.800    276.144
    6     3    12     1    109.500    418.400
   14     1    15     1    107.800    276.144
   10     9    25     1    109.500    292.880
    4     3     6     1    112.700    488.273
    9     8    22     1    110.700    313.800
    9     8    23     1    110.700    313.800
    8     7    21     1    110.700    313.800
    4     3    12     1    110.580    432.207
   10     9    24     1    109.500    292.880
   20     7    21     1    107.800    276.144
   13     1    15     1    107.800    276.144
   22     8    23     1    107.800    276.144
    8     7    20     1    110.700    313.800

[ dihedrals ]
; IMPROPER DIHEDRAL ANGLES 
;  ai    aj    ak    al funct            c0            c1            c2            c3            c4            c5
     9    10    11    12    4        180.000     43.932     2  

[ dihedrals ]
; PROPER DIHEDRAL ANGLES
;  ai    aj    ak    al funct            c0            c1            c2            c3            c4            c5
   10    9    8    7        3      -4.960   6.286   1.310  -2.636  -0.000   0.000
   10   12    3    6        3      -2.197   5.201   0.527  -3.531  -0.000   0.000
   10   12    3    2        3      -2.197   5.201   0.527  -3.531  -0.000   0.000
   10   12    3    4        3      -2.197   5.201   0.527  -3.531  -0.000   0.000
    9   10   12    3        3      31.206  -9.768  -21.439  -0.000  -0.000   0.000
    7    6    3    2        3       2.301  -1.464   0.837  -1.674  -0.000   0.000
    8    7    6    3        3       2.301  -1.464   0.837  -1.674  -0.000   0.000
    9    8    7    6        3       2.301  -1.464   0.837  -1.674  -0.000   0.000
    6    3    2    1        3       2.301  -1.464   0.837  -1.674  -0.000   0.000
    7    6    3    4        3      -2.720   0.000   2.720  -0.000  -0.000   0.000
    6    3    4    5        3       0.000   0.000   0.000  -0.000  -0.000   0.000
    4    3    2    1        3      -2.720   0.000   2.720  -0.000  -0.000   0.000
   25    9   10   11        3       0.000   0.000   0.000  -0.000  -0.000   0.000
   24    9   10   11        3       0.000   0.000   0.000  -0.000  -0.000   0.000
   24    9   10   12        3       0.276   0.828   0.000  -1.105  -0.000   0.000
   25    9   10   12        3       0.276   0.828   0.000  -1.105  -0.000   0.000
   23    8    9   10        3      -0.209  -0.628   0.000   0.837  -0.000   0.000
   22    8    9   10        3      -0.209  -0.628   0.000   0.837  -0.000   0.000
   19    6    3    2        3       0.628   1.883   0.000  -2.510  -0.000   0.000
   20    7    8    9        3       0.628   1.883   0.000  -2.510  -0.000   0.000
   13    1    2    3        3       0.628   1.883   0.000  -2.510  -0.000   0.000
   14    1    2    3        3       0.628   1.883   0.000  -2.510  -0.000   0.000
   21    7    8    9        3       0.628   1.883   0.000  -2.510  -0.000   0.000
   24    9    8    7        3       0.628   1.883   0.000  -2.510  -0.000   0.000
   22    8    7    6        3       0.628   1.883   0.000  -2.510  -0.000   0.000
   21    7    6    3        3       0.628   1.883   0.000  -2.510  -0.000   0.000
   15    1    2    3        3       0.628   1.883   0.000  -2.510  -0.000   0.000
   20    7    6    3        3       0.628   1.883   0.000  -2.510  -0.000   0.000
   23    8    7    6        3       0.628   1.883   0.000  -2.510  -0.000   0.000
   17    2    3    6        3       0.628   1.883   0.000  -2.510  -0.000   0.000
   25    9    8    7        3       0.628   1.883   0.000  -2.510  -0.000   0.000
   18    6    7    8        3       0.628   1.883   0.000  -2.510  -0.000   0.000
   18    6    3    2        3       0.628   1.883   0.000  -2.510  -0.000   0.000
   19    6    7    8        3       0.628   1.883   0.000  -2.510  -0.000   0.000
   16    2    3    6        3       0.628   1.883   0.000  -2.510  -0.000   0.000
   18    6    3    4        3       0.766   2.297   0.000  -3.063  -0.000   0.000
   17    2    3    4        3       0.766   2.297   0.000  -3.063  -0.000   0.000
   16    2    3    4        3       0.766   2.297   0.000  -3.063  -0.000   0.000
   19    6    3    4        3       0.766   2.297   0.000  -3.063  -0.000   0.000
   17    2    1   13        3       0.628   1.883   0.000  -2.510  -0.000   0.000
   24    9    8   22        3       0.628   1.883   0.000  -2.510  -0.000   0.000
   23    8    7   21        3       0.628   1.883   0.000  -2.510  -0.000   0.000
   23    8    7   20        3       0.628   1.883   0.000  -2.510  -0.000   0.000
   17    2    1   15        3       0.628   1.883   0.000  -2.510  -0.000   0.000
   22    8    7   20        3       0.628   1.883   0.000  -2.510  -0.000   0.000
   24    9    8   23        3       0.628   1.883   0.000  -2.510  -0.000   0.000
   20    7    6   19        3       0.628   1.883   0.000  -2.510  -0.000   0.000
   17    2    1   14        3       0.628   1.883   0.000  -2.510  -0.000   0.000
   21    7    6   18        3       0.628   1.883   0.000  -2.510  -0.000   0.000
   16    2    1   15        3       0.628   1.883   0.000  -2.510  -0.000   0.000
   25    9    8   23        3       0.628   1.883   0.000  -2.510  -0.000   0.000
   16    2    1   13        3       0.628   1.883   0.000  -2.510  -0.000   0.000
   22    8    7   21        3       0.628   1.883   0.000  -2.510  -0.000   0.000
   25    9    8   22        3       0.628   1.883   0.000  -2.510  -0.000   0.000
   20    7    6   18        3       0.628   1.883   0.000  -2.510  -0.000   0.000
   21    7    6   19        3       0.628   1.883   0.000  -2.510  -0.000   0.000
   16    2    1   14        3       0.628   1.883   0.000  -2.510  -0.000   0.000
   19    6    3   12        3       0.979   2.937   0.000  -3.916  -0.000   0.000
   17    2    3   12        3       0.979   2.937   0.000  -3.916  -0.000   0.000
   16    2    3   12        3       0.979   2.937   0.000  -3.916  -0.000   0.000
   18    6    3   12        3       0.979   2.937   0.000  -3.916  -0.000   0.000
    5    4    3    2        3       0.000   0.000   0.000  -0.000  -0.000   0.000
   11   10    9    8        3       0.000   0.000   0.000  -0.000  -0.000   0.000
   11   10   12    3        3      21.439   0.000  -21.439  -0.000  -0.000   0.000
   12   10    9    8        3      -1.157  -3.471   0.000   4.628  -0.000   0.000
   12    3    2    1        3       2.874   0.582   2.092  -5.548  -0.000   0.000
   12    3    6    7        3       2.874   0.582   2.092  -5.548  -0.000   0.000
   12    3    4    5        3       0.000   0.000   0.000  -0.000  -0.000   0.000

[ pairs ]
     1     4    1
     2     5    1
     1     6    1
     2     7    1
     5     6    1
     4     7    1
     3     8    1
     3     9    1
     2    10    1
     1    12    1
     4    10    1
     3    11    1
     6     9    1
     6    10    1
     3    13    1
     7    10    1
     5    12    1
     3    14    1
     3    15    1
     8    11    1
     7    12    1
     8    12    1
     4    16    1
     2    18    1
     4    17    1
     2    19    1
     6    16    1
     4    18    1
     6    17    1
     4    19    1
     3    20    1
     3    21    1
     8    18    1
     8    19    1
    12    16    1
     6    22    1
    13    16    1
    12    17    1
     9    20    1
     6    23    1
    14    16    1
    13    17    1
    12    18    1
     9    21    1
    15    16    1
    14    17    1
    12    19    1
     7    24    1
    15    17    1
    10    22    1
     7    25    1
    10    23    1
    11    24    1
    12    24    1
    11    25    1
    12    25    1
    18    20    1
    19    20    1
    18    21    1
    19    21    1
    20    22    1
    21    22    1
    20    23    1
    21    23    1
    22    24    1
    23    24    1
    22    25    1
    23    25    1

