LIGPARGEN GENERATED GRO FILE
   28
    1UNK    C00    1   0.100   0.100   0.000
    1UNK    C01    2  -0.052   0.100   0.000
    1UNK    N02    3  -0.109   0.100   0.139
    1UNK    C03    4  -0.071   0.223   0.214
    1UNK    S04    5  -0.280   0.077   0.143
    1UNK    O05    6  -0.321   0.080   0.282
    1UNK    O06    7  -0.336   0.171   0.047
    1UNK    C07    8  -0.300  -0.091   0.083
    1UNK    C08    9  -0.446  -0.137   0.077
    1UNK    C09   10  -0.530  -0.056  -0.022
    1UNK    C0A   11  -0.451  -0.285   0.036
    1UNK    H0B   12   0.137   0.082  -0.101
    1UNK    H0C   13   0.140   0.022   0.066
    1UNK    H0D   14   0.140   0.196   0.032
    1UNK    H0E   15  -0.083   0.009  -0.052
    1UNK    H0F   16  -0.089   0.186  -0.057
    1UNK    H0G   17   0.038   0.229   0.226
    1UNK    H0H   18  -0.112   0.221   0.316
    1UNK    H0I   19  -0.106   0.313   0.163
    1UNK    H0J   20  -0.243  -0.155   0.152
    1UNK    H0K   21  -0.255  -0.098  -0.017
    1UNK    H0M   22  -0.492  -0.128   0.176
    1UNK    H0N   23  -0.481  -0.050  -0.120
    1UNK    H0O   24  -0.547   0.046   0.015
    1UNK    H0P   25  -0.629  -0.101  -0.036
    1UNK    H0Q   26  -0.407  -0.300  -0.063
    1UNK    H0R   27  -0.554  -0.321   0.032
    1UNK    H0S   28  -0.397  -0.347   0.108
   1.00000   1.00000   1.00000

