
;
; GENERATED BY LigParGen Server
; Jorgensen Lab @ Yale University 
;
[ atomtypes ]
  opls_818  H818     1.0080     0.000    A    2.50000E-01   1.25520E-01
  opls_806  C806    12.0110     0.000    A    3.30000E-01   2.76144E-01
  opls_824  H824     1.0080     0.000    A    2.50000E-01   1.25520E-01
  opls_805  C805    12.0110     0.000    A    3.50000E-01   2.76144E-01
  opls_834  H834     1.0080     0.000    A    2.50000E-01   1.25520E-01
  opls_810  C810    12.0110     0.000    A    3.50000E-01   2.76144E-01
  opls_828  H828     1.0080     0.000    A    2.50000E-01   1.25520E-01
  opls_812  C812    12.0110     0.000    A    3.50000E-01   2.76144E-01
  opls_802  C802    12.0110     0.000    A    3.50000E-01   2.76144E-01
  opls_815  H815     1.0080     0.000    A    2.50000E-01   1.25520E-01
  opls_809  C809    12.0110     0.000    A    3.50000E-01   2.76144E-01
  opls_830  H830     1.0080     0.000    A    2.50000E-01   1.25520E-01
  opls_822  H822     1.0080     0.000    A    2.50000E-01   1.25520E-01
  opls_803  C803    12.0110     0.000    A    3.50000E-01   2.76144E-01
  opls_807  N807    14.0070     0.000    A    3.20000E-01   7.11280E-01
  opls_825  H825     1.0080     0.000    A    2.50000E-01   1.25520E-01
  opls_814  H814     1.0080     0.000    A    2.50000E-01   1.25520E-01
  opls_821  H821     1.0080     0.000    A    2.50000E-01   1.25520E-01
  opls_820  H820     1.0080     0.000    A    2.50000E-01   1.25520E-01
  opls_829  H829     1.0080     0.000    A    2.50000E-01   1.25520E-01
  opls_831  H831     1.0080     0.000    A    2.50000E-01   1.25520E-01
  opls_832  H832     1.0080     0.000    A    2.50000E-01   1.25520E-01
  opls_816  H816     1.0080     0.000    A    2.50000E-01   1.25520E-01
  opls_800  C800    12.0110     0.000    A    3.50000E-01   2.76144E-01
  opls_823  H823     1.0080     0.000    A    2.50000E-01   1.25520E-01
  opls_811  C811    12.0110     0.000    A    3.55000E-01   2.92880E-01
  opls_833  H833     1.0080     0.000    A    2.50000E-01   1.25520E-01
  opls_826  H826     1.0080     0.000    A    2.50000E-01   1.25520E-01
  opls_813  O813    15.9990     0.000    A    2.96000E-01   8.78640E-01
  opls_819  H819     1.0080     0.000    A    2.50000E-01   1.25520E-01
  opls_804  C804    12.0110     0.000    A    3.50000E-01   2.76144E-01
  opls_827  H827     1.0080     0.000    A    2.50000E-01   1.25520E-01
  opls_801  C801    12.0110     0.000    A    3.50000E-01   2.76144E-01
  opls_808  C808    12.0110     0.000    A    3.50000E-01   2.76144E-01
  opls_817  H817     1.0080     0.000    A    2.50000E-01   1.25520E-01
[ moleculetype ]
; Name               nrexcl
UNK                   3
[ atoms ]
;   nr       type  resnr residue  atom   cgnr     charge       mass  
     1   opls_800      1    UNK   C00      1    -0.2396    12.0110 
     2   opls_801      1    UNK   C01      1    -0.1747    12.0110 
     3   opls_802      1    UNK   C02      1    -0.1082    12.0110 
     4   opls_803      1    UNK   C03      1    -0.2403    12.0110 
     5   opls_804      1    UNK   C04      1    -0.1059    12.0110 
     6   opls_805      1    UNK   C05      1    -0.0372    12.0110 
     7   opls_806      1    UNK   C06      1     0.0996    12.0110 
     8   opls_807      1    UNK   N07      1    -0.3692    14.0070 
     9   opls_808      1    UNK   C08      1    -0.1806    12.0110 
    10   opls_809      1    UNK   C09      1    -0.1699    12.0110 
    11   opls_810      1    UNK   C0A      1    -0.2351    12.0110 
    12   opls_811      1    UNK   C0B      1     0.3105    12.0110 
    13   opls_812      1    UNK   C0C      1    -0.3034    12.0110 
    14   opls_813      1    UNK   O0D      1    -0.4011    15.9990 
    15   opls_814      1    UNK   H0E      1     0.0838     1.0080 
    16   opls_815      1    UNK   H0F      1     0.0838     1.0080 
    17   opls_816      1    UNK   H0G      1     0.0838     1.0080 
    18   opls_817      1    UNK   H0H      1     0.0893     1.0080 
    19   opls_818      1    UNK   H0I      1     0.0893     1.0080 
    20   opls_819      1    UNK   H0J      1     0.1069     1.0080 
    21   opls_820      1    UNK   H0K      1     0.0841     1.0080 
    22   opls_821      1    UNK   H0M      1     0.0841     1.0080 
    23   opls_822      1    UNK   H0N      1     0.0841     1.0080 
    24   opls_823      1    UNK   H0O      1     0.1010     1.0080 
    25   opls_824      1    UNK   H0P      1     0.1306     1.0080 
    26   opls_825      1    UNK   H0Q      1     0.1306     1.0080 
    27   opls_826      1    UNK   H0R      1     0.0981     1.0080 
    28   opls_827      1    UNK   H0S      1     0.0981     1.0080 
    29   opls_828      1    UNK   H0T      1     0.1072     1.0080 
    30   opls_829      1    UNK   H0U      1     0.1072     1.0080 
    31   opls_830      1    UNK   H0V      1     0.1213     1.0080 
    32   opls_831      1    UNK   H0W      1     0.1213     1.0080 
    33   opls_832      1    UNK   H0X      2     0.1168     1.0080 
    34   opls_833      1    UNK   H0Y      2     0.1168     1.0080 
    35   opls_834      1    UNK   H0Z      2     0.1168     1.0080 
[ bonds ]
    2     1     1      0.1529 224262.400
    3     2     1      0.1529 224262.400
    4     3     1      0.1529 224262.400
    5     3     1      0.1529 224262.400
    6     5     1      0.1529 224262.400
    7     6     1      0.1470 326352.000
    8     7     1      0.1157 543920.000
    9     5     1      0.1529 224262.400
   10     9     1      0.1529 224262.400
   11    10     1      0.1529 224262.400
   12    11     1      0.1522 265265.600
   13    12     1      0.1522 265265.600
   14    12     1      0.1229 476976.000
   15     1     1      0.1090 284512.000
   16     1     1      0.1090 284512.000
   17     1     1      0.1090 284512.000
   18     2     1      0.1090 284512.000
   19     2     1      0.1090 284512.000
   20     3     1      0.1090 284512.000
   21     4     1      0.1090 284512.000
   22     4     1      0.1090 284512.000
   23     4     1      0.1090 284512.000
   24     5     1      0.1090 284512.000
   25     6     1      0.1090 284512.000
   26     6     1      0.1090 284512.000
   27     9     1      0.1090 284512.000
   28     9     1      0.1090 284512.000
   29    10     1      0.1090 284512.000
   30    10     1      0.1090 284512.000
   31    11     1      0.1090 284512.000
   32    11     1      0.1090 284512.000
   33    13     1      0.1090 284512.000
   34    13     1      0.1090 284512.000
   35    13     1      0.1090 284512.000

[ angles ]
;  ai    aj    ak funct            c0            c1            c2            c3 
    1     2     3     1    112.700    488.273
    2     3     4     1    112.700    488.273
    2     3     5     1    112.700    488.273
    3     5     6     1    112.700    488.273
    5     6     7     1    112.700    488.273
    6     7     8     1    180.000   1255.200
    3     5     9     1    112.700    488.273
    5     9    10     1    112.700    488.273
    9    10    11     1    112.700    488.273
   10    11    12     1    111.100    527.184
   11    12    13     1    116.000    585.760
   11    12    14     1    120.400    669.440
    2     1    15     1    110.700    313.800
    2     1    16     1    110.700    313.800
    2     1    17     1    110.700    313.800
    1     2    18     1    110.700    313.800
    1     2    19     1    110.700    313.800
    2     3    20     1    110.700    313.800
    3     4    21     1    110.700    313.800
    3     4    22     1    110.700    313.800
    3     4    23     1    110.700    313.800
    3     5    24     1    110.700    313.800
    5     6    25     1    110.700    313.800
    5     6    26     1    110.700    313.800
    5     9    27     1    110.700    313.800
    5     9    28     1    110.700    313.800
    9    10    29     1    110.700    313.800
    9    10    30     1    110.700    313.800
   10    11    31     1    110.700    313.800
   10    11    32     1    110.700    313.800
   12    13    33     1    109.500    292.880
   12    13    34     1    109.500    292.880
   12    13    35     1    109.500    292.880
   31    11    12     1    109.500    292.880
   24     5     6     1    110.700    313.800
   18     2     3     1    110.700    313.800
   32    11    31     1    107.800    276.144
   34    13    33     1    107.800    276.144
   20     3     5     1    110.700    313.800
   25     6     7     1    108.500    292.880
   35    13    34     1    107.800    276.144
   19     2    18     1    107.800    276.144
   32    11    12     1    109.500    292.880
   24     5     9     1    110.700    313.800
   22     4    21     1    107.800    276.144
   28     9    27     1    107.800    276.144
    5     3     4     1    112.700    488.273
   26     6     7     1    108.500    292.880
   19     2     3     1    110.700    313.800
   16     1    15     1    107.800    276.144
   35    13    33     1    107.800    276.144
   14    12    13     1    120.400    669.440
   29    10    11     1    110.700    313.800
   26     6    25     1    107.800    276.144
   17     1    15     1    107.800    276.144
   17     1    16     1    107.800    276.144
    9     5     6     1    112.700    488.273
   23     4    21     1    107.800    276.144
   23     4    22     1    107.800    276.144
   28     9    10     1    110.700    313.800
   20     3     4     1    110.700    313.800
   27     9    10     1    110.700    313.800
   30    10    11     1    110.700    313.800
   30    10    29     1    107.800    276.144

[ dihedrals ]
; IMPROPER DIHEDRAL ANGLES 
;  ai    aj    ak    al funct            c0            c1            c2            c3            c4            c5
    14    12    11    13    4        180.000     43.932     2  

[ dihedrals ]
; PROPER DIHEDRAL ANGLES
;  ai    aj    ak    al funct            c0            c1            c2            c3            c4            c5
   12   11   10    9        3      -4.960   6.286   1.310  -2.636  -0.000   0.000
   12   11   10   30        3      -0.209  -0.628   0.000   0.837  -0.000   0.000
   12   11   10   29        3      -0.209  -0.628   0.000   0.837  -0.000   0.000
   13   12   11   10        3       0.818  -7.906   0.602   6.485  -0.000   0.000
   11   12   13   34        3       0.575   1.726   0.000  -2.301  -0.000   0.000
   13   12   11   32        3       0.575   1.726   0.000  -2.301  -0.000   0.000
   11   12   13   35        3       0.575   1.726   0.000  -2.301  -0.000   0.000
   13   12   11   31        3       0.575   1.726   0.000  -2.301  -0.000   0.000
   10   11   12   14        3       0.000   0.000   0.000  -0.000  -0.000   0.000
    4    3    2    1        3       2.301  -1.464   0.837  -1.674  -0.000   0.000
    4    3    5    6        3       2.301  -1.464   0.837  -1.674  -0.000   0.000
    1    2    3    5        3       2.301  -1.464   0.837  -1.674  -0.000   0.000
    2    3    5    9        3       2.301  -1.464   0.837  -1.674  -0.000   0.000
    6    5    9   10        3       2.301  -1.464   0.837  -1.674  -0.000   0.000
   11   10    9    5        3       2.301  -1.464   0.837  -1.674  -0.000   0.000
   10    9    5    3        3       2.301  -1.464   0.837  -1.674  -0.000   0.000
    4    3    5    9        3       2.301  -1.464   0.837  -1.674  -0.000   0.000
    6    5    3    2        3       2.301  -1.464   0.837  -1.674  -0.000   0.000
    6    5    9   28        3       0.628   1.883   0.000  -2.510  -0.000   0.000
    9    5    6   26        3       0.628   1.883   0.000  -2.510  -0.000   0.000
    3    2    1   17        3       0.628   1.883   0.000  -2.510  -0.000   0.000
    4    3    5   24        3       0.628   1.883   0.000  -2.510  -0.000   0.000
    9    5    6   25        3       0.628   1.883   0.000  -2.510  -0.000   0.000
    2    3    4   23        3       0.628   1.883   0.000  -2.510  -0.000   0.000
    9   10   11   32        3       0.628   1.883   0.000  -2.510  -0.000   0.000
    3    5    6   25        3       0.628   1.883   0.000  -2.510  -0.000   0.000
    5    9   10   29        3       0.628   1.883   0.000  -2.510  -0.000   0.000
    2    3    5   24        3       0.628   1.883   0.000  -2.510  -0.000   0.000
    6    5    3   20        3       0.628   1.883   0.000  -2.510  -0.000   0.000
    9   10   11   31        3       0.628   1.883   0.000  -2.510  -0.000   0.000
    3    5    9   27        3       0.628   1.883   0.000  -2.510  -0.000   0.000
    3    5    6   26        3       0.628   1.883   0.000  -2.510  -0.000   0.000
   11   10    9   27        3       0.628   1.883   0.000  -2.510  -0.000   0.000
    4    3    2   19        3       0.628   1.883   0.000  -2.510  -0.000   0.000
    5    3    2   18        3       0.628   1.883   0.000  -2.510  -0.000   0.000
    2    3    4   22        3       0.628   1.883   0.000  -2.510  -0.000   0.000
    6    5    9   27        3       0.628   1.883   0.000  -2.510  -0.000   0.000
    4    3    2   18        3       0.628   1.883   0.000  -2.510  -0.000   0.000
    5    3    4   22        3       0.628   1.883   0.000  -2.510  -0.000   0.000
    3    2    1   16        3       0.628   1.883   0.000  -2.510  -0.000   0.000
   11   10    9   28        3       0.628   1.883   0.000  -2.510  -0.000   0.000
    5    3    4   21        3       0.628   1.883   0.000  -2.510  -0.000   0.000
    3    5    9   28        3       0.628   1.883   0.000  -2.510  -0.000   0.000
    1    2    3   20        3       0.628   1.883   0.000  -2.510  -0.000   0.000
    5    3    4   23        3       0.628   1.883   0.000  -2.510  -0.000   0.000
    9    5    3   20        3       0.628   1.883   0.000  -2.510  -0.000   0.000
   10    9    5   24        3       0.628   1.883   0.000  -2.510  -0.000   0.000
    5    9   10   30        3       0.628   1.883   0.000  -2.510  -0.000   0.000
    5    3    2   19        3       0.628   1.883   0.000  -2.510  -0.000   0.000
    7    6    5    3        3      -2.720   0.000   2.720  -0.000  -0.000   0.000
    7    6    5    9        3      -2.720   0.000   2.720  -0.000  -0.000   0.000
    7    6    5   24        3       0.766   2.297   0.000  -3.063  -0.000   0.000
   33   13   12   11        3       0.575   1.726   0.000  -2.301  -0.000   0.000
   21    4    3    2        3       0.628   1.883   0.000  -2.510  -0.000   0.000
   15    1    2    3        3       0.628   1.883   0.000  -2.510  -0.000   0.000
   29   10   11   31        3       0.628   1.883   0.000  -2.510  -0.000   0.000
   20    3    4   21        3       0.628   1.883   0.000  -2.510  -0.000   0.000
   20    3    4   23        3       0.628   1.883   0.000  -2.510  -0.000   0.000
   17    1    2   19        3       0.628   1.883   0.000  -2.510  -0.000   0.000
   28    9   10   29        3       0.628   1.883   0.000  -2.510  -0.000   0.000
   27    9   10   30        3       0.628   1.883   0.000  -2.510  -0.000   0.000
   27    9   10   29        3       0.628   1.883   0.000  -2.510  -0.000   0.000
   15    1    2   18        3       0.628   1.883   0.000  -2.510  -0.000   0.000
   24    5    9   28        3       0.628   1.883   0.000  -2.510  -0.000   0.000
   28    9   10   30        3       0.628   1.883   0.000  -2.510  -0.000   0.000
   20    3    5   24        3       0.628   1.883   0.000  -2.510  -0.000   0.000
   24    5    9   27        3       0.628   1.883   0.000  -2.510  -0.000   0.000
   20    3    4   22        3       0.628   1.883   0.000  -2.510  -0.000   0.000
   16    1    2   18        3       0.628   1.883   0.000  -2.510  -0.000   0.000
   24    5    6   25        3       0.628   1.883   0.000  -2.510  -0.000   0.000
   19    2    3   20        3       0.628   1.883   0.000  -2.510  -0.000   0.000
   17    1    2   18        3       0.628   1.883   0.000  -2.510  -0.000   0.000
   18    2    3   20        3       0.628   1.883   0.000  -2.510  -0.000   0.000
   29   10   11   32        3       0.628   1.883   0.000  -2.510  -0.000   0.000
   30   10   11   31        3       0.628   1.883   0.000  -2.510  -0.000   0.000
   16    1    2   19        3       0.628   1.883   0.000  -2.510  -0.000   0.000
   24    5    6   26        3       0.628   1.883   0.000  -2.510  -0.000   0.000
   30   10   11   32        3       0.628   1.883   0.000  -2.510  -0.000   0.000
   15    1    2   19        3       0.628   1.883   0.000  -2.510  -0.000   0.000
    8    7    6    5        3       0.000   0.000   0.000  -0.000  -0.000   0.000
    8    7    6   26        3       0.000   0.000   0.000  -0.000  -0.000   0.000
    8    7    6   25        3       0.000   0.000   0.000  -0.000  -0.000   0.000
   14   12   11   31        3       0.000   0.000   0.000  -0.000  -0.000   0.000
   14   12   13   33        3       0.000   0.000   0.000  -0.000  -0.000   0.000
   14   12   11   32        3       0.000   0.000   0.000  -0.000  -0.000   0.000
   14   12   13   35        3       0.000   0.000   0.000  -0.000  -0.000   0.000
   14   12   13   34        3       0.000   0.000   0.000  -0.000  -0.000   0.000

[ pairs ]
     1     4    1
     1     5    1
     2     6    1
     4     6    1
     3     7    1
     2     9    1
     5     8    1
     4     9    1
     3    10    1
     7     9    1
     6    10    1
     5    11    1
     3    15    1
     3    16    1
     3    17    1
     9    12    1
     1    20    1
     4    18    1
    10    13    1
     5    18    1
     4    19    1
     2    21    1
    10    14    1
     5    19    1
     2    22    1
     2    23    1
     6    20    1
     5    21    1
     2    24    1
     5    22    1
     5    23    1
     4    24    1
     3    25    1
     9    20    1
     3    26    1
     3    27    1
     7    24    1
     3    28    1
    15    18    1
     8    25    1
     6    27    1
    16    18    1
    15    19    1
    10    24    1
     9    25    1
     8    26    1
     6    28    1
     5    29    1
    17    18    1
    16    19    1
     9    26    1
     5    30    1
    17    19    1
    18    20    1
    11    27    1
    19    20    1
    11    28    1
     9    31    1
    20    21    1
    12    29    1
     9    32    1
    20    22    1
    12    30    1
    20    23    1
    20    24    1
    13    31    1
    11    33    1
    14    31    1
    13    32    1
    11    34    1
    14    32    1
    11    35    1
    14    33    1
    14    34    1
    24    25    1
    14    35    1
    24    26    1
    24    27    1
    24    28    1
    27    29    1
    28    29    1
    27    30    1
    28    30    1
    29    31    1
    30    31    1
    29    32    1
    30    32    1

