LIGPARGEN GENERATED GRO FILE
   35
    1UNK    C00    1   0.100   0.100   0.000
    1UNK    O01    2  -0.043   0.100   0.000
    1UNK    C02    3  -0.098   0.100   0.125
    1UNK    O03    4  -0.034   0.100   0.229
    1UNK    C04    5  -0.250   0.093   0.114
    1UNK    C05    6  -0.288  -0.054   0.101
    1UNK    C06    7  -0.312   0.167   0.236
    1UNK    C07    8  -0.466   0.187   0.246
    1UNK    C08    9  -0.519   0.258   0.119
    1UNK    C09   10  -0.540   0.052   0.256
    1UNK    C0A   11  -0.504   0.272   0.374
    1UNK    C0B   12  -0.461   0.207   0.507
    1UNK    C0C   13  -0.454   0.417   0.373
    1UNK    H0D   14   0.134   0.093  -0.104
    1UNK    H0E   15   0.139   0.014   0.055
    1UNK    H0F   16   0.138   0.193   0.043
    1UNK    H0G   17  -0.278   0.147   0.023
    1UNK    H0H   18  -0.292  -0.103   0.199
    1UNK    H0I   19  -0.215  -0.109   0.041
    1UNK    H0J   20  -0.384  -0.066   0.052
    1UNK    H0K   21  -0.265   0.266   0.238
    1UNK    H0M   22  -0.277   0.116   0.326
    1UNK    H0N   23  -0.504   0.197   0.030
    1UNK    H0O   24  -0.468   0.354   0.102
    1UNK    H0P   25  -0.626   0.278   0.128
    1UNK    H0Q   26  -0.549   0.002   0.159
    1UNK    H0R   27  -0.643   0.065   0.291
    1UNK    H0S   28  -0.490  -0.017   0.325
    1UNK    H0T   29  -0.614   0.279   0.378
    1UNK    H0U   30  -0.352   0.200   0.515
    1UNK    H0V   31  -0.503   0.106   0.518
    1UNK    H0W   32  -0.496   0.266   0.592
    1UNK    H0X   33  -0.345   0.423   0.367
    1UNK    H0Y   34  -0.484   0.469   0.464
    1UNK    H0Z   35  -0.496   0.473   0.289
   1.00000   1.00000   1.00000

