LIGPARGEN GENERATED GRO FILE
   23
    1UNK    C00    1   0.100   0.100   0.000
    1UNK    C01    2  -0.052   0.100   0.000
    1UNK    C02    3  -0.112   0.100   0.142
    1UNK    C03    4  -0.265   0.093   0.139
    1UNK    C04    5  -0.309   0.238   0.120
    1UNK    C05    6  -0.200   0.322   0.187
    1UNK    O06    7  -0.242   0.373   0.312
    1UNK    C07    8  -0.187   0.296   0.410
    1UNK    O08    9  -0.212   0.308   0.529
    1UNK    O09   10  -0.100   0.205   0.358
    1UNK    C0A   11  -0.086   0.230   0.219
    1UNK    H0B   12   0.138   0.089  -0.102
    1UNK    H0C   13   0.139   0.017   0.060
    1UNK    H0D   14   0.140   0.194   0.040
    1UNK    H0E   15  -0.086   0.010  -0.053
    1UNK    H0F   16  -0.088   0.186  -0.058
    1UNK    H0G   17  -0.073   0.013   0.197
    1UNK    H0H   18  -0.303   0.056   0.234
    1UNK    H0I   19  -0.304   0.028   0.060
    1UNK    H0J   20  -0.409   0.256   0.163
    1UNK    H0K   21  -0.314   0.261   0.013
    1UNK    H0M   22  -0.170   0.405   0.122
    1UNK    H0N   23   0.012   0.274   0.202
   1.00000   1.00000   1.00000

