LIGPARGEN GENERATED GRO FILE
   27
    1UNK    C00    1   0.100   0.100   0.000
    1UNK    S01    2  -0.081   0.100   0.000
    1UNK    C02    3  -0.123   0.100   0.181
    1UNK    C03    4  -0.057   0.221   0.250
    1UNK    C04    5  -0.277   0.115   0.193
    1UNK    C05    6  -0.355  -0.007   0.147
    1UNK    C06    7  -0.305  -0.129   0.220
    1UNK    O07    8  -0.383  -0.206   0.276
    1UNK    C08    9  -0.156  -0.156   0.210
    1UNK    C09   10  -0.115  -0.275   0.298
    1UNK    C0A   11  -0.078  -0.030   0.252
    1UNK    H0B   12   0.134   0.120  -0.102
    1UNK    H0C   13   0.139   0.002   0.030
    1UNK    H0D   14   0.141   0.178   0.064
    1UNK    H0E   15  -0.083   0.315   0.199
    1UNK    H0F   16   0.052   0.213   0.254
    1UNK    H0G   17  -0.091   0.230   0.354
    1UNK    H0H   18  -0.311   0.204   0.138
    1UNK    H0I   19  -0.302   0.134   0.298
    1UNK    H0J   20  -0.347  -0.024   0.040
    1UNK    H0K   21  -0.461   0.007   0.170
    1UNK    H0M   22  -0.135  -0.182   0.105
    1UNK    H0N   23  -0.140  -0.256   0.403
    1UNK    H0O   24  -0.008  -0.294   0.290
    1UNK    H0P   25  -0.169  -0.366   0.267
    1UNK    H0Q   26   0.030  -0.047   0.237
    1UNK    H0R   27  -0.091  -0.016   0.360
   1.00000   1.00000   1.00000

