
;
; GENERATED BY LigParGen Server
; Jorgensen Lab @ Yale University 
;
[ atomtypes ]
  opls_807  O807    15.9990     0.000    A    2.96000E-01   8.78640E-01
  opls_818  H818     1.0080     0.000    A    2.50000E-01   1.25520E-01
  opls_824  H824     1.0080     0.000    A    2.50000E-01   1.25520E-01
  opls_810  C810    12.0110     0.000    A    3.55000E-01   2.92880E-01
  opls_813  H813     1.0080     0.000    A    2.50000E-01   1.25520E-01
  opls_811  C811    12.0110     0.000    A    3.50000E-01   2.76144E-01
  opls_815  H815     1.0080     0.000    A    2.50000E-01   1.25520E-01
  opls_802  O802    15.9990     0.000    A    2.96000E-01   8.78640E-01
  opls_822  H822     1.0080     0.000    A    2.50000E-01   1.25520E-01
  opls_803  C803    12.0110     0.000    A    3.50000E-01   2.76144E-01
  opls_814  H814     1.0080     0.000    A    2.50000E-01   1.25520E-01
  opls_809  O809    15.9990     0.000    A    2.96000E-01   8.78640E-01
  opls_821  H821     1.0080     0.000    A    2.50000E-01   1.25520E-01
  opls_820  H820     1.0080     0.000    A    2.50000E-01   1.25520E-01
  opls_801  C801    12.0110     0.000    A    3.55000E-01   2.92880E-01
  opls_805  C805    12.0110     0.000    A    3.55000E-01   2.92880E-01
  opls_812  O812    15.9990     0.000    A    2.96000E-01   8.78640E-01
  opls_816  H816     1.0080     0.000    A    2.50000E-01   1.25520E-01
  opls_800  C800    12.0110     0.000    A    3.50000E-01   2.76144E-01
  opls_806  C806    12.0110     0.000    A    3.50000E-01   2.76144E-01
  opls_823  H823     1.0080     0.000    A    2.50000E-01   1.25520E-01
  opls_819  H819     1.0080     0.000    A    2.50000E-01   1.25520E-01
  opls_804  C804    12.0110     0.000    A    3.50000E-01   2.76144E-01
  opls_817  H817     1.0080     0.000    A    2.50000E-01   1.25520E-01
  opls_808  C808    12.0110     0.000    A    3.55000E-01   2.92880E-01
[ moleculetype ]
; Name               nrexcl
UNK                   3
[ atoms ]
;   nr       type  resnr residue  atom   cgnr     charge       mass  
     1   opls_800      1    UNK   C00      1    -0.2991    12.0110 
     2   opls_801      1    UNK   C01      1      0.368    12.0110 
     3   opls_802      1    UNK   O02      1    -0.4575    15.9990 
     4   opls_803      1    UNK   C03      1    -0.2308    12.0110 
     5   opls_804      1    UNK   C04      1    -0.2045    12.0110 
     6   opls_805      1    UNK   C05      1     0.3852    12.0110 
     7   opls_806      1    UNK   C06      1    -0.3001    12.0110 
     8   opls_807      1    UNK   O07      1    -0.4421    15.9990 
     9   opls_808      1    UNK   C08      1     0.3292    12.0110 
    10   opls_809      1    UNK   O09      1     -0.387    15.9990 
    11   opls_810      1    UNK   C0A      1     0.3259    12.0110 
    12   opls_811      1    UNK   C0B      1    -0.2955    12.0110 
    13   opls_812      1    UNK   O0C      1    -0.4109    15.9990 
    14   opls_813      1    UNK   H0D      1     0.1226     1.0080 
    15   opls_814      1    UNK   H0E      1     0.1226     1.0080 
    16   opls_815      1    UNK   H0F      1     0.1226     1.0080 
    17   opls_816      1    UNK   H0G      1      0.142     1.0080 
    18   opls_817      1    UNK   H0H      1      0.142     1.0080 
    19   opls_818      1    UNK   H0I      1     0.1805     1.0080 
    20   opls_819      1    UNK   H0J      1     0.1296     1.0080 
    21   opls_820      1    UNK   H0K      1     0.1296     1.0080 
    22   opls_821      1    UNK   H0M      1     0.1296     1.0080 
    23   opls_822      1    UNK   H0N      1     0.1326     1.0080 
    24   opls_823      1    UNK   H0O      1     0.1326     1.0080 
    25   opls_824      1    UNK   H0P      1     0.1326     1.0080 
[ bonds ]
    2     1     1      0.1522 265265.600
    3     2     1      0.1229 476976.000
    4     2     1      0.1522 265265.600
    5     4     1      0.1529 224262.400
    6     5     1      0.1522 265265.600
    7     6     1      0.1522 265265.600
    8     6     1      0.1229 476976.000
    9     5     1      0.1522 265265.600
   10     9     1      0.1229 476976.000
   11     9     1      0.1510 292880.000
   12    11     1      0.1522 265265.600
   13    11     1      0.1229 476976.000
   14     1     1      0.1090 284512.000
   15     1     1      0.1090 284512.000
   16     1     1      0.1090 284512.000
   17     4     1      0.1090 284512.000
   18     4     1      0.1090 284512.000
   19     5     1      0.1090 284512.000
   20     7     1      0.1090 284512.000
   21     7     1      0.1090 284512.000
   22     7     1      0.1090 284512.000
   23    12     1      0.1090 284512.000
   24    12     1      0.1090 284512.000
   25    12     1      0.1090 284512.000

[ angles ]
;  ai    aj    ak funct            c0            c1            c2            c3 
    1     2     3     1    120.400    669.440
    1     2     4     1    116.000    585.760
    2     4     5     1    111.100    527.184
    4     5     6     1    111.100    527.184
    5     6     7     1    116.000    585.760
    5     6     8     1    120.400    669.440
    4     5     9     1    111.100    527.184
    5     9    10     1    120.400    669.440
    5     9    11     1    117.200    669.440
    9    11    12     1    117.200    669.440
    9    11    13     1    121.400    669.440
    2     1    14     1    109.500    292.880
    2     1    15     1    109.500    292.880
    2     1    16     1    109.500    292.880
    2     4    17     1    109.500    292.880
    2     4    18     1    109.500    292.880
    4     5    19     1    110.700    313.800
    6     7    20     1    109.500    292.880
    6     7    21     1    109.500    292.880
    6     7    22     1    109.500    292.880
   11    12    23     1    109.500    292.880
   11    12    24     1    109.500    292.880
   11    12    25     1    109.500    292.880
   23    12    25     1    107.800    276.144
   23    12    24     1    107.800    276.144
    6     5    19     1    109.500    292.880
   21     7    22     1    107.800    276.144
   20     7    21     1    107.800    276.144
   17     4    18     1    107.800    276.144
   14     1    15     1    107.800    276.144
    9     5    19     1    109.500    292.880
   15     1    16     1    107.800    276.144
    3     2     4     1    120.400    669.440
    7     6     8     1    120.400    669.440
   24    12    25     1    107.800    276.144
   10     9    11     1    121.400    669.440
   12    11    13     1    120.400    669.440
    6     5     9     1    111.100    527.184
   14     1    16     1    107.800    276.144
   20     7    22     1    107.800    276.144
    5     4    18     1    110.700    313.800
    5     4    17     1    110.700    313.800

[ dihedrals ]
; IMPROPER DIHEDRAL ANGLES 
;  ai    aj    ak    al funct            c0            c1            c2            c3            c4            c5
    11     9     5    10    4        180.000     43.932     2  
     4     2     1     3    4        180.000     43.932     2  
    13    11     9    12    4        180.000     43.932     2  
     8     6     5     7    4        180.000     43.932     2  

[ dihedrals ]
; PROPER DIHEDRAL ANGLES
;  ai    aj    ak    al funct            c0            c1            c2            c3            c4            c5
   11    9    5    6        3       0.941   7.427   0.000  -8.368  -0.000   0.000
   11    9    5    4        3       0.000   0.000   0.000  -0.000  -0.000   0.000
    9    5    6    7        3       0.818  -7.906   0.602   6.485  -0.000   0.000
    9    5    6    8        3       0.000   0.000   0.000  -0.000  -0.000   0.000
    6    5    4    2        3       0.941   7.427   0.000  -8.368  -0.000   0.000
    9    5    4    2        3       0.941   7.427   0.000  -8.368  -0.000   0.000
   12   11    9    5        3      -4.812  -1.464   6.276  -0.000  -0.000   0.000
   12   11    9   10        3       2.092   0.000  -2.092  -0.000  -0.000   0.000
    7    6    5    4        3       0.818  -7.906   0.602   6.485  -0.000   0.000
    5    4    2    1        3       0.818  -7.906   0.602   6.485  -0.000   0.000
    5    4    2    3        3       0.000   0.000   0.000  -0.000  -0.000   0.000
   24   12   11    9        3       0.178   0.533   0.000  -0.711  -0.000   0.000
   19    5    9   11        3       0.178   0.533   0.000  -0.711  -0.000   0.000
   23   12   11    9        3       0.178   0.533   0.000  -0.711  -0.000   0.000
   25   12   11    9        3       0.178   0.533   0.000  -0.711  -0.000   0.000
   17    4    2    1        3       0.575   1.726   0.000  -2.301  -0.000   0.000
   14    1    2    4        3       0.575   1.726   0.000  -2.301  -0.000   0.000
   21    7    6    5        3       0.575   1.726   0.000  -2.301  -0.000   0.000
   19    5    6    7        3       0.575   1.726   0.000  -2.301  -0.000   0.000
   16    1    2    4        3       0.575   1.726   0.000  -2.301  -0.000   0.000
   15    1    2    4        3       0.575   1.726   0.000  -2.301  -0.000   0.000
   22    7    6    5        3       0.575   1.726   0.000  -2.301  -0.000   0.000
   18    4    2    1        3       0.575   1.726   0.000  -2.301  -0.000   0.000
   20    7    6    5        3       0.575   1.726   0.000  -2.301  -0.000   0.000
   14    1    2    3        3       0.000   0.000   0.000  -0.000  -0.000   0.000
   22    7    6    8        3       0.000   0.000   0.000  -0.000  -0.000   0.000
   15    1    2    3        3       0.000   0.000   0.000  -0.000  -0.000   0.000
   21    7    6    8        3       0.000   0.000   0.000  -0.000  -0.000   0.000
   23   12   11   13        3       0.000   0.000   0.000  -0.000  -0.000   0.000
   24   12   11   13        3       0.000   0.000   0.000  -0.000  -0.000   0.000
   16    1    2    3        3       0.000   0.000   0.000  -0.000  -0.000   0.000
   20    7    6    8        3       0.000   0.000   0.000  -0.000  -0.000   0.000
   19    5    9   10        3       0.000   0.000   0.000  -0.000  -0.000   0.000
   19    5    6    8        3       0.000   0.000   0.000  -0.000  -0.000   0.000
   18    4    2    3        3       0.000   0.000   0.000  -0.000  -0.000   0.000
   25   12   11   13        3       0.000   0.000   0.000  -0.000  -0.000   0.000
   17    4    2    3        3       0.000   0.000   0.000  -0.000  -0.000   0.000
   19    5    4    2        3      -0.209  -0.628   0.000   0.837  -0.000   0.000
   17    4    5    6        3      -0.209  -0.628   0.000   0.837  -0.000   0.000
   18    4    5    6        3      -0.209  -0.628   0.000   0.837  -0.000   0.000
   17    4    5    9        3      -0.209  -0.628   0.000   0.837  -0.000   0.000
   18    4    5    9        3      -0.209  -0.628   0.000   0.837  -0.000   0.000
   19    5    4   18        3       0.628   1.883   0.000  -2.510  -0.000   0.000
   19    5    4   17        3       0.628   1.883   0.000  -2.510  -0.000   0.000
   13   11    9    5        3       2.092   0.000  -2.092  -0.000  -0.000   0.000
   13   11    9   10        3      16.736  -3.347  -13.389  -0.000  -0.000   0.000
   10    9    5    6        3       0.000   0.000   0.000  -0.000  -0.000   0.000
   10    9    5    4        3       0.000   0.000   0.000  -0.000  -0.000   0.000
    8    6    5    4        3       0.000   0.000   0.000  -0.000  -0.000   0.000

[ pairs ]
     1     5    1
     3     5    1
     2     6    1
     4     7    1
     2     9    1
     4     8    1
     4    10    1
     4    11    1
     7     9    1
     6    10    1
     8     9    1
     6    11    1
     5    12    1
     3    14    1
     5    13    1
     4    14    1
     3    15    1
     1    17    1
     4    15    1
     3    16    1
     1    18    1
     4    16    1
     3    17    1
     3    18    1
     2    19    1
    10    12    1
    10    13    1
     6    17    1
     6    18    1
     5    20    1
     9    17    1
     7    19    1
     5    21    1
     9    18    1
     8    19    1
     5    22    1
     8    20    1
    10    19    1
     8    21    1
    11    19    1
     8    22    1
     9    23    1
     9    24    1
     9    25    1
    17    19    1
    13    23    1
    18    19    1
    13    24    1
    13    25    1

