LIGPARGEN GENERATED GRO FILE
   25
    1UNK    C00    1   0.100   0.100   0.000
    1UNK    C01    2  -0.051   0.100   0.000
    1UNK    O02    3  -0.115   0.100   0.105
    1UNK    C03    4  -0.119   0.089  -0.135
    1UNK    C04    5  -0.256   0.158  -0.134
    1UNK    C05    6  -0.239   0.307  -0.107
    1UNK    C06    7  -0.346   0.379  -0.030
    1UNK    O07    8  -0.140   0.368  -0.147
    1UNK    C08    9  -0.322   0.134  -0.268
    1UNK    O09   10  -0.260   0.115  -0.372
    1UNK    C0A   11  -0.474   0.133  -0.272
    1UNK    C0B   12  -0.540   0.099  -0.403
    1UNK    O0C   13  -0.537   0.155  -0.170
    1UNK    H0D   14   0.137   0.130   0.098
    1UNK    H0E   15   0.137   0.172  -0.074
    1UNK    H0F   16   0.137  -0.000  -0.024
    1UNK    H0G   17  -0.129  -0.017  -0.158
    1UNK    H0H   18  -0.053   0.134  -0.211
    1UNK    H0I   19  -0.317   0.114  -0.054
    1UNK    H0J   20  -0.439   0.323  -0.027
    1UNK    H0K   21  -0.366   0.475  -0.079
    1UNK    H0M   22  -0.311   0.396   0.073
    1UNK    H0N   23  -0.470   0.102  -0.486
    1UNK    H0O   24  -0.619   0.172  -0.423
    1UNK    H0P   25  -0.583  -0.001  -0.396
   1.00000   1.00000   1.00000

