LIGPARGEN GENERATED GRO FILE
   24
    1UNK    C00    1   0.100   0.100   0.000
    1UNK    C01    2  -0.054   0.100   0.000
    1UNK    C02    3  -0.102   0.100   0.147
    1UNK    C03    4  -0.109   0.222  -0.078
    1UNK    S04    5  -0.062   0.384  -0.021
    1UNK    O05    6  -0.115   0.406   0.112
    1UNK    O06    7   0.078   0.407  -0.053
    1UNK    F07    8  -0.142   0.484  -0.114
    1UNK    C08    9  -0.100  -0.033  -0.063
    1UNK    C09   10  -0.246  -0.068  -0.079
    1UNK    C0A   11  -0.160  -0.046  -0.201
    1UNK    H0B   12   0.141   0.185   0.055
    1UNK    H0C   13   0.139   0.102  -0.102
    1UNK    H0D   14   0.140   0.010   0.048
    1UNK    H0E   15  -0.058   0.182   0.205
    1UNK    H0F   16  -0.075   0.007   0.197
    1UNK    H0G   17  -0.212   0.109   0.153
    1UNK    H0H   18  -0.219   0.222  -0.077
    1UNK    H0I   19  -0.076   0.219  -0.182
    1UNK    H0J   20  -0.037  -0.116  -0.029
    1UNK    H0K   21  -0.321   0.007  -0.056
    1UNK    H0M   22  -0.277  -0.169  -0.056
    1UNK    H0N   23  -0.182   0.040  -0.262
    1UNK    H0O   24  -0.133  -0.134  -0.260
   1.00000   1.00000   1.00000

