LIGPARGEN GENERATED GRO FILE
   27
    1UNK    C00    1   0.100   0.100   0.000
    1UNK    C01    2  -0.052   0.100   0.000
    1UNK    C02    3  -0.110   0.100   0.142
    1UNK    C03    4  -0.264   0.100   0.143
    1UNK    C04    5  -0.321  -0.024   0.074
    1UNK    C05    6  -0.316   0.102   0.288
    1UNK    O06    7  -0.281   0.223   0.361
    1UNK    C07    8  -0.408   0.239   0.405
    1UNK    O08    9  -0.450   0.315   0.489
    1UNK    C09   10  -0.465   0.136   0.306
    1UNK    C0A   11  -0.554   0.026   0.360
    1UNK    H0B   12   0.137   0.100  -0.103
    1UNK    H0C   13   0.139   0.011   0.050
    1UNK    H0D   14   0.140   0.189   0.050
    1UNK    H0E   15  -0.085   0.011  -0.055
    1UNK    H0F   16  -0.088   0.188  -0.055
    1UNK    H0G   17  -0.073   0.189   0.195
    1UNK    H0H   18  -0.072   0.013   0.197
    1UNK    H0I   19  -0.300   0.189   0.090
    1UNK    H0J   20  -0.283  -0.116   0.121
    1UNK    H0K   21  -0.297  -0.027  -0.032
    1UNK    H0M   22  -0.431  -0.027   0.082
    1UNK    H0N   23  -0.283   0.014   0.345
    1UNK    H0O   24  -0.511   0.187   0.220
    1UNK    H0P   25  -0.508  -0.025   0.445
    1UNK    H0Q   26  -0.573  -0.049   0.282
    1UNK    H0R   27  -0.650   0.066   0.392
   1.00000   1.00000   1.00000

