
;
; GENERATED BY LigParGen Server
; Jorgensen Lab @ Yale University 
;
[ atomtypes ]
  opls_818  H818     1.0080     0.000    A    2.50000E-01   1.25520E-01
  opls_805  C805    12.0110     0.000    A    3.45000E-01   3.47272E-01
  opls_804  C804    12.0110     0.000    A    3.50000E-01   2.76144E-01
  opls_824  H824     1.0080     0.000    A    2.50000E-01   1.25520E-01
  opls_808  O808    15.9990     0.000    A    2.96000E-01   8.78640E-01
  opls_813  H813     1.0080     0.000    A    2.50000E-01   1.25520E-01
  opls_806  O806    15.9990     0.000    A    2.90000E-01   5.85760E-01
  opls_802  C802    12.0110     0.000    A    3.50000E-01   2.76144E-01
  opls_815  H815     1.0080     0.000    A    2.50000E-01   1.25520E-01
  opls_801  C801    12.0110     0.000    A    3.50000E-01   2.76144E-01
  opls_822  H822     1.0080     0.000    A    2.50000E-01   1.25520E-01
  opls_803  C803    12.0110     0.000    A    3.50000E-01   2.76144E-01
  opls_825  H825     1.0080     0.000    A    2.50000E-01   1.25520E-01
  opls_814  H814     1.0080     0.000    A    2.50000E-01   1.25520E-01
  opls_821  H821     1.0080     0.000    A    2.50000E-01   1.25520E-01
  opls_820  H820     1.0080     0.000    A    2.50000E-01   1.25520E-01
  opls_811  H811     1.0080     0.000    A    2.50000E-01   1.25520E-01
  opls_807  C807    12.0110     0.000    A    3.75000E-01   4.39320E-01
  opls_816  H816     1.0080     0.000    A    2.50000E-01   1.25520E-01
  opls_800  C800    12.0110     0.000    A    3.50000E-01   2.76144E-01
  opls_823  H823     1.0080     0.000    A    2.50000E-01   1.25520E-01
  opls_826  H826     1.0080     0.000    A    2.50000E-01   1.25520E-01
  opls_819  H819     1.0080     0.000    A    2.50000E-01   1.25520E-01
  opls_810  C810    12.0110     0.000    A    3.50000E-01   2.76144E-01
  opls_817  H817     1.0080     0.000    A    2.50000E-01   1.25520E-01
  opls_809  C809    12.0110     0.000    A    3.45000E-01   3.47272E-01
  opls_812  H812     1.0080     0.000    A    2.50000E-01   1.25520E-01
[ moleculetype ]
; Name               nrexcl
UNK                   3
[ atoms ]
;   nr       type  resnr residue  atom   cgnr     charge       mass  
     1   opls_800      1    UNK   C00      1     -0.239    12.0110 
     2   opls_801      1    UNK   C01      1    -0.1781    12.0110 
     3   opls_802      1    UNK   C02      1    -0.1728    12.0110 
     4   opls_803      1    UNK   C03      1    -0.1154    12.0110 
     5   opls_804      1    UNK   C04      1      -0.24    12.0110 
     6   opls_805      1    UNK   C05      1     0.0478    12.0110 
     7   opls_806      1    UNK   O06      1    -0.3417    15.9990 
     8   opls_807      1    UNK   C07      1      0.441    12.0110 
     9   opls_808      1    UNK   O08      1    -0.3711    15.9990 
    10   opls_809      1    UNK   C09      1    -0.2037    12.0110 
    11   opls_810      1    UNK   C0A      1    -0.2294    12.0110 
    12   opls_811      1    UNK   H0B      1     0.0832     1.0080 
    13   opls_812      1    UNK   H0C      1     0.0832     1.0080 
    14   opls_813      1    UNK   H0D      1     0.0832     1.0080 
    15   opls_814      1    UNK   H0E      1     0.0883     1.0080 
    16   opls_815      1    UNK   H0F      1     0.0883     1.0080 
    17   opls_816      1    UNK   H0G      1     0.1006     1.0080 
    18   opls_817      1    UNK   H0H      1     0.1006     1.0080 
    19   opls_818      1    UNK   H0I      1     0.1161     1.0080 
    20   opls_819      1    UNK   H0J      1     0.0879     1.0080 
    21   opls_820      1    UNK   H0K      1     0.0879     1.0080 
    22   opls_821      1    UNK   H0M      1     0.0879     1.0080 
    23   opls_822      1    UNK   H0N      1     0.1386     1.0080 
    24   opls_823      1    UNK   H0O      1     0.1572     1.0080 
    25   opls_824      1    UNK   H0P      1     0.0998     1.0080 
    26   opls_825      1    UNK   H0Q      1     0.0998     1.0080 
    27   opls_826      1    UNK   H0R      1     0.0998     1.0080 
[ bonds ]
    2     1     1      0.1529 224262.400
    3     2     1      0.1529 224262.400
    4     3     1      0.1529 224262.400
    5     4     1      0.1529 224262.400
    6     4     1      0.1510 234304.000
    7     6     1      0.1410 267776.000
    8     7     1      0.1327 179075.200
    9     8     1      0.1229 476976.000
   10     6     1      0.1520 217568.000
   11    10     1      0.1510 234304.000
   12     1     1      0.1090 284512.000
   13     1     1      0.1090 284512.000
   14     1     1      0.1090 284512.000
   15     2     1      0.1090 284512.000
   16     2     1      0.1090 284512.000
   17     3     1      0.1090 284512.000
   18     3     1      0.1090 284512.000
   19     4     1      0.1090 284512.000
   20     5     1      0.1090 284512.000
   21     5     1      0.1090 284512.000
   22     5     1      0.1090 284512.000
   23     6     1      0.1088 284512.000
   24    10     1      0.1088 284512.000
   25    11     1      0.1090 284512.000
   26    11     1      0.1090 284512.000
   27    11     1      0.1090 284512.000
   10     8     1      0.1522 265265.600

[ angles ]
;  ai    aj    ak funct            c0            c1            c2            c3 
    1     2     3     1    112.700    488.273
    2     3     4     1    112.700    488.273
    3     4     5     1    112.700    488.273
    3     4     6     1    112.700    488.273
    4     6     7     1    117.200    313.800
    6     7     8     1    116.900    694.544
    7     8     9     1    123.400    694.544
    4     6    10     1    117.200    313.800
    6    10    11     1    117.200    313.800
    2     1    12     1    110.700    313.800
    2     1    13     1    110.700    313.800
    2     1    14     1    110.700    313.800
    1     2    15     1    110.700    313.800
    1     2    16     1    110.700    313.800
    2     3    17     1    110.700    313.800
    2     3    18     1    110.700    313.800
    3     4    19     1    110.700    313.800
    4     5    20     1    110.700    313.800
    4     5    21     1    110.700    313.800
    4     5    22     1    110.700    313.800
    4     6    23     1    114.300    292.880
    6    10    24     1    117.200    313.800
   10    11    25     1    110.700    313.800
   10    11    26     1    110.700    313.800
   10    11    27     1    110.700    313.800
   10     6    23     1    117.200    313.800
    5     4     6     1    112.700    488.273
   13     1    14     1    107.800    276.144
   20     5    22     1    107.800    276.144
   15     2    16     1    107.800    276.144
   25    11    27     1    107.800    276.144
   12     1    13     1    107.800    276.144
    3     2    15     1    110.700    313.800
   21     5    22     1    107.800    276.144
   12     1    14     1    107.800    276.144
    7     6    23     1    117.200    313.800
    9     8    10     1    134.000    669.440
    6    10     8     1     85.000    527.184
    3     2    16     1    110.700    313.800
    4     3    18     1    110.700    313.800
    8    10    11     1    111.100    527.184
    6     4    19     1    110.700    313.800
    7     8    10     1    111.400    677.808
    5     4    19     1    110.700    313.800
    7     6    10     1     90.000    418.400
   26    11    27     1    107.800    276.144
   25    11    26     1    107.800    276.144
    4     3    17     1    110.700    313.800
   17     3    18     1    107.800    276.144
    8    10    24     1    110.000    313.800
   11    10    24     1    114.300    292.880
   20     5    21     1    107.800    276.144

[ dihedrals ]
; IMPROPER DIHEDRAL ANGLES 
;  ai    aj    ak    al funct            c0            c1            c2            c3            c4            c5
    10     8     7     6    4          0.000      4.812     1  
    10     8     7     6    4        180.000     12.738     2  
     9     8    10     7    4        180.000     10.460     2  

[ dihedrals ]
; PROPER DIHEDRAL ANGLES
;  ai    aj    ak    al funct            c0            c1            c2            c3            c4            c5
    8   10    6    4        3       0.000   0.000   0.000  -0.000  -0.000   0.000
    8    7    6    4        3       1.715   2.845   1.046  -5.607  -0.000   0.000
    4    3    2    1        3       2.301  -1.464   0.837  -1.674  -0.000   0.000
    5    4    3    2        3       2.301  -1.464   0.837  -1.674  -0.000   0.000
   11   10    8    9        3       0.000   0.000   0.000  -0.000  -0.000   0.000
   11   10    8    7        3       0.000   0.000   0.000  -0.000  -0.000   0.000
   11   10    6    4        3       0.000   0.000   0.000  -0.000  -0.000   0.000
   11   10    6    7        3       0.000   0.000   0.000  -0.000  -0.000   0.000
    6    4    3    2        3       2.301  -1.464   0.837  -1.674  -0.000   0.000
   10    6    4    5        3       0.000   0.000   0.000  -0.000  -0.000   0.000
   10    6    4    3        3       0.000   0.000   0.000  -0.000  -0.000   0.000
   18    3    4    5        3       0.628   1.883   0.000  -2.510  -0.000   0.000
   18    3    2    1        3       0.628   1.883   0.000  -2.510  -0.000   0.000
   19    4    3    2        3       0.628   1.883   0.000  -2.510  -0.000   0.000
   22    5    4    3        3       0.628   1.883   0.000  -2.510  -0.000   0.000
   13    1    2    3        3       0.628   1.883   0.000  -2.510  -0.000   0.000
   16    2    3    4        3       0.628   1.883   0.000  -2.510  -0.000   0.000
   14    1    2    3        3       0.628   1.883   0.000  -2.510  -0.000   0.000
   17    3    4    5        3       0.628   1.883   0.000  -2.510  -0.000   0.000
   17    3    2    1        3       0.628   1.883   0.000  -2.510  -0.000   0.000
   15    2    3    4        3       0.628   1.883   0.000  -2.510  -0.000   0.000
   21    5    4    3        3       0.628   1.883   0.000  -2.510  -0.000   0.000
   20    5    4    3        3       0.628   1.883   0.000  -2.510  -0.000   0.000
   12    1    2    3        3       0.628   1.883   0.000  -2.510  -0.000   0.000
   21    5    4    6        3       0.628   1.883   0.000  -2.510  -0.000   0.000
   22    5    4    6        3       0.628   1.883   0.000  -2.510  -0.000   0.000
   20    5    4    6        3       0.628   1.883   0.000  -2.510  -0.000   0.000
   18    3    4    6        3       0.628   1.883   0.000  -2.510  -0.000   0.000
   17    3    4    6        3       0.628   1.883   0.000  -2.510  -0.000   0.000
   16    2    1   14        3       0.628   1.883   0.000  -2.510  -0.000   0.000
   21    5    4   19        3       0.628   1.883   0.000  -2.510  -0.000   0.000
   15    2    1   14        3       0.628   1.883   0.000  -2.510  -0.000   0.000
   16    2    1   13        3       0.628   1.883   0.000  -2.510  -0.000   0.000
   22    5    4   19        3       0.628   1.883   0.000  -2.510  -0.000   0.000
   19    4    3   18        3       0.628   1.883   0.000  -2.510  -0.000   0.000
   19    4    3   17        3       0.628   1.883   0.000  -2.510  -0.000   0.000
   20    5    4   19        3       0.628   1.883   0.000  -2.510  -0.000   0.000
   15    2    1   12        3       0.628   1.883   0.000  -2.510  -0.000   0.000
   17    3    2   15        3       0.628   1.883   0.000  -2.510  -0.000   0.000
   16    2    1   12        3       0.628   1.883   0.000  -2.510  -0.000   0.000
   17    3    2   16        3       0.628   1.883   0.000  -2.510  -0.000   0.000
   18    3    2   15        3       0.628   1.883   0.000  -2.510  -0.000   0.000
   15    2    1   13        3       0.628   1.883   0.000  -2.510  -0.000   0.000
   18    3    2   16        3       0.628   1.883   0.000  -2.510  -0.000   0.000
   25   11   10    8        3       0.628   1.883   0.000  -2.510  -0.000   0.000
   27   11   10    8        3       0.628   1.883   0.000  -2.510  -0.000   0.000
   26   11   10    8        3       0.628   1.883   0.000  -2.510  -0.000   0.000
   26   11   10    6        3       0.628   1.883   0.000  -2.510  -0.000   0.000
   19    4    6   10        3       0.628   1.883   0.000  -2.510  -0.000   0.000
   27   11   10    6        3       0.628   1.883   0.000  -2.510  -0.000   0.000
   25   11   10    6        3       0.628   1.883   0.000  -2.510  -0.000   0.000
   25   11   10   24        3       0.628   1.883   0.000  -2.510  -0.000   0.000
   26   11   10   24        3       0.628   1.883   0.000  -2.510  -0.000   0.000
   27   11   10   24        3       0.628   1.883   0.000  -2.510  -0.000   0.000
   19    4    6    7        3       0.979   2.937   0.000  -3.916  -0.000   0.000
   24   10    8    9        3       0.000   0.000   0.000  -0.000  -0.000   0.000
   24   10    8    7        3       0.000   0.000   0.000  -0.000  -0.000   0.000
   23    6    4    5        3       0.628   1.883   0.000  -2.510  -0.000   0.000
   23    6    4    3        3       0.628   1.883   0.000  -2.510  -0.000   0.000
   23    6    4   19        3       0.628   1.883   0.000  -2.510  -0.000   0.000
   23    6   10    8        3       0.000   0.000   0.000  -0.000  -0.000   0.000
   24   10    6    4        3       0.000   0.000   0.000  -0.000  -0.000   0.000
   23    6   10   11        3       0.000   0.000   0.000  -0.000  -0.000   0.000
   24   10    6   23        3       0.000   0.000   0.000  -0.000  -0.000   0.000
   24   10    6    7        3       0.000   0.000   0.000  -0.000  -0.000   0.000
   23    6    7    8        3       0.000   0.000   0.000  -0.000  -0.000   0.000
    7    6    4    3        3       2.874   0.582   2.092  -5.548  -0.000   0.000
    7    6    4    5        3       2.874   0.582   2.092  -5.548  -0.000   0.000
    9    8   10    6        3       0.000   0.000   0.000  -0.000  -0.000   0.000
    9    8    7    6        3      83.680   0.000  -83.680  -0.000  -0.000   0.000

[ pairs ]
     1     4    1
     2     5    1
     2     6    1
     3     7    1
     5     7    1
     4     8    1
     3    10    1
     6     9    1
     5    10    1
     4    11    1
     3    12    1
     3    13    1
     3    14    1
     7    11    1
     1    17    1
     4    15    1
     1    18    1
     9    11    1
     4    16    1
     2    19    1
     5    17    1
     6    17    1
     5    18    1
     3    20    1
     6    18    1
     3    21    1
     3    22    1
     7    19    1
     6    20    1
     3    23    1
    12    15    1
     6    21    1
    13    15    1
    12    16    1
     6    22    1
     5    23    1
     4    24    1
    14    15    1
    13    16    1
    10    19    1
    14    16    1
     8    23    1
     7    24    1
     6    25    1
    15    17    1
     6    26    1
    16    17    1
    15    18    1
     9    24    1
     8    25    1
     6    27    1
    16    18    1
    11    23    1
     8    26    1
     8    27    1
    17    19    1
    18    19    1
    19    20    1
    19    21    1
    19    22    1
    19    23    1
    23    24    1
    24    25    1
    24    26    1
    24    27    1

