LIGPARGEN GENERATED GRO FILE
   31
    1UNK    C00    1   0.100   0.100   0.000
    1UNK    C01    2  -0.051   0.100   0.000
    1UNK    O02    3  -0.112   0.100   0.107
    1UNK    C03    4  -0.122   0.091  -0.136
    1UNK    C04    5  -0.085   0.209  -0.230
    1UNK    C05    6  -0.146   0.189  -0.370
    1UNK    C06    7  -0.285   0.126  -0.369
    1UNK    C07    8  -0.355   0.141  -0.234
    1UNK    C08    9  -0.388   0.289  -0.205
    1UNK    S09   10  -0.274   0.381  -0.096
    1UNK    C0A   11  -0.115   0.350  -0.175
    1UNK    C0B   12  -0.275   0.070  -0.122
    1UNK    C0C   13  -0.306  -0.081  -0.120
    1UNK    H0D   14   0.136   0.105   0.103
    1UNK    H0E   15   0.139   0.187  -0.053
    1UNK    H0F   16   0.136   0.008  -0.046
    1UNK    H0G   17  -0.079   0.001  -0.183
    1UNK    H0H   18   0.024   0.207  -0.246
    1UNK    H0I   19  -0.080   0.124  -0.429
    1UNK    H0J   20  -0.149   0.284  -0.424
    1UNK    H0K   21  -0.275   0.020  -0.393
    1UNK    H0M   22  -0.345   0.170  -0.449
    1UNK    H0N   23  -0.453   0.091  -0.244
    1UNK    H0O   24  -0.484   0.292  -0.153
    1UNK    H0P   25  -0.401   0.345  -0.298
    1UNK    H0Q   26  -0.040   0.374  -0.099
    1UNK    H0R   27  -0.102   0.425  -0.253
    1UNK    H0S   28  -0.311   0.107  -0.025
    1UNK    H0T   29  -0.278  -0.130  -0.215
    1UNK    H0U   30  -0.413  -0.099  -0.104
    1UNK    H0V   31  -0.251  -0.131  -0.039
   1.00000   1.00000   1.00000

