LIGPARGEN GENERATED GRO FILE
   22
    1UNK    C00    1   0.100   0.100   0.000
    1UNK    O01    2  -0.043   0.100   0.000
    1UNK    C02    3  -0.097   0.100   0.124
    1UNK    O03    4  -0.034   0.100   0.229
    1UNK    O04    5  -0.232   0.100   0.112
    1UNK    C05    6  -0.304   0.106   0.236
    1UNK    C06    7  -0.310   0.250   0.288
    1UNK    O07    8  -0.383   0.253   0.411
    1UNK    C08    9  -0.385   0.385   0.464
    1UNK    C09   10  -0.462   0.385   0.595
    1UNK    F0A   11  -0.256   0.421   0.490
    1UNK    H0B   12   0.134   0.100  -0.104
    1UNK    H0C   13   0.139   0.010   0.049
    1UNK    H0D   14   0.138   0.190   0.049
    1UNK    H0E   15  -0.261   0.038   0.310
    1UNK    H0F   16  -0.405   0.069   0.216
    1UNK    H0G   17  -0.360   0.313   0.213
    1UNK    H0H   18  -0.209   0.288   0.302
    1UNK    H0I   19  -0.428   0.455   0.393
    1UNK    H0J   20  -0.419   0.313   0.665
    1UNK    H0K   21  -0.566   0.357   0.578
    1UNK    H0M   22  -0.458   0.484   0.642
   1.00000   1.00000   1.00000

