
;
; GENERATED BY LigParGen Server
; Jorgensen Lab @ Yale University 
;
[ atomtypes ]
  opls_818  H818     1.0080     0.000    A    2.50000E-01   1.25520E-01
  opls_810  F810    18.9984     0.000    A    2.90000E-01   2.51040E-01
  opls_813  H813     1.0080     0.000    A    2.50000E-01   1.25520E-01
  opls_801  O801    15.9990     0.000    A    2.90000E-01   5.85760E-01
  opls_803  O803    15.9990     0.000    A    2.96000E-01   8.78640E-01
  opls_806  C806    12.0110     0.000    A    3.50000E-01   2.76144E-01
  opls_815  H815     1.0080     0.000    A    2.50000E-01   1.25520E-01
  opls_809  C809    12.0110     0.000    A    3.50000E-01   2.76144E-01
  opls_814  H814     1.0080     0.000    A    2.50000E-01   1.25520E-01
  opls_821  H821     1.0080     0.000    A    2.50000E-01   1.25520E-01
  opls_820  H820     1.0080     0.000    A    2.50000E-01   1.25520E-01
  opls_811  H811     1.0080     0.000    A    2.50000E-01   1.25520E-01
  opls_816  H816     1.0080     0.000    A    2.50000E-01   1.25520E-01
  opls_800  C800    12.0110     0.000    A    3.50000E-01   2.76144E-01
  opls_802  C802    12.0110     0.000    A    3.55000E-01   2.92880E-01
  opls_819  H819     1.0080     0.000    A    2.50000E-01   1.25520E-01
  opls_805  C805    12.0110     0.000    A    3.50000E-01   2.76144E-01
  opls_808  C808    12.0110     0.000    A    3.50000E-01   2.76144E-01
  opls_807  O807    15.9990     0.000    A    2.90000E-01   5.85760E-01
  opls_817  H817     1.0080     0.000    A    2.50000E-01   1.25520E-01
  opls_804  O804    15.9990     0.000    A    2.90000E-01   5.85760E-01
  opls_812  H812     1.0080     0.000    A    2.50000E-01   1.25520E-01
[ moleculetype ]
; Name               nrexcl
UNK                   3
[ atoms ]
;   nr       type  resnr residue  atom   cgnr     charge       mass  
     1   opls_800      1    UNK   C00      1    -0.0447    12.0110 
     2   opls_801      1    UNK   O01      1    -0.3154    15.9990 
     3   opls_802      1    UNK   C02      1      0.564    12.0110 
     4   opls_803      1    UNK   O03      1     -0.487    15.9990 
     5   opls_804      1    UNK   O04      1    -0.3142    15.9990 
     6   opls_805      1    UNK   C05      1     0.0164    12.0110 
     7   opls_806      1    UNK   C06      1    -0.0328    12.0110 
     8   opls_807      1    UNK   O07      1    -0.3942    15.9990 
     9   opls_808      1    UNK   C08      1      0.235    12.0110 
    10   opls_809      1    UNK   C09      1    -0.2786    12.0110 
    11   opls_810      1    UNK   F0A      1    -0.1857    18.9984 
    12   opls_811      1    UNK   H0B      1     0.1087     1.0080 
    13   opls_812      1    UNK   H0C      1     0.1087     1.0080 
    14   opls_813      1    UNK   H0D      1     0.1087     1.0080 
    15   opls_814      1    UNK   H0E      1     0.1364     1.0080 
    16   opls_815      1    UNK   H0F      1     0.1364     1.0080 
    17   opls_816      1    UNK   H0G      1     0.1019     1.0080 
    18   opls_817      1    UNK   H0H      1     0.1019     1.0080 
    19   opls_818      1    UNK   H0I      1     0.0976     1.0080 
    20   opls_819      1    UNK   H0J      1     0.1123     1.0080 
    21   opls_820      1    UNK   H0K      1     0.1123     1.0080 
    22   opls_821      1    UNK   H0M      1     0.1123     1.0080 
[ bonds ]
    2     1     1      0.1410 267776.000
    3     2     1      0.1327 179075.200
    4     3     1      0.1229 476976.000
    5     3     1      0.1327 179075.200
    6     5     1      0.1410 267776.000
    7     6     1      0.1529 224262.400
    8     7     1      0.1410 267776.000
    9     8     1      0.1410 267776.000
   10     9     1      0.1529 224262.400
   11     9     1      0.1360 307105.600
   12     1     1      0.1090 284512.000
   13     1     1      0.1090 284512.000
   14     1     1      0.1090 284512.000
   15     6     1      0.1090 284512.000
   16     6     1      0.1090 284512.000
   17     7     1      0.1090 284512.000
   18     7     1      0.1090 284512.000
   19     9     1      0.1090 284512.000
   20    10     1      0.1090 284512.000
   21    10     1      0.1090 284512.000
   22    10     1      0.1090 284512.000

[ angles ]
;  ai    aj    ak funct            c0            c1            c2            c3 
    1     2     3     1    116.900    694.544
    2     3     4     1    123.400    694.544
    2     3     5     1    118.180    584.923
    3     5     6     1    116.900    694.544
    5     6     7     1    109.500    418.400
    6     7     8     1    109.500    418.400
    7     8     9     1    109.500    502.080
    8     9    10     1    109.500    418.400
    8     9    11     1    110.580    432.207
    2     1    12     1    109.500    292.880
    2     1    13     1    109.500    292.880
    2     1    14     1    109.500    292.880
    5     6    15     1    109.500    292.880
    5     6    16     1    109.500    292.880
    6     7    17     1    110.700    313.800
    6     7    18     1    110.700    313.800
    8     9    19     1    109.500    292.880
    9    10    20     1    110.700    313.800
    9    10    21     1    110.700    313.800
    9    10    22     1    110.700    313.800
    8     7    18     1    109.500    292.880
   12     1    14     1    107.800    276.144
    4     3     5     1    123.400    694.544
    7     6    15     1    110.700    313.800
   12     1    13     1    107.800    276.144
   10     9    19     1    110.700    313.800
    7     6    16     1    110.700    313.800
   13     1    14     1    107.800    276.144
   21    10    22     1    107.800    276.144
   10     9    11     1    109.500    418.400
    8     7    17     1    109.500    292.880
   20    10    22     1    107.800    276.144
   17     7    18     1    107.800    276.144
   20    10    21     1    107.800    276.144
   15     6    16     1    107.800    276.144
   11     9    19     1    107.000    334.720

[ dihedrals ]
; IMPROPER DIHEDRAL ANGLES 
;  ai    aj    ak    al funct            c0            c1            c2            c3            c4            c5
     5     3     2     4    4        180.000     43.932     2  

[ dihedrals ]
; PROPER DIHEDRAL ANGLES
;  ai    aj    ak    al funct            c0            c1            c2            c3            c4            c5
    7    6    5    3        3      -2.197   5.201   0.527  -3.531  -0.000   0.000
   10    9    8    7        3       1.715   2.845   1.046  -5.607  -0.000   0.000
    6    5    3    4        3      21.439   0.000  -21.439  -0.000  -0.000   0.000
    6    5    3    2        3      31.206  -9.768  -21.439  -0.000  -0.000   0.000
    9    8    7    6        3       1.715   2.845   1.046  -5.607  -0.000   0.000
   11    9    8    7        3      -5.358  13.617   8.443  -16.703  -0.000   0.000
   22   10    9   11        3       0.837   2.510   0.000  -3.347  -0.000   0.000
   20   10    9   11        3       0.837   2.510   0.000  -3.347  -0.000   0.000
   21   10    9   11        3       0.837   2.510   0.000  -3.347  -0.000   0.000
   22   10    9   19        3       0.628   1.883   0.000  -2.510  -0.000   0.000
   17    7    6   15        3       0.628   1.883   0.000  -2.510  -0.000   0.000
   18    7    6   15        3       0.628   1.883   0.000  -2.510  -0.000   0.000
   17    7    6   16        3       0.628   1.883   0.000  -2.510  -0.000   0.000
   20   10    9   19        3       0.628   1.883   0.000  -2.510  -0.000   0.000
   21   10    9   19        3       0.628   1.883   0.000  -2.510  -0.000   0.000
   18    7    6   16        3       0.628   1.883   0.000  -2.510  -0.000   0.000
   22   10    9    8        3       0.979   2.937   0.000  -3.916  -0.000   0.000
   15    6    7    8        3       0.979   2.937   0.000  -3.916  -0.000   0.000
   16    6    7    8        3       0.979   2.937   0.000  -3.916  -0.000   0.000
   18    7    6    5        3       0.979   2.937   0.000  -3.916  -0.000   0.000
   17    7    6    5        3       0.979   2.937   0.000  -3.916  -0.000   0.000
   21   10    9    8        3       0.979   2.937   0.000  -3.916  -0.000   0.000
   20   10    9    8        3       0.979   2.937   0.000  -3.916  -0.000   0.000
   12    1    2    3        3       0.414   1.243   0.000  -1.657  -0.000   0.000
   13    1    2    3        3       0.414   1.243   0.000  -1.657  -0.000   0.000
   16    6    5    3        3       0.414   1.243   0.000  -1.657  -0.000   0.000
   15    6    5    3        3       0.414   1.243   0.000  -1.657  -0.000   0.000
   14    1    2    3        3       0.414   1.243   0.000  -1.657  -0.000   0.000
   19    9    8    7        3       1.590   4.770   0.000  -6.360  -0.000   0.000
   18    7    8    9        3       1.590   4.770   0.000  -6.360  -0.000   0.000
   17    7    8    9        3       1.590   4.770   0.000  -6.360  -0.000   0.000
    4    3    2    1        3      21.439   0.000  -21.439  -0.000  -0.000   0.000
    5    3    2    1        3      31.206  -9.768  -21.439  -0.000  -0.000   0.000
    8    7    6    5        3      -1.151   1.151   0.000  -0.000  -0.000   0.000

[ pairs ]
     1     4    1
     1     5    1
     2     6    1
     4     6    1
     3     7    1
     5     8    1
     6     9    1
     3    12    1
     3    13    1
     7    10    1
     3    14    1
     7    11    1
     3    15    1
     3    16    1
     5    17    1
     8    15    1
     5    18    1
     8    16    1
     9    17    1
     7    19    1
     9    18    1
     8    20    1
     8    21    1
     8    22    1
    11    20    1
    15    17    1
    11    21    1
    16    17    1
    15    18    1
    11    22    1
    16    18    1
    19    20    1
    19    21    1
    19    22    1

