
;
; GENERATED BY LigParGen Server
; Jorgensen Lab @ Yale University 
;
[ atomtypes ]
  opls_818  H818     1.0080     0.000    A    2.50000E-01   1.25520E-01
  opls_809  N809    14.0070     0.000    A    3.20000E-01   7.11280E-01
  opls_805  C805    12.0110     0.000    A    3.50000E-01   2.76144E-01
  opls_813  H813     1.0080     0.000    A    2.50000E-01   1.25520E-01
  opls_806  C806    12.0110     0.000    A    3.50000E-01   2.76144E-01
  opls_815  H815     1.0080     0.000    A    2.50000E-01   1.25520E-01
  opls_802  O802    15.9990     0.000    A    2.96000E-01   8.78640E-01
  opls_822  H822     1.0080     0.000    A    2.50000E-01   1.25520E-01
  opls_803  C803    12.0110     0.000    A    3.50000E-01   2.76144E-01
  opls_814  H814     1.0080     0.000    A    2.50000E-01   1.25520E-01
  opls_808  C808    12.0110     0.000    A    3.30000E-01   2.76144E-01
  opls_821  H821     1.0080     0.000    A    2.50000E-01   1.25520E-01
  opls_820  H820     1.0080     0.000    A    2.50000E-01   1.25520E-01
  opls_801  C801    12.0110     0.000    A    3.55000E-01   2.92880E-01
  opls_811  H811     1.0080     0.000    A    2.50000E-01   1.25520E-01
  opls_810  H810     1.0080     0.000    A    2.50000E-01   1.25520E-01
  opls_816  H816     1.0080     0.000    A    2.50000E-01   1.25520E-01
  opls_800  C800    12.0110     0.000    A    3.50000E-01   2.76144E-01
  opls_819  H819     1.0080     0.000    A    2.50000E-01   1.25520E-01
  opls_804  C804    12.0110     0.000    A    3.50000E-01   2.76144E-01
  opls_817  H817     1.0080     0.000    A    2.50000E-01   1.25520E-01
  opls_812  H812     1.0080     0.000    A    2.50000E-01   1.25520E-01
  opls_807  C807    12.0110     0.000    A    3.50000E-01   2.76144E-01
[ moleculetype ]
; Name               nrexcl
UNK                   3
[ atoms ]
;   nr       type  resnr residue  atom   cgnr     charge       mass  
     1   opls_800      1    UNK   C00      1    -0.2966    12.0110 
     2   opls_801      1    UNK   C01      1     0.3696    12.0110 
     3   opls_802      1    UNK   O02      1    -0.4517    15.9990 
     4   opls_803      1    UNK   C03      1    -0.0832    12.0110 
     5   opls_804      1    UNK   C04      1    -0.2329    12.0110 
     6   opls_805      1    UNK   C05      1    -0.2379    12.0110 
     7   opls_806      1    UNK   C06      1     0.0122    12.0110 
     8   opls_807      1    UNK   C07      1    -0.2392    12.0110 
     9   opls_808      1    UNK   C08      1     0.1612    12.0110 
    10   opls_809      1    UNK   N09      1    -0.3927    14.0070 
    11   opls_810      1    UNK   H0A      1     0.1199     1.0080 
    12   opls_811      1    UNK   H0B      1     0.1199     1.0080 
    13   opls_812      1    UNK   H0C      1     0.1199     1.0080 
    14   opls_813      1    UNK   H0D      1     0.0946     1.0080 
    15   opls_814      1    UNK   H0E      1     0.0946     1.0080 
    16   opls_815      1    UNK   H0F      1     0.0946     1.0080 
    17   opls_816      1    UNK   H0G      1     0.0986     1.0080 
    18   opls_817      1    UNK   H0H      1     0.0986     1.0080 
    19   opls_818      1    UNK   H0I      1     0.0986     1.0080 
    20   opls_819      1    UNK   H0J      1     0.1537     1.0080 
    21   opls_820      1    UNK   H0K      1     0.0994     1.0080 
    22   opls_821      1    UNK   H0M      1     0.0994     1.0080 
    23   opls_822      1    UNK   H0N      1     0.0994     1.0080 
[ bonds ]
    2     1     1      0.1522 265265.600
    3     2     1      0.1229 476976.000
    4     2     1      0.1522 265265.600
    5     4     1      0.1529 224262.400
    6     4     1      0.1529 224262.400
    7     4     1      0.1529 224262.400
    8     7     1      0.1529 224262.400
    9     7     1      0.1470 326352.000
   10     9     1      0.1157 543920.000
   11     1     1      0.1090 284512.000
   12     1     1      0.1090 284512.000
   13     1     1      0.1090 284512.000
   14     5     1      0.1090 284512.000
   15     5     1      0.1090 284512.000
   16     5     1      0.1090 284512.000
   17     6     1      0.1090 284512.000
   18     6     1      0.1090 284512.000
   19     6     1      0.1090 284512.000
   20     7     1      0.1090 284512.000
   21     8     1      0.1090 284512.000
   22     8     1      0.1090 284512.000
   23     8     1      0.1090 284512.000

[ angles ]
;  ai    aj    ak funct            c0            c1            c2            c3 
    1     2     3     1    120.400    669.440
    1     2     4     1    116.000    585.760
    2     4     5     1    111.100    527.184
    2     4     6     1    111.100    527.184
    2     4     7     1    111.100    527.184
    4     7     8     1    112.700    488.273
    4     7     9     1    112.700    488.273
    7     9    10     1    180.000   1255.200
    2     1    11     1    109.500    292.880
    2     1    12     1    109.500    292.880
    2     1    13     1    109.500    292.880
    4     5    14     1    110.700    313.800
    4     5    15     1    110.700    313.800
    4     5    16     1    110.700    313.800
    4     6    17     1    110.700    313.800
    4     6    18     1    110.700    313.800
    4     6    19     1    110.700    313.800
    4     7    20     1    110.700    313.800
    7     8    21     1    110.700    313.800
    7     8    22     1    110.700    313.800
    7     8    23     1    110.700    313.800
   15     5    16     1    107.800    276.144
    5     4     6     1    112.700    488.273
   11     1    13     1    107.800    276.144
   21     8    22     1    107.800    276.144
    5     4     7     1    112.700    488.273
   17     6    18     1    107.800    276.144
   18     6    19     1    107.800    276.144
   17     6    19     1    107.800    276.144
   14     5    16     1    107.800    276.144
    6     4     7     1    112.700    488.273
   22     8    23     1    107.800    276.144
    8     7     9     1    112.700    488.273
   14     5    15     1    107.800    276.144
   21     8    23     1    107.800    276.144
   11     1    12     1    107.800    276.144
   12     1    13     1    107.800    276.144
    3     2     4     1    120.400    669.440
    8     7    20     1    110.700    313.800
    9     7    20     1    108.500    292.880

[ dihedrals ]
; IMPROPER DIHEDRAL ANGLES 
;  ai    aj    ak    al funct            c0            c1            c2            c3            c4            c5
     4     2     1     3    4        180.000     43.932     2  

[ dihedrals ]
; PROPER DIHEDRAL ANGLES
;  ai    aj    ak    al funct            c0            c1            c2            c3            c4            c5
    7    4    2    1        3       0.818  -7.906   0.602   6.485  -0.000   0.000
    6    4    2    1        3       0.818  -7.906   0.602   6.485  -0.000   0.000
    5    4    2    1        3       0.818  -7.906   0.602   6.485  -0.000   0.000
    5    4    2    3        3       0.000   0.000   0.000  -0.000  -0.000   0.000
    7    4    2    3        3       0.000   0.000   0.000  -0.000  -0.000   0.000
    6    4    2    3        3       0.000   0.000   0.000  -0.000  -0.000   0.000
    8    7    4    2        3      -4.960   6.286   1.310  -2.636  -0.000   0.000
    8    7    4    6        3       2.301  -1.464   0.837  -1.674  -0.000   0.000
    8    7    4    5        3       2.301  -1.464   0.837  -1.674  -0.000   0.000
    9    7    4    2        3      -4.960   6.286   1.310  -2.636  -0.000   0.000
    9    7    4    6        3      -2.720   0.000   2.720  -0.000  -0.000   0.000
    9    7    4    5        3      -2.720   0.000   2.720  -0.000  -0.000   0.000
   13    1    2    4        3       0.575   1.726   0.000  -2.301  -0.000   0.000
   11    1    2    4        3       0.575   1.726   0.000  -2.301  -0.000   0.000
   12    1    2    4        3       0.575   1.726   0.000  -2.301  -0.000   0.000
   11    1    2    3        3       0.000   0.000   0.000  -0.000  -0.000   0.000
   12    1    2    3        3       0.000   0.000   0.000  -0.000  -0.000   0.000
   13    1    2    3        3       0.000   0.000   0.000  -0.000  -0.000   0.000
   14    5    4    2        3      -0.209  -0.628   0.000   0.837  -0.000   0.000
   17    6    4    2        3      -0.209  -0.628   0.000   0.837  -0.000   0.000
   19    6    4    2        3      -0.209  -0.628   0.000   0.837  -0.000   0.000
   18    6    4    2        3      -0.209  -0.628   0.000   0.837  -0.000   0.000
   15    5    4    2        3      -0.209  -0.628   0.000   0.837  -0.000   0.000
   20    7    4    2        3      -0.209  -0.628   0.000   0.837  -0.000   0.000
   16    5    4    2        3      -0.209  -0.628   0.000   0.837  -0.000   0.000
   17    6    4    7        3       0.628   1.883   0.000  -2.510  -0.000   0.000
   19    6    4    7        3       0.628   1.883   0.000  -2.510  -0.000   0.000
   17    6    4    5        3       0.628   1.883   0.000  -2.510  -0.000   0.000
   15    5    4    6        3       0.628   1.883   0.000  -2.510  -0.000   0.000
   20    7    4    5        3       0.628   1.883   0.000  -2.510  -0.000   0.000
   23    8    7    4        3       0.628   1.883   0.000  -2.510  -0.000   0.000
   22    8    7    4        3       0.628   1.883   0.000  -2.510  -0.000   0.000
   14    5    4    7        3       0.628   1.883   0.000  -2.510  -0.000   0.000
   16    5    4    6        3       0.628   1.883   0.000  -2.510  -0.000   0.000
   19    6    4    5        3       0.628   1.883   0.000  -2.510  -0.000   0.000
   18    6    4    7        3       0.628   1.883   0.000  -2.510  -0.000   0.000
   21    8    7    4        3       0.628   1.883   0.000  -2.510  -0.000   0.000
   14    5    4    6        3       0.628   1.883   0.000  -2.510  -0.000   0.000
   18    6    4    5        3       0.628   1.883   0.000  -2.510  -0.000   0.000
   15    5    4    7        3       0.628   1.883   0.000  -2.510  -0.000   0.000
   20    7    4    6        3       0.628   1.883   0.000  -2.510  -0.000   0.000
   16    5    4    7        3       0.628   1.883   0.000  -2.510  -0.000   0.000
   21    8    7    9        3       0.766   2.297   0.000  -3.063  -0.000   0.000
   23    8    7    9        3       0.766   2.297   0.000  -3.063  -0.000   0.000
   22    8    7    9        3       0.766   2.297   0.000  -3.063  -0.000   0.000
   21    8    7   20        3       0.628   1.883   0.000  -2.510  -0.000   0.000
   23    8    7   20        3       0.628   1.883   0.000  -2.510  -0.000   0.000
   22    8    7   20        3       0.628   1.883   0.000  -2.510  -0.000   0.000
   20    7    9   10        3       0.000   0.000   0.000  -0.000  -0.000   0.000
   10    9    7    8        3       0.000   0.000   0.000  -0.000  -0.000   0.000
   10    9    7    4        3       0.000   0.000   0.000  -0.000  -0.000   0.000

[ pairs ]
     1     5    1
     1     6    1
     3     5    1
     1     7    1
     3     6    1
     3     7    1
     2     8    1
     2     9    1
     5     8    1
     6     8    1
     5     9    1
     4    10    1
     3    11    1
     6     9    1
     4    11    1
     3    12    1
     4    12    1
     3    13    1
     2    14    1
     4    13    1
     2    15    1
     8    10    1
     2    16    1
     2    17    1
     6    14    1
     2    18    1
     7    14    1
     6    15    1
     2    19    1
     7    15    1
     6    16    1
     5    17    1
     2    20    1
     7    16    1
     5    18    1
     7    17    1
     5    19    1
     7    18    1
     5    20    1
     4    21    1
     7    19    1
     6    20    1
     4    22    1
     4    23    1
    10    20    1
     9    21    1
     9    22    1
     9    23    1
    20    21    1
    20    22    1
    20    23    1

