LIGPARGEN GENERATED GRO FILE
   36
    1UNK    C00    1   0.100   0.100   0.000
    1UNK    C01    2  -0.052   0.100   0.000
    1UNK    C02    3  -0.113   0.100   0.141
    1UNK    C03    4  -0.077   0.225   0.222
    1UNK    C04    5  -0.265   0.088   0.130
    1UNK    O05    6  -0.339   0.186   0.129
    1UNK    C06    7  -0.324  -0.052   0.120
    1UNK    C07    8  -0.360  -0.105   0.258
    1UNK    C08    9  -0.421  -0.247   0.260
    1UNK    C09   10  -0.553  -0.255   0.181
    1UNK    C0A   11  -0.322  -0.348   0.199
    1UNK    C0B   12  -0.448  -0.288   0.407
    1UNK    C0C   13  -0.550  -0.212   0.487
    1UNK    O0D   14  -0.387  -0.382   0.460
    1UNK    H0E   15   0.138   0.090  -0.102
    1UNK    H0F   16   0.139   0.017   0.059
    1UNK    H0G   17   0.140   0.194   0.040
    1UNK    H0H   18  -0.086   0.011  -0.055
    1UNK    H0I   19  -0.088   0.187  -0.057
    1UNK    H0J   20  -0.077   0.013   0.197
    1UNK    H0K   21  -0.107   0.316   0.169
    1UNK    H0M   22   0.031   0.230   0.240
    1UNK    H0N   23  -0.128   0.224   0.319
    1UNK    H0O   24  -0.251  -0.116   0.069
    1UNK    H0P   25  -0.412  -0.046   0.055
    1UNK    H0Q   26  -0.430  -0.034   0.305
    1UNK    H0R   27  -0.271  -0.103   0.322
    1UNK    H0S   28  -0.537  -0.239   0.074
    1UNK    H0T   29  -0.625  -0.179   0.215
    1UNK    H0U   30  -0.600  -0.353   0.193
    1UNK    H0V   31  -0.305  -0.330   0.092
    1UNK    H0W   32  -0.360  -0.451   0.207
    1UNK    H0X   33  -0.225  -0.345   0.249
    1UNK    H0Y   34  -0.590  -0.126   0.433
    1UNK    H0Z   35  -0.503  -0.175   0.579
    1UNK    H10   36  -0.633  -0.279   0.512
   1.00000   1.00000   1.00000

