
;
; GENERATED BY LigParGen Server
; Jorgensen Lab @ Yale University 
;
[ atomtypes ]
  opls_818  H818     1.0080     0.000    A    2.50000E-01   1.25520E-01
  opls_824  H824     1.0080     0.000    A    2.50000E-01   1.25520E-01
  opls_805  O805    15.9990     0.000    A    2.96000E-01   8.78640E-01
  opls_833  H833     1.0080     0.000    A    2.50000E-01   1.25520E-01
  opls_834  H834     1.0080     0.000    A    2.50000E-01   1.25520E-01
  opls_828  H828     1.0080     0.000    A    2.50000E-01   1.25520E-01
  opls_835  H835     1.0080     0.000    A    2.50000E-01   1.25520E-01
  opls_812  C812    12.0110     0.000    A    3.50000E-01   2.76144E-01
  opls_806  C806    12.0110     0.000    A    3.50000E-01   2.76144E-01
  opls_815  H815     1.0080     0.000    A    2.50000E-01   1.25520E-01
  opls_809  C809    12.0110     0.000    A    3.50000E-01   2.76144E-01
  opls_830  H830     1.0080     0.000    A    2.50000E-01   1.25520E-01
  opls_822  H822     1.0080     0.000    A    2.50000E-01   1.25520E-01
  opls_803  C803    12.0110     0.000    A    3.50000E-01   2.76144E-01
  opls_825  H825     1.0080     0.000    A    2.50000E-01   1.25520E-01
  opls_814  H814     1.0080     0.000    A    2.50000E-01   1.25520E-01
  opls_821  H821     1.0080     0.000    A    2.50000E-01   1.25520E-01
  opls_820  H820     1.0080     0.000    A    2.50000E-01   1.25520E-01
  opls_829  H829     1.0080     0.000    A    2.50000E-01   1.25520E-01
  opls_831  H831     1.0080     0.000    A    2.50000E-01   1.25520E-01
  opls_804  C804    12.0110     0.000    A    3.55000E-01   2.92880E-01
  opls_816  H816     1.0080     0.000    A    2.50000E-01   1.25520E-01
  opls_800  C800    12.0110     0.000    A    3.50000E-01   2.76144E-01
  opls_802  C802    12.0110     0.000    A    3.50000E-01   2.76144E-01
  opls_811  C811    12.0110     0.000    A    3.55000E-01   2.92880E-01
  opls_823  H823     1.0080     0.000    A    2.50000E-01   1.25520E-01
  opls_826  H826     1.0080     0.000    A    2.50000E-01   1.25520E-01
  opls_813  O813    15.9990     0.000    A    2.96000E-01   8.78640E-01
  opls_819  H819     1.0080     0.000    A    2.50000E-01   1.25520E-01
  opls_810  C810    12.0110     0.000    A    3.50000E-01   2.76144E-01
  opls_827  H827     1.0080     0.000    A    2.50000E-01   1.25520E-01
  opls_801  C801    12.0110     0.000    A    3.50000E-01   2.76144E-01
  opls_808  C808    12.0110     0.000    A    3.50000E-01   2.76144E-01
  opls_817  H817     1.0080     0.000    A    2.50000E-01   1.25520E-01
  opls_832  H832     1.0080     0.000    A    2.50000E-01   1.25520E-01
  opls_807  C807    12.0110     0.000    A    3.50000E-01   2.76144E-01
[ moleculetype ]
; Name               nrexcl
UNK                   3
[ atoms ]
;   nr       type  resnr residue  atom   cgnr     charge       mass  
     1   opls_800      1    UNK   C00      1    -0.2371    12.0110 
     2   opls_801      1    UNK   C01      1    -0.1655    12.0110 
     3   opls_802      1    UNK   C02      1    -0.1613    12.0110 
     4   opls_803      1    UNK   C03      1    -0.2297    12.0110 
     5   opls_804      1    UNK   C04      1     0.3631    12.0110 
     6   opls_805      1    UNK   O05      1    -0.4428    15.9990 
     7   opls_806      1    UNK   C06      1    -0.2317    12.0110 
     8   opls_807      1    UNK   C07      1    -0.1496    12.0110 
     9   opls_808      1    UNK   C08      1    -0.0916    12.0110 
    10   opls_809      1    UNK   C09      1    -0.2295    12.0110 
    11   opls_810      1    UNK   C0A      1    -0.2282    12.0110 
    12   opls_811      1    UNK   C0B      1     0.3687    12.0110 
    13   opls_812      1    UNK   C0C      1    -0.2988    12.0110 
    14   opls_813      1    UNK   O0D      1    -0.4489    15.9990 
    15   opls_814      1    UNK   H0E      1     0.0855     1.0080 
    16   opls_815      1    UNK   H0F      1     0.0855     1.0080 
    17   opls_816      1    UNK   H0G      1     0.0855     1.0080 
    18   opls_817      1    UNK   H0H      1     0.0948     1.0080 
    19   opls_818      1    UNK   H0I      1     0.0948     1.0080 
    20   opls_819      1    UNK   H0J      1     0.1161     1.0080 
    21   opls_820      1    UNK   H0K      1     0.0925     1.0080 
    22   opls_821      1    UNK   H0M      1     0.0925     1.0080 
    23   opls_822      1    UNK   H0N      1     0.0925     1.0080 
    24   opls_823      1    UNK   H0O      1     0.1187     1.0080 
    25   opls_824      1    UNK   H0P      1     0.1187     1.0080 
    26   opls_825      1    UNK   H0Q      1     0.1004     1.0080 
    27   opls_826      1    UNK   H0R      1     0.1004     1.0080 
    28   opls_827      1    UNK   H0S      1     0.0913     1.0080 
    29   opls_828      1    UNK   H0T      1     0.0913     1.0080 
    30   opls_829      1    UNK   H0U      1     0.0913     1.0080 
    31   opls_830      1    UNK   H0V      1     0.0926     1.0080 
    32   opls_831      1    UNK   H0W      1     0.0926     1.0080 
    33   opls_832      1    UNK   H0X      2     0.0926     1.0080 
    34   opls_833      1    UNK   H0Y      2     0.1177     1.0080 
    35   opls_834      1    UNK   H0Z      2     0.1177     1.0080 
    36   opls_835      1    UNK   H10      2     0.1177     1.0080 
[ bonds ]
    2     1     1      0.1529 224262.400
    3     2     1      0.1529 224262.400
    4     3     1      0.1529 224262.400
    5     3     1      0.1522 265265.600
    6     5     1      0.1229 476976.000
    7     5     1      0.1522 265265.600
    8     7     1      0.1529 224262.400
    9     8     1      0.1529 224262.400
   10     9     1      0.1529 224262.400
   11     9     1      0.1529 224262.400
   12     9     1      0.1522 265265.600
   13    12     1      0.1522 265265.600
   14    12     1      0.1229 476976.000
   15     1     1      0.1090 284512.000
   16     1     1      0.1090 284512.000
   17     1     1      0.1090 284512.000
   18     2     1      0.1090 284512.000
   19     2     1      0.1090 284512.000
   20     3     1      0.1090 284512.000
   21     4     1      0.1090 284512.000
   22     4     1      0.1090 284512.000
   23     4     1      0.1090 284512.000
   24     7     1      0.1090 284512.000
   25     7     1      0.1090 284512.000
   26     8     1      0.1090 284512.000
   27     8     1      0.1090 284512.000
   28    10     1      0.1090 284512.000
   29    10     1      0.1090 284512.000
   30    10     1      0.1090 284512.000
   31    11     1      0.1090 284512.000
   32    11     1      0.1090 284512.000
   33    11     1      0.1090 284512.000
   34    13     1      0.1090 284512.000
   35    13     1      0.1090 284512.000
   36    13     1      0.1090 284512.000

[ angles ]
;  ai    aj    ak funct            c0            c1            c2            c3 
    1     2     3     1    112.700    488.273
    2     3     4     1    112.700    488.273
    2     3     5     1    111.100    527.184
    3     5     6     1    120.400    669.440
    3     5     7     1    116.000    585.760
    5     7     8     1    111.100    527.184
    7     8     9     1    112.700    488.273
    8     9    10     1    112.700    488.273
    8     9    11     1    112.700    488.273
    8     9    12     1    111.100    527.184
    9    12    13     1    116.000    585.760
    9    12    14     1    120.400    669.440
    2     1    15     1    110.700    313.800
    2     1    16     1    110.700    313.800
    2     1    17     1    110.700    313.800
    1     2    18     1    110.700    313.800
    1     2    19     1    110.700    313.800
    2     3    20     1    110.700    313.800
    3     4    21     1    110.700    313.800
    3     4    22     1    110.700    313.800
    3     4    23     1    110.700    313.800
    5     7    24     1    109.500    292.880
    5     7    25     1    109.500    292.880
    7     8    26     1    110.700    313.800
    7     8    27     1    110.700    313.800
    9    10    28     1    110.700    313.800
    9    10    29     1    110.700    313.800
    9    10    30     1    110.700    313.800
    9    11    31     1    110.700    313.800
    9    11    32     1    110.700    313.800
    9    11    33     1    110.700    313.800
   12    13    34     1    109.500    292.880
   12    13    35     1    109.500    292.880
   12    13    36     1    109.500    292.880
   16     1    17     1    107.800    276.144
    8     7    24     1    110.700    313.800
   13    12    14     1    120.400    669.440
    3     2    18     1    110.700    313.800
    5     3    20     1    109.500    292.880
   18     2    19     1    107.800    276.144
   31    11    32     1    107.800    276.144
   28    10    29     1    107.800    276.144
    6     5     7     1    120.400    669.440
    4     3     5     1    111.100    527.184
   15     1    16     1    107.800    276.144
   32    11    33     1    107.800    276.144
   31    11    33     1    107.800    276.144
    9     8    27     1    110.700    313.800
    8     7    25     1    110.700    313.800
    3     2    19     1    110.700    313.800
   21     4    22     1    107.800    276.144
   34    13    36     1    107.800    276.144
   21     4    23     1    107.800    276.144
   22     4    23     1    107.800    276.144
   15     1    17     1    107.800    276.144
   11     9    12     1    111.100    527.184
   10     9    11     1    112.700    488.273
   35    13    36     1    107.800    276.144
    9     8    26     1    110.700    313.800
   34    13    35     1    107.800    276.144
    4     3    20     1    110.700    313.800
   26     8    27     1    107.800    276.144
   28    10    30     1    107.800    276.144
   24     7    25     1    107.800    276.144
   10     9    12     1    111.100    527.184
   29    10    30     1    107.800    276.144

[ dihedrals ]
; IMPROPER DIHEDRAL ANGLES 
;  ai    aj    ak    al funct            c0            c1            c2            c3            c4            c5
     7     5     3     6    4        180.000     43.932     2  
    14    12     9    13    4        180.000     43.932     2  

[ dihedrals ]
; PROPER DIHEDRAL ANGLES
;  ai    aj    ak    al funct            c0            c1            c2            c3            c4            c5
    5    3    2    1        3      -4.960   6.286   1.310  -2.636  -0.000   0.000
   12    9    8    7        3      -4.960   6.286   1.310  -2.636  -0.000   0.000
   13   12    9   10        3       0.818  -7.906   0.602   6.485  -0.000   0.000
    7    5    3    2        3       0.818  -7.906   0.602   6.485  -0.000   0.000
   13   12    9    8        3       0.818  -7.906   0.602   6.485  -0.000   0.000
    7    5    3    4        3       0.818  -7.906   0.602   6.485  -0.000   0.000
   13   12    9   11        3       0.818  -7.906   0.602   6.485  -0.000   0.000
    8    7    5    3        3       0.818  -7.906   0.602   6.485  -0.000   0.000
    8    7    5    6        3       0.000   0.000   0.000  -0.000  -0.000   0.000
    9    8    7    5        3      -4.960   6.286   1.310  -2.636  -0.000   0.000
   10    9    8    7        3       2.301  -1.464   0.837  -1.674  -0.000   0.000
   11    9    8    7        3       2.301  -1.464   0.837  -1.674  -0.000   0.000
    4    3    2    1        3       2.301  -1.464   0.837  -1.674  -0.000   0.000
   20    3    5    7        3       0.575   1.726   0.000  -2.301  -0.000   0.000
   24    7    5    3        3       0.575   1.726   0.000  -2.301  -0.000   0.000
   36   13   12    9        3       0.575   1.726   0.000  -2.301  -0.000   0.000
   25    7    5    3        3       0.575   1.726   0.000  -2.301  -0.000   0.000
   34   13   12    9        3       0.575   1.726   0.000  -2.301  -0.000   0.000
   35   13   12    9        3       0.575   1.726   0.000  -2.301  -0.000   0.000
   36   13   12   14        3       0.000   0.000   0.000  -0.000  -0.000   0.000
   34   13   12   14        3       0.000   0.000   0.000  -0.000  -0.000   0.000
   20    3    5    6        3       0.000   0.000   0.000  -0.000  -0.000   0.000
   35   13   12   14        3       0.000   0.000   0.000  -0.000  -0.000   0.000
   25    7    5    6        3       0.000   0.000   0.000  -0.000  -0.000   0.000
   24    7    5    6        3       0.000   0.000   0.000  -0.000  -0.000   0.000
   28   10    9   12        3      -0.209  -0.628   0.000   0.837  -0.000   0.000
   31   11    9   12        3      -0.209  -0.628   0.000   0.837  -0.000   0.000
   30   10    9   12        3      -0.209  -0.628   0.000   0.837  -0.000   0.000
   27    8    9   12        3      -0.209  -0.628   0.000   0.837  -0.000   0.000
   26    8    7    5        3      -0.209  -0.628   0.000   0.837  -0.000   0.000
   33   11    9   12        3      -0.209  -0.628   0.000   0.837  -0.000   0.000
   29   10    9   12        3      -0.209  -0.628   0.000   0.837  -0.000   0.000
   32   11    9   12        3      -0.209  -0.628   0.000   0.837  -0.000   0.000
   23    4    3    5        3      -0.209  -0.628   0.000   0.837  -0.000   0.000
   21    4    3    5        3      -0.209  -0.628   0.000   0.837  -0.000   0.000
   18    2    3    5        3      -0.209  -0.628   0.000   0.837  -0.000   0.000
   22    4    3    5        3      -0.209  -0.628   0.000   0.837  -0.000   0.000
   26    8    9   12        3      -0.209  -0.628   0.000   0.837  -0.000   0.000
   27    8    7    5        3      -0.209  -0.628   0.000   0.837  -0.000   0.000
   19    2    3    5        3      -0.209  -0.628   0.000   0.837  -0.000   0.000
   28   10    9   11        3       0.628   1.883   0.000  -2.510  -0.000   0.000
   27    8    9   10        3       0.628   1.883   0.000  -2.510  -0.000   0.000
   29   10    9   11        3       0.628   1.883   0.000  -2.510  -0.000   0.000
   25    7    8    9        3       0.628   1.883   0.000  -2.510  -0.000   0.000
   22    4    3    2        3       0.628   1.883   0.000  -2.510  -0.000   0.000
   33   11    9    8        3       0.628   1.883   0.000  -2.510  -0.000   0.000
   33   11    9   10        3       0.628   1.883   0.000  -2.510  -0.000   0.000
   18    2    3    4        3       0.628   1.883   0.000  -2.510  -0.000   0.000
   31   11    9   10        3       0.628   1.883   0.000  -2.510  -0.000   0.000
   16    1    2    3        3       0.628   1.883   0.000  -2.510  -0.000   0.000
   17    1    2    3        3       0.628   1.883   0.000  -2.510  -0.000   0.000
   30   10    9   11        3       0.628   1.883   0.000  -2.510  -0.000   0.000
   19    2    3    4        3       0.628   1.883   0.000  -2.510  -0.000   0.000
   23    4    3    2        3       0.628   1.883   0.000  -2.510  -0.000   0.000
   26    8    9   11        3       0.628   1.883   0.000  -2.510  -0.000   0.000
   30   10    9    8        3       0.628   1.883   0.000  -2.510  -0.000   0.000
   31   11    9    8        3       0.628   1.883   0.000  -2.510  -0.000   0.000
   27    8    9   11        3       0.628   1.883   0.000  -2.510  -0.000   0.000
   32   11    9    8        3       0.628   1.883   0.000  -2.510  -0.000   0.000
   26    8    9   10        3       0.628   1.883   0.000  -2.510  -0.000   0.000
   21    4    3    2        3       0.628   1.883   0.000  -2.510  -0.000   0.000
   32   11    9   10        3       0.628   1.883   0.000  -2.510  -0.000   0.000
   28   10    9    8        3       0.628   1.883   0.000  -2.510  -0.000   0.000
   20    3    2    1        3       0.628   1.883   0.000  -2.510  -0.000   0.000
   15    1    2    3        3       0.628   1.883   0.000  -2.510  -0.000   0.000
   24    7    8    9        3       0.628   1.883   0.000  -2.510  -0.000   0.000
   29   10    9    8        3       0.628   1.883   0.000  -2.510  -0.000   0.000
   27    8    7   25        3       0.628   1.883   0.000  -2.510  -0.000   0.000
   23    4    3   20        3       0.628   1.883   0.000  -2.510  -0.000   0.000
   18    2    1   16        3       0.628   1.883   0.000  -2.510  -0.000   0.000
   19    2    1   17        3       0.628   1.883   0.000  -2.510  -0.000   0.000
   19    2    1   15        3       0.628   1.883   0.000  -2.510  -0.000   0.000
   22    4    3   20        3       0.628   1.883   0.000  -2.510  -0.000   0.000
   20    3    2   18        3       0.628   1.883   0.000  -2.510  -0.000   0.000
   26    8    7   25        3       0.628   1.883   0.000  -2.510  -0.000   0.000
   18    2    1   17        3       0.628   1.883   0.000  -2.510  -0.000   0.000
   27    8    7   24        3       0.628   1.883   0.000  -2.510  -0.000   0.000
   19    2    1   16        3       0.628   1.883   0.000  -2.510  -0.000   0.000
   26    8    7   24        3       0.628   1.883   0.000  -2.510  -0.000   0.000
   20    3    2   19        3       0.628   1.883   0.000  -2.510  -0.000   0.000
   21    4    3   20        3       0.628   1.883   0.000  -2.510  -0.000   0.000
   18    2    1   15        3       0.628   1.883   0.000  -2.510  -0.000   0.000
   14   12    9   11        3       0.000   0.000   0.000  -0.000  -0.000   0.000
   14   12    9    8        3       0.000   0.000   0.000  -0.000  -0.000   0.000
    6    5    3    4        3       0.000   0.000   0.000  -0.000  -0.000   0.000
    6    5    3    2        3       0.000   0.000   0.000  -0.000  -0.000   0.000
   14   12    9   10        3       0.000   0.000   0.000  -0.000  -0.000   0.000

[ pairs ]
     1     4    1
     1     5    1
     2     6    1
     2     7    1
     4     6    1
     4     7    1
     3     8    1
     6     8    1
     5     9    1
     7    10    1
     7    11    1
     3    15    1
     7    12    1
     3    16    1
     3    17    1
     8    13    1
     1    20    1
     8    14    1
     4    18    1
    10    13    1
     5    18    1
     4    19    1
     2    21    1
    11    13    1
    10    14    1
     5    19    1
     2    22    1
    11    14    1
     2    23    1
     6    20    1
     5    21    1
     7    20    1
     5    22    1
     3    24    1
     5    23    1
     3    25    1
     6    24    1
     6    25    1
     5    26    1
     5    27    1
    15    18    1
     9    24    1
    16    18    1
    15    19    1
     9    25    1
    17    18    1
    16    19    1
    17    19    1
    10    26    1
     8    28    1
    11    26    1
    10    27    1
     8    29    1
    18    20    1
    12    26    1
    11    27    1
     8    30    1
    19    20    1
    12    27    1
    11    28    1
     8    31    1
    12    28    1
    11    29    1
     8    32    1
    20    21    1
    12    29    1
    11    30    1
    10    31    1
     8    33    1
    20    22    1
    12    30    1
    10    32    1
    20    23    1
    12    31    1
    10    33    1
     9    34    1
    12    32    1
     9    35    1
    12    33    1
     9    36    1
    14    34    1
    14    35    1
    24    26    1
    14    36    1
    25    26    1
    24    27    1
    25    27    1

