LIGPARGEN GENERATED GRO FILE
   20
    1UNK    C00    1   0.100   0.100   0.000
    1UNK    C01    2  -0.053   0.100   0.000
    1UNK    C02    3  -0.107   0.100   0.142
    1UNK    F03    4  -0.066   0.213   0.206
    1UNK    F04    5  -0.242   0.103   0.142
    1UNK    C05    6  -0.108   0.213  -0.088
    1UNK    C06    7  -0.241   0.161  -0.142
    1UNK    C07    8  -0.217   0.012  -0.168
    1UNK    C08    9  -0.109  -0.022  -0.068
    1UNK    O09   10  -0.071  -0.136  -0.046
    1UNK    H0A   11   0.139   0.193   0.044
    1UNK    H0B   12   0.140   0.091  -0.102
    1UNK    H0C   13   0.140   0.016   0.058
    1UNK    H0D   14  -0.074   0.013   0.200
    1UNK    H0E   15  -0.041   0.233  -0.172
    1UNK    H0F   16  -0.121   0.307  -0.033
    1UNK    H0G   17  -0.271   0.213  -0.234
    1UNK    H0H   18  -0.321   0.174  -0.069
    1UNK    H0I   19  -0.179  -0.005  -0.269
    1UNK    H0J   20  -0.307  -0.047  -0.149
   1.00000   1.00000   1.00000

