LIGPARGEN GENERATED GRO FILE
   24
    1UNK    C00    1   0.100   0.100   0.000
    1UNK    S01    2  -0.078   0.100   0.000
    1UNK    O02    3  -0.119   0.100   0.139
    1UNK    O03    4  -0.120   0.207  -0.089
    1UNK    C04    5  -0.125  -0.060  -0.070
    1UNK    C05    6  -0.278  -0.077  -0.070
    1UNK    C06    7  -0.347  -0.003  -0.184
    1UNK    C07    8  -0.286  -0.037  -0.320
    1UNK    C08    9  -0.135  -0.015  -0.322
    1UNK    C09   10  -0.065  -0.088  -0.208
    1UNK    H0A   11   0.133   0.189   0.054
    1UNK    H0B   12   0.136   0.104  -0.103
    1UNK    H0C   13   0.136   0.011   0.051
    1UNK    H0D   14  -0.083  -0.132   0.001
    1UNK    H0E   15  -0.321  -0.046   0.025
    1UNK    H0F   16  -0.300  -0.184  -0.081
    1UNK    H0G   17  -0.342   0.105  -0.167
    1UNK    H0H   18  -0.453  -0.029  -0.185
    1UNK    H0I   19  -0.333   0.025  -0.398
    1UNK    H0J   20  -0.308  -0.141  -0.344
    1UNK    H0K   21  -0.113   0.092  -0.316
    1UNK    H0M   22  -0.095  -0.050  -0.417
    1UNK    H0N   23   0.042  -0.067  -0.211
    1UNK    H0O   24  -0.075  -0.196  -0.227
   1.00000   1.00000   1.00000

