
;
; GENERATED BY LigParGen Server
; Jorgensen Lab @ Yale University 
;
[ atomtypes ]
  opls_818  H818     1.0080     0.000    A    2.50000E-01   1.25520E-01
  opls_804  C804    12.0110     0.000    A    3.45000E-01   3.47272E-01
  opls_824  H824     1.0080     0.000    A    2.50000E-01   1.25520E-01
  opls_805  C805    12.0110     0.000    A    3.50000E-01   2.76144E-01
  opls_828  H828     1.0080     0.000    A    2.50000E-01   1.25520E-01
  opls_813  H813     1.0080     0.000    A    2.50000E-01   1.25520E-01
  opls_801  O801    15.9990     0.000    A    2.90000E-01   5.85760E-01
  opls_807  C807    12.0110     0.000    A    3.45000E-01   3.47272E-01
  opls_803  O803    15.9990     0.000    A    2.96000E-01   8.78640E-01
  opls_811  C811    12.0110     0.000    A    3.50000E-01   2.76144E-01
  opls_815  H815     1.0080     0.000    A    2.50000E-01   1.25520E-01
  opls_809  C809    12.0110     0.000    A    3.50000E-01   2.76144E-01
  opls_830  H830     1.0080     0.000    A    2.50000E-01   1.25520E-01
  opls_822  H822     1.0080     0.000    A    2.50000E-01   1.25520E-01
  opls_808  C808    12.0110     0.000    A    3.45000E-01   3.47272E-01
  opls_825  H825     1.0080     0.000    A    2.50000E-01   1.25520E-01
  opls_826  H826     1.0080     0.000    A    2.50000E-01   1.25520E-01
  opls_814  H814     1.0080     0.000    A    2.50000E-01   1.25520E-01
  opls_821  H821     1.0080     0.000    A    2.50000E-01   1.25520E-01
  opls_820  H820     1.0080     0.000    A    2.50000E-01   1.25520E-01
  opls_829  H829     1.0080     0.000    A    2.50000E-01   1.25520E-01
  opls_816  H816     1.0080     0.000    A    2.50000E-01   1.25520E-01
  opls_800  C800    12.0110     0.000    A    3.50000E-01   2.76144E-01
  opls_823  H823     1.0080     0.000    A    2.50000E-01   1.25520E-01
  opls_802  C802    12.0110     0.000    A    3.55000E-01   2.92880E-01
  opls_806  C806    12.0110     0.000    A    3.45000E-01   3.47272E-01
  opls_819  H819     1.0080     0.000    A    2.50000E-01   1.25520E-01
  opls_810  C810    12.0110     0.000    A    3.50000E-01   2.76144E-01
  opls_827  H827     1.0080     0.000    A    2.50000E-01   1.25520E-01
  opls_812  C812    12.0110     0.000    A    3.50000E-01   2.76144E-01
  opls_817  H817     1.0080     0.000    A    2.50000E-01   1.25520E-01
[ moleculetype ]
; Name               nrexcl
UNK                   3
[ atoms ]
;   nr       type  resnr residue  atom   cgnr     charge       mass  
     1   opls_800      1    UNK   C00      1    -0.0578    12.0110 
     2   opls_801      1    UNK   O01      1    -0.3521    15.9990 
     3   opls_802      1    UNK   C02      1      0.438    12.0110 
     4   opls_803      1    UNK   O03      1    -0.4534    15.9990 
     5   opls_804      1    UNK   C04      1    -0.0421    12.0110 
     6   opls_805      1    UNK   C05      1     -0.218    12.0110 
     7   opls_806      1    UNK   C06      1    -0.1863    12.0110 
     8   opls_807      1    UNK   C07      1    -0.1993    12.0110 
     9   opls_808      1    UNK   C08      1    -0.0447    12.0110 
    10   opls_809      1    UNK   C09      1    -0.1669    12.0110 
    11   opls_810      1    UNK   C0A      1    -0.1843    12.0110 
    12   opls_811      1    UNK   C0B      1    -0.1816    12.0110 
    13   opls_812      1    UNK   C0C      1    -0.1653    12.0110 
    14   opls_813      1    UNK   H0D      1     0.1008     1.0080 
    15   opls_814      1    UNK   H0E      1     0.1008     1.0080 
    16   opls_815      1    UNK   H0F      1     0.1008     1.0080 
    17   opls_816      1    UNK   H0G      1     0.0964     1.0080 
    18   opls_817      1    UNK   H0H      1     0.0964     1.0080 
    19   opls_818      1    UNK   H0I      1     0.0964     1.0080 
    20   opls_819      1    UNK   H0J      1     0.1156     1.0080 
    21   opls_820      1    UNK   H0K      1     0.1156     1.0080 
    22   opls_821      1    UNK   H0M      1     0.1045     1.0080 
    23   opls_822      1    UNK   H0N      1     0.1045     1.0080 
    24   opls_823      1    UNK   H0O      1     0.0983     1.0080 
    25   opls_824      1    UNK   H0P      1     0.0983     1.0080 
    26   opls_825      1    UNK   H0Q      1     0.0922     1.0080 
    27   opls_826      1    UNK   H0R      1     0.0922     1.0080 
    28   opls_827      1    UNK   H0S      1     0.0949     1.0080 
    29   opls_828      1    UNK   H0T      1     0.0949     1.0080 
    30   opls_829      1    UNK   H0U      1     0.1056     1.0080 
    31   opls_830      1    UNK   H0V      1     0.1056     1.0080 
[ bonds ]
    2     1     1      0.1410 267776.000
    3     2     1      0.1327 179075.200
    4     3     1      0.1229 476976.000
    5     3     1      0.1522 265265.600
    6     5     1      0.1510 234304.000
    7     5     1      0.1520 217568.000
    8     7     1      0.1520 217568.000
    9     5     1      0.1520 217568.000
   10     9     1      0.1510 234304.000
   11    10     1      0.1529 224262.400
   12    11     1      0.1529 224262.400
   13     9     1      0.1510 234304.000
   14     1     1      0.1090 284512.000
   15     1     1      0.1090 284512.000
   16     1     1      0.1090 284512.000
   17     6     1      0.1090 284512.000
   18     6     1      0.1090 284512.000
   19     6     1      0.1090 284512.000
   20     7     1      0.1088 284512.000
   21     7     1      0.1088 284512.000
   22     8     1      0.1088 284512.000
   23     8     1      0.1088 284512.000
   24    10     1      0.1090 284512.000
   25    10     1      0.1090 284512.000
   26    11     1      0.1090 284512.000
   27    11     1      0.1090 284512.000
   28    12     1      0.1090 284512.000
   29    12     1      0.1090 284512.000
   30    13     1      0.1090 284512.000
   31    13     1      0.1090 284512.000
    9     8     1      0.1520 217568.000
   13    12     1      0.1529 224262.400

[ angles ]
;  ai    aj    ak funct            c0            c1            c2            c3 
    1     2     3     1    116.900    694.544
    2     3     4     1    123.400    694.544
    2     3     5     1    111.400    677.808
    3     5     6     1    111.100    527.184
    3     5     7     1    111.100    527.184
    5     7     8     1     83.000    251.040
    3     5     9     1    111.100    527.184
    5     9    10     1    117.200    313.800
    9    10    11     1    112.700    488.273
   10    11    12     1    112.700    488.273
    5     9    13     1    117.200    313.800
    2     1    14     1    109.500    292.880
    2     1    15     1    109.500    292.880
    2     1    16     1    109.500    292.880
    5     6    17     1    110.700    313.800
    5     6    18     1    110.700    313.800
    5     6    19     1    110.700    313.800
    5     7    20     1    117.200    313.800
    5     7    21     1    117.200    313.800
    7     8    22     1    117.200    313.800
    7     8    23     1    117.200    313.800
    9    10    24     1    110.700    313.800
    9    10    25     1    110.700    313.800
   10    11    26     1    110.700    313.800
   10    11    27     1    110.700    313.800
   11    12    28     1    110.700    313.800
   11    12    29     1    110.700    313.800
    9    13    30     1    110.700    313.800
    9    13    31     1    110.700    313.800
    9    13    12     1    112.700    488.273
   13    12    29     1    110.700    313.800
   14     1    16     1    107.800    276.144
   17     6    18     1    107.800    276.144
   10     9    13     1    114.300    292.880
    8     9    13     1    117.200    313.800
   12    11    27     1    110.700    313.800
   20     7    21     1    114.300    292.880
   12    13    30     1    110.700    313.800
    7     5     9     1     83.000    251.040
   24    10    25     1    107.800    276.144
    4     3     5     1    120.400    669.440
   11    10    25     1    110.700    313.800
   22     8    23     1    114.300    292.880
    6     5     7     1    117.200    313.800
   15     1    16     1    107.800    276.144
   14     1    15     1    107.800    276.144
    8     7    20     1    117.200    313.800
    9     8    22     1    117.200    313.800
   12    13    31     1    110.700    313.800
    9     8    23     1    117.200    313.800
   13    12    28     1    110.700    313.800
    8     7    21     1    117.200    313.800
    6     5     9     1    117.200    313.800
   26    11    27     1    107.800    276.144
   28    12    29     1    107.800    276.144
   11    12    13     1    112.700    488.273
   12    11    26     1    110.700    313.800
    8     9    10     1    117.200    313.800
    5     9     8     1     83.000    251.040
    7     8     9     1     83.000    251.040
   30    13    31     1    107.800    276.144
   17     6    19     1    107.800    276.144
   11    10    24     1    110.700    313.800
   18     6    19     1    107.800    276.144

[ dihedrals ]
; IMPROPER DIHEDRAL ANGLES 
;  ai    aj    ak    al funct            c0            c1            c2            c3            c4            c5
     5     3     2     4    4        180.000     43.932     2  

[ dihedrals ]
; PROPER DIHEDRAL ANGLES
;  ai    aj    ak    al funct            c0            c1            c2            c3            c4            c5
   13   12   11   10        3       2.301  -1.464   0.837  -1.674  -0.000   0.000
   11   12   13    9        3       2.301  -1.464   0.837  -1.674  -0.000   0.000
   12   11   10    9        3       2.301  -1.464   0.837  -1.674  -0.000   0.000
   12   13    9   10        3       2.301  -1.464   0.837  -1.674  -0.000   0.000
   12   13    9    5        3       0.000   0.000   0.000  -0.000  -0.000   0.000
   11   10    9    5        3       0.000   0.000   0.000  -0.000  -0.000   0.000
   11   10    9    8        3       0.000   0.000   0.000  -0.000  -0.000   0.000
   12   13    9    8        3       0.000   0.000   0.000  -0.000  -0.000   0.000
    6    5    3    4        3       0.000   0.000   0.000  -0.000  -0.000   0.000
    6    5    3    2        3      -1.157  -3.471   0.000   4.628  -0.000   0.000
   13    9   10   11        3       2.301  -1.464   0.837  -1.674  -0.000   0.000
   10    9    5    3        3       0.000   0.000   0.000  -0.000  -0.000   0.000
   13    9    5    3        3       0.000   0.000   0.000  -0.000  -0.000   0.000
   10    9    5    6        3       0.000   0.000   0.000  -0.000  -0.000   0.000
   13    9    5    6        3       0.000   0.000   0.000  -0.000  -0.000   0.000
   10    9    5    7        3       0.000   0.000   0.000  -0.000  -0.000   0.000
   13    9    5    7        3       0.000   0.000   0.000  -0.000  -0.000   0.000
   13    9    8    7        3       0.000   0.000   0.000  -0.000  -0.000   0.000
   10    9    8    7        3       0.000   0.000   0.000  -0.000  -0.000   0.000
    5    3    2    1        3      31.206  -9.768  -21.439  -0.000  -0.000   0.000
    9    5    3    4        3       0.000   0.000   0.000  -0.000  -0.000   0.000
    7    5    3    4        3       0.000   0.000   0.000  -0.000  -0.000   0.000
    7    5    3    2        3      -1.157  -3.471   0.000   4.628  -0.000   0.000
    9    5    3    2        3      -1.157  -3.471   0.000   4.628  -0.000   0.000
    8    7    5    3        3       0.000   0.000   0.000  -0.000  -0.000   0.000
    8    9    5    3        3       0.000   0.000   0.000  -0.000  -0.000   0.000
    8    7    5    6        3       0.000   0.000   0.000  -0.000  -0.000   0.000
    8    9    5    6        3       0.000   0.000   0.000  -0.000  -0.000   0.000
   31   13   12   11        3       0.628   1.883   0.000  -2.510  -0.000   0.000
   30   13   12   11        3       0.628   1.883   0.000  -2.510  -0.000   0.000
   24   10   11   12        3       0.628   1.883   0.000  -2.510  -0.000   0.000
   26   11   12   13        3       0.628   1.883   0.000  -2.510  -0.000   0.000
   29   12   11   10        3       0.628   1.883   0.000  -2.510  -0.000   0.000
   27   11   12   13        3       0.628   1.883   0.000  -2.510  -0.000   0.000
   25   10   11   12        3       0.628   1.883   0.000  -2.510  -0.000   0.000
   28   12   11   10        3       0.628   1.883   0.000  -2.510  -0.000   0.000
   26   11   10    9        3       0.628   1.883   0.000  -2.510  -0.000   0.000
   29   12   13    9        3       0.628   1.883   0.000  -2.510  -0.000   0.000
   27   11   10    9        3       0.628   1.883   0.000  -2.510  -0.000   0.000
   28   12   13    9        3       0.628   1.883   0.000  -2.510  -0.000   0.000
   29   12   11   26        3       0.628   1.883   0.000  -2.510  -0.000   0.000
   27   11   10   25        3       0.628   1.883   0.000  -2.510  -0.000   0.000
   31   13   12   29        3       0.628   1.883   0.000  -2.510  -0.000   0.000
   30   13   12   29        3       0.628   1.883   0.000  -2.510  -0.000   0.000
   26   11   10   24        3       0.628   1.883   0.000  -2.510  -0.000   0.000
   28   12   11   26        3       0.628   1.883   0.000  -2.510  -0.000   0.000
   28   12   11   27        3       0.628   1.883   0.000  -2.510  -0.000   0.000
   30   13   12   28        3       0.628   1.883   0.000  -2.510  -0.000   0.000
   27   11   10   24        3       0.628   1.883   0.000  -2.510  -0.000   0.000
   26   11   10   25        3       0.628   1.883   0.000  -2.510  -0.000   0.000
   31   13   12   28        3       0.628   1.883   0.000  -2.510  -0.000   0.000
   29   12   11   27        3       0.628   1.883   0.000  -2.510  -0.000   0.000
   19    6    5    3        3       0.628   1.883   0.000  -2.510  -0.000   0.000
   18    6    5    3        3       0.628   1.883   0.000  -2.510  -0.000   0.000
   17    6    5    3        3       0.628   1.883   0.000  -2.510  -0.000   0.000
   30   13    9   10        3       0.628   1.883   0.000  -2.510  -0.000   0.000
   25   10    9   13        3       0.628   1.883   0.000  -2.510  -0.000   0.000
   31   13    9   10        3       0.628   1.883   0.000  -2.510  -0.000   0.000
   24   10    9   13        3       0.628   1.883   0.000  -2.510  -0.000   0.000
   31   13    9    8        3       0.628   1.883   0.000  -2.510  -0.000   0.000
   24   10    9    8        3       0.628   1.883   0.000  -2.510  -0.000   0.000
   25   10    9    5        3       0.628   1.883   0.000  -2.510  -0.000   0.000
   30   13    9    5        3       0.628   1.883   0.000  -2.510  -0.000   0.000
   18    6    5    9        3       0.628   1.883   0.000  -2.510  -0.000   0.000
   18    6    5    7        3       0.628   1.883   0.000  -2.510  -0.000   0.000
   31   13    9    5        3       0.628   1.883   0.000  -2.510  -0.000   0.000
   19    6    5    9        3       0.628   1.883   0.000  -2.510  -0.000   0.000
   30   13    9    8        3       0.628   1.883   0.000  -2.510  -0.000   0.000
   19    6    5    7        3       0.628   1.883   0.000  -2.510  -0.000   0.000
   25   10    9    8        3       0.628   1.883   0.000  -2.510  -0.000   0.000
   17    6    5    9        3       0.628   1.883   0.000  -2.510  -0.000   0.000
   24   10    9    5        3       0.628   1.883   0.000  -2.510  -0.000   0.000
   17    6    5    7        3       0.628   1.883   0.000  -2.510  -0.000   0.000
   16    1    2    3        3       0.414   1.243   0.000  -1.657  -0.000   0.000
   14    1    2    3        3       0.414   1.243   0.000  -1.657  -0.000   0.000
   15    1    2    3        3       0.414   1.243   0.000  -1.657  -0.000   0.000
   20    7    5    3        3       0.000   0.000   0.000  -0.000  -0.000   0.000
   21    7    5    3        3       0.000   0.000   0.000  -0.000  -0.000   0.000
   21    7    5    6        3       0.000   0.000   0.000  -0.000  -0.000   0.000
   22    8    9   10        3       0.000   0.000   0.000  -0.000  -0.000   0.000
   22    8    9   13        3       0.000   0.000   0.000  -0.000  -0.000   0.000
   23    8    9   10        3       0.000   0.000   0.000  -0.000  -0.000   0.000
   20    7    5    6        3       0.000   0.000   0.000  -0.000  -0.000   0.000
   23    8    9   13        3       0.000   0.000   0.000  -0.000  -0.000   0.000
   23    8    7    5        3       0.000   0.000   0.000  -0.000  -0.000   0.000
   22    8    7    5        3       0.000   0.000   0.000  -0.000  -0.000   0.000
   21    7    8    9        3       0.000   0.000   0.000  -0.000  -0.000   0.000
   22    8    9    5        3       0.000   0.000   0.000  -0.000  -0.000   0.000
   20    7    8    9        3       0.000   0.000   0.000  -0.000  -0.000   0.000
   23    8    9    5        3       0.000   0.000   0.000  -0.000  -0.000   0.000
   21    7    5    9        3       0.000   0.000   0.000  -0.000  -0.000   0.000
   20    7    5    9        3       0.000   0.000   0.000  -0.000  -0.000   0.000
   23    8    7   21        3       0.000   0.000   0.000  -0.000  -0.000   0.000
   22    8    7   21        3       0.000   0.000   0.000  -0.000  -0.000   0.000
   23    8    7   20        3       0.000   0.000   0.000  -0.000  -0.000   0.000
   22    8    7   20        3       0.000   0.000   0.000  -0.000  -0.000   0.000
    4    3    2    1        3      21.439   0.000  -21.439  -0.000  -0.000   0.000

[ pairs ]
     1     4    1
     1     5    1
     2     6    1
     2     7    1
     4     6    1
     4     7    1
     3     8    1
     2     9    1
     4     9    1
     3    10    1
     6     8    1
     6    10    1
     5    11    1
     3    13    1
     7    10    1
     5    12    1
     3    14    1
     3    15    1
     8    11    1
     6    13    1
     3    16    1
     8    12    1
     7    13    1
     3    17    1
     3    18    1
     3    19    1
     3    20    1
     7    17    1
     3    21    1
     7    18    1
     9    17    1
     7    19    1
     6    20    1
     9    18    1
     6    21    1
     5    22    1
     9    19    1
     5    23    1
     9    20    1
     5    24    1
     9    21    1
     5    25    1
    10    22    1
     8    24    1
    10    23    1
     8    25    1
    13    22    1
     9    26    1
     5    30    1
    13    23    1
    12    24    1
     9    27    1
     5    31    1
    13    24    1
    12    25    1
     9    28    1
    13    25    1
    10    28    1
     9    29    1
     8    30    1
    13    26    1
    10    29    1
     8    31    1
    13    27    1
    10    30    1
    11    30    1
    10    31    1
    20    22    1
    11    31    1
    21    22    1
    20    23    1
    21    23    1
    24    26    1
    25    26    1
    24    27    1
    25    27    1
    26    28    1
    27    28    1
    26    29    1
    27    29    1
    28    30    1
    29    30    1
    28    31    1
    29    31    1

