LIGPARGEN GENERATED GRO FILE
   31
    1UNK    C00    1   0.100   0.100   0.000
    1UNK    O01    2  -0.043   0.100   0.000
    1UNK    C02    3  -0.098   0.100   0.126
    1UNK    O03    4  -0.029   0.105   0.227
    1UNK    C04    5  -0.256   0.093   0.122
    1UNK    C05    6  -0.303  -0.038   0.057
    1UNK    C06    7  -0.321   0.116   0.263
    1UNK    C07    8  -0.430   0.200   0.198
    1UNK    C08    9  -0.335   0.224   0.075
    1UNK    C09   10  -0.413   0.226  -0.057
    1UNK    C0A   11  -0.411   0.372  -0.104
    1UNK    C0B   12  -0.355   0.453   0.012
    1UNK    C0C   13  -0.259   0.357   0.080
    1UNK    H0D   14   0.134   0.107  -0.104
    1UNK    H0E   15   0.138   0.007   0.043
    1UNK    H0F   16   0.139   0.186   0.055
    1UNK    H0G   17  -0.265  -0.124   0.113
    1UNK    H0H   18  -0.266  -0.046  -0.046
    1UNK    H0I   19  -0.412  -0.045   0.054
    1UNK    H0J   20  -0.259   0.174   0.332
    1UNK    H0K   21  -0.355   0.026   0.315
    1UNK    H0M   22  -0.461   0.289   0.254
    1UNK    H0N   23  -0.520   0.141   0.176
    1UNK    H0O   24  -0.517   0.192  -0.044
    1UNK    H0P   25  -0.367   0.163  -0.133
    1UNK    H0Q   26  -0.510   0.407  -0.134
    1UNK    H0R   27  -0.345   0.381  -0.192
    1UNK    H0S   28  -0.436   0.482   0.080
    1UNK    H0T   29  -0.305   0.544  -0.022
    1UNK    H0U   30  -0.234   0.389   0.182
    1UNK    H0V   31  -0.166   0.351   0.022
   1.00000   1.00000   1.00000

