
;
; GENERATED BY LigParGen Server
; Jorgensen Lab @ Yale University 
;
[ atomtypes ]
  opls_820  H820     1.0080     0.000    A    2.42000E-01   1.25520E-01
  opls_818  H818     1.0080     0.000    A    2.42000E-01   1.25520E-01
  opls_810  C810    12.0110     0.000    A    3.55000E-01   2.92880E-01
  opls_823  H823     1.0080     0.000    A    2.42000E-01   1.25520E-01
  opls_801  O801    15.9990     0.000    A    2.90000E-01   5.85760E-01
  opls_821  H821     1.0080     0.000    A    2.42000E-01   1.25520E-01
  opls_815  H815     1.0080     0.000    A    2.50000E-01   1.25520E-01
  opls_806  C806    12.0110     0.000    A    3.55000E-01   2.92880E-01
  opls_814  H814     1.0080     0.000    A    2.50000E-01   1.25520E-01
  opls_817  H817     1.0080     0.000    A    2.42000E-01   1.25520E-01
  opls_809  C809    12.0110     0.000    A    3.55000E-01   2.92880E-01
  opls_805  C805    12.0110     0.000    A    3.55000E-01   2.92880E-01
  opls_816  H816     1.0080     0.000    A    2.50000E-01   1.25520E-01
  opls_800  C800    12.0110     0.000    A    3.50000E-01   2.76144E-01
  opls_811  C811    12.0110     0.000    A    3.55000E-01   2.92880E-01
  opls_813  H813     1.0080     0.000    A    0.00000E+00   0.00000E+00
  opls_802  C802    12.0110     0.000    A    3.55000E-01   2.92880E-01
  opls_807  C807    12.0110     0.000    A    3.55000E-01   2.92880E-01
  opls_803  C803    12.0110     0.000    A    3.55000E-01   2.92880E-01
  opls_819  H819     1.0080     0.000    A    2.42000E-01   1.25520E-01
  opls_812  N812    14.0070     0.000    A    3.25000E-01   7.11280E-01
  opls_822  H822     1.0080     0.000    A    2.42000E-01   1.25520E-01
  opls_804  C804    12.0110     0.000    A    3.55000E-01   2.92880E-01
  opls_808  C808    12.0110     0.000    A    3.55000E-01   2.92880E-01
[ moleculetype ]
; Name               nrexcl
UNK                   3
[ atoms ]
;   nr       type  resnr residue  atom   cgnr     charge       mass  
     1   opls_800      1    UNK   C00      1    -0.0332    12.0110 
     2   opls_801      1    UNK   O01      1    -0.2936    15.9990 
     3   opls_802      1    UNK   C02      1     0.2019    12.0110 
     4   opls_803      1    UNK   C03      1    -0.2867    12.0110 
     5   opls_804      1    UNK   C04      1    -0.0861    12.0110 
     6   opls_805      1    UNK   C05      1     0.0128    12.0110 
     7   opls_806      1    UNK   C06      1    -0.1302    12.0110 
     8   opls_807      1    UNK   C07      1    -0.1389    12.0110 
     9   opls_808      1    UNK   C08      1    -0.1447    12.0110 
    10   opls_809      1    UNK   C09      1    -0.1375    12.0110 
    11   opls_810      1    UNK   C0A      1    -0.1338    12.0110 
    12   opls_811      1    UNK   C0B      1      -0.06    12.0110 
    13   opls_812      1    UNK   N0C      1    -0.5496    14.0070 
    14   opls_813      1    UNK   H0D      1     0.4381     1.0080 
    15   opls_814      1    UNK   H0E      1     0.0988     1.0080 
    16   opls_815      1    UNK   H0F      1     0.0988     1.0080 
    17   opls_816      1    UNK   H0G      1     0.0988     1.0080 
    18   opls_817      1    UNK   H0H      1     0.1712     1.0080 
    19   opls_818      1    UNK   H0I      1       0.14     1.0080 
    20   opls_819      1    UNK   H0J      1      0.136     1.0080 
    21   opls_820      1    UNK   H0K      1     0.1349     1.0080 
    22   opls_821      1    UNK   H0M      1     0.1353     1.0080 
    23   opls_822      1    UNK   H0N      1     0.1358     1.0080 
    24   opls_823      1    UNK   H0O      1      0.192     1.0080 
[ bonds ]
    2     1     1      0.1410 267776.000
    3     2     1      0.1360 284512.000
    4     3     1      0.1367 456892.800
    5     4     1      0.1424 392459.200
    6     5     1      0.1460 322168.000
    7     6     1      0.1400 392459.200
    8     7     1      0.1400 392459.200
    9     8     1      0.1400 392459.200
   10     9     1      0.1400 392459.200
   11     6     1      0.1400 392459.200
   12     5     1      0.1367 456892.800
   13     3     1      0.1381 357313.600
   14    13     1      0.1010 363171.200
   15     1     1      0.1090 284512.000
   16     1     1      0.1090 284512.000
   17     1     1      0.1090 284512.000
   18     4     1      0.1080 307105.600
   19     7     1      0.1080 307105.600
   20     8     1      0.1080 307105.600
   21     9     1      0.1080 307105.600
   22    10     1      0.1080 307105.600
   23    11     1      0.1080 307105.600
   24    12     1      0.1080 307105.600
   11    10     1      0.1400 392459.200
   13    12     1      0.1381 357313.600

[ angles ]
;  ai    aj    ak funct            c0            c1            c2            c3 
    1     2     3     1    111.000    627.600
    2     3     4     1    110.600    585.760
    3     4     5     1    107.300    585.760
    4     5     6     1    127.500    585.760
    5     6     7     1    120.000    527.184
    6     7     8     1    120.000    527.184
    7     8     9     1    120.000    527.184
    8     9    10     1    120.000    527.184
    5     6    11     1    120.000    527.184
    4     5    12     1    107.300    585.760
    2     3    13     1    120.360    513.377
    3    13    14     1    120.000    292.880
    2     1    15     1    109.500    292.880
    2     1    16     1    109.500    292.880
    2     1    17     1    109.500    292.880
    3     4    18     1    125.700    292.880
    6     7    19     1    120.000    292.880
    7     8    20     1    120.000    292.880
    8     9    21     1    120.000    292.880
    9    10    22     1    120.000    292.880
    6    11    23     1    120.000    292.880
    5    12    24     1    132.100    292.880
    9     8    20     1    120.000    292.880
   10    11    23     1    120.000    292.880
   12    13    14     1    120.000    292.880
    6    11    10     1    120.000    527.184
    7     6    11     1    120.000    527.184
   13    12    24     1    121.600    292.880
   15     1    16     1    107.800    276.144
    8     7    19     1    120.000    292.880
    6     5    12     1    125.700    585.760
   11    10    22     1    120.000    292.880
   15     1    17     1    107.800    276.144
   16     1    17     1    107.800    276.144
    9    10    11     1    120.000    527.184
    4     3    13     1    107.700    585.760
    5     4    18     1    127.500    292.880
    5    12    13     1    107.700    585.760
   10     9    21     1    120.000    292.880
    3    13    12     1    109.800    585.760

[ dihedrals ]
; IMPROPER DIHEDRAL ANGLES 
;  ai    aj    ak    al funct            c0            c1            c2            c3            c4            c5
    11     6     5     7    4        180.000     10.460     2  
    12     5     4     6    4        180.000     10.460     2  
    14    13     3    12    4        180.000     10.460     2  
    19     7     6     8    4        180.000     10.460     2  
    23    11     6    10    4        180.000     10.460     2  
    22    10     9    11    4        180.000     10.460     2  
    21     9     8    10    4        180.000     10.460     2  
    20     8     7     9    4        180.000     10.460     2  
    18     4     3     5    4        180.000     10.460     2  
    24    12     5    13    4        180.000     10.460     2  
    13     3     2     4    4        180.000     10.460     2  

[ dihedrals ]
; PROPER DIHEDRAL ANGLES
;  ai    aj    ak    al funct            c0            c1            c2            c3            c4            c5
    6    5    4    3        3       9.079   0.000  -9.079  -0.000  -0.000   0.000
   11    6    7    8        3      30.334   0.000  -30.334  -0.000  -0.000   0.000
    7    6    5    4        3       9.079   0.000  -9.079  -0.000  -0.000   0.000
   11    6    5    4        3       9.079   0.000  -9.079  -0.000  -0.000   0.000
   10   11    6    7        3      30.334   0.000  -30.334  -0.000  -0.000   0.000
   10   11    6    5        3      30.334   0.000  -30.334  -0.000  -0.000   0.000
    8    7    6    5        3      30.334   0.000  -30.334  -0.000  -0.000   0.000
    9    8    7    6        3      30.334   0.000  -30.334  -0.000  -0.000   0.000
    9   10   11    6        3      30.334   0.000  -30.334  -0.000  -0.000   0.000
   11   10    9    8        3      30.334   0.000  -30.334  -0.000  -0.000   0.000
   10    9    8    7        3      30.334   0.000  -30.334  -0.000  -0.000   0.000
    5    4    3    2        3       9.079   0.000  -9.079  -0.000  -0.000   0.000
    5   12   13    3        3      20.920   0.000  -20.920  -0.000  -0.000   0.000
    4    3    2    1        3      30.334   0.000  -30.334  -0.000  -0.000   0.000
   12    5    6   11        3       9.079   0.000  -9.079  -0.000  -0.000   0.000
   12    5    6    7        3       9.079   0.000  -9.079  -0.000  -0.000   0.000
   12    5    4    3        3       9.079   0.000  -9.079  -0.000  -0.000   0.000
   12   13    3    4        3      20.920   0.000  -20.920  -0.000  -0.000   0.000
   12   13    3    2        3      -3.138  -3.138   6.276  -0.000  -0.000   0.000
   14   13    3    4        3      20.920   0.000  -20.920  -0.000  -0.000   0.000
   14   13   12    5        3      20.920   0.000  -20.920  -0.000  -0.000   0.000
   14   13    3    2        3      20.920   0.000  -20.920  -0.000  -0.000   0.000
   19    7    6   11        3      30.334   0.000  -30.334  -0.000  -0.000   0.000
   23   11    6    7        3      30.334   0.000  -30.334  -0.000  -0.000   0.000
   23   11    6    5        3      30.334   0.000  -30.334  -0.000  -0.000   0.000
   19    7    6    5        3      30.334   0.000  -30.334  -0.000  -0.000   0.000
   20    8    7    6        3      30.334   0.000  -30.334  -0.000  -0.000   0.000
   22   10   11    6        3      30.334   0.000  -30.334  -0.000  -0.000   0.000
   23   11   10    9        3      30.334   0.000  -30.334  -0.000  -0.000   0.000
   20    8    9   10        3      30.334   0.000  -30.334  -0.000  -0.000   0.000
   21    9   10   11        3      30.334   0.000  -30.334  -0.000  -0.000   0.000
   21    9    8    7        3      30.334   0.000  -30.334  -0.000  -0.000   0.000
   19    7    8    9        3      30.334   0.000  -30.334  -0.000  -0.000   0.000
   22   10    9    8        3      30.334   0.000  -30.334  -0.000  -0.000   0.000
   22   10    9   21        3      30.334   0.000  -30.334  -0.000  -0.000   0.000
   20    8    7   19        3      30.334   0.000  -30.334  -0.000  -0.000   0.000
   23   11   10   22        3      30.334   0.000  -30.334  -0.000  -0.000   0.000
   21    9    8   20        3      30.334   0.000  -30.334  -0.000  -0.000   0.000
   18    4    5    6        3      30.334   0.000  -30.334  -0.000  -0.000   0.000
   18    4    5   12        3      30.334   0.000  -30.334  -0.000  -0.000   0.000
   18    4    3   13        3      30.334   0.000  -30.334  -0.000  -0.000   0.000
   18    4    3    2        3      30.334   0.000  -30.334  -0.000  -0.000   0.000
   24   12    5    6        3      30.334   0.000  -30.334  -0.000  -0.000   0.000
   24   12    5    4        3      30.334   0.000  -30.334  -0.000  -0.000   0.000
   24   12   13    3        3      20.920   0.000  -20.920  -0.000  -0.000   0.000
   24   12   13   14        3      20.920   0.000  -20.920  -0.000  -0.000   0.000
   17    1    2    3        3       1.590   4.770   0.000  -6.360  -0.000   0.000
   15    1    2    3        3       1.590   4.770   0.000  -6.360  -0.000   0.000
   16    1    2    3        3       1.590   4.770   0.000  -6.360  -0.000   0.000
   13   12    5    6        3      30.334   0.000  -30.334  -0.000  -0.000   0.000
   13    3    4    5        3      30.334   0.000  -30.334  -0.000  -0.000   0.000
   13   12    5    4        3      30.334   0.000  -30.334  -0.000  -0.000   0.000
   13    3    2    1        3      -5.230   7.322   6.276  -8.368  -0.000   0.000

[ pairs ]
     1     4    1
     2     5    1
     3     6    1
     4     7    1
     5     8    1
     2    12    1
     1    13    1
     6     9    1
     5    10    1
     4    11    1
     2    14    1
     7    10    1
     4    14    1
     3    15    1
     8    11    1
     7    12    1
     6    13    1
     5    14    1
     3    16    1
     3    17    1
     2    18    1
    11    12    1
     6    18    1
     5    19    1
     6    20    1
     3    24    1
     9    19    1
     7    21    1
     6    22    1
     5    23    1
     4    24    1
    12    18    1
    11    19    1
    10    20    1
     8    22    1
     7    23    1
     6    24    1
    13    18    1
    11    21    1
     9    23    1
    14    24    1
    19    20    1
    20    21    1
    21    22    1
    22    23    1

