LIGPARGEN GENERATED GRO FILE
   26
    1UNK    C00    1   0.100   0.100   0.000
    1UNK    C01    2  -0.052   0.100   0.000
    1UNK    C02    3  -0.112   0.100   0.142
    1UNK    N03    4  -0.232   0.165   0.086
    1UNK    C04    5  -0.279   0.279   0.168
    1UNK    C05    6  -0.274   0.258   0.319
    1UNK    C06    7  -0.212   0.408   0.117
    1UNK    O07    8  -0.126   0.470   0.212
    1UNK    C08    9   0.002   0.456   0.171
    1UNK    O09   10   0.099   0.495   0.234
    1UNK    O0A   11   0.010   0.393   0.051
    1UNK    C0B   12  -0.121   0.369   0.004
    1UNK    C0C   13  -0.148   0.222  -0.025
    1UNK    H0D   14   0.136  -0.004   0.004
    1UNK    H0E   15   0.142   0.151   0.087
    1UNK    H0F   16   0.140   0.146  -0.091
    1UNK    H0G   17  -0.086   0.014  -0.060
    1UNK    H0H   18  -0.052   0.158   0.213
    1UNK    H0I   19  -0.129   0.001   0.184
    1UNK    H0J   20  -0.385   0.288   0.142
    1UNK    H0K   21  -0.172   0.264   0.359
    1UNK    H0M   22  -0.314   0.160   0.346
    1UNK    H0N   23  -0.334   0.334   0.371
    1UNK    H0O   24  -0.288   0.480   0.085
    1UNK    H0P   25  -0.139   0.430  -0.085
    1UNK    H0Q   26  -0.198   0.214  -0.122
   1.00000   1.00000   1.00000

