LIGPARGEN GENERATED GRO FILE
   25
    1UNK    C00    1   0.100   0.100   0.000
    1UNK    C01    2  -0.052   0.100   0.000
    1UNK    C02    3  -0.108   0.100   0.143
    1UNK    C03    4  -0.262   0.100   0.150
    1UNK    F04    5  -0.303   0.215   0.088
    1UNK    C05    6  -0.330  -0.016   0.077
    1UNK    C06    7  -0.296  -0.155   0.130
    1UNK    C07    8  -0.306   0.102   0.297
    1UNK    C08    9  -0.438   0.169   0.329
    1UNK    O09   10  -0.242   0.047   0.387
    1UNK    H0A   11   0.138   0.100  -0.103
    1UNK    H0B   12   0.139   0.011   0.051
    1UNK    H0C   13   0.139   0.189   0.051
    1UNK    H0D   14  -0.086   0.011  -0.054
    1UNK    H0E   15  -0.088   0.188  -0.054
    1UNK    H0F   16  -0.071   0.190   0.194
    1UNK    H0G   17  -0.066   0.015   0.198
    1UNK    H0H   18  -0.306  -0.011  -0.030
    1UNK    H0I   19  -0.439  -0.003   0.082
    1UNK    H0J   20  -0.189  -0.169   0.143
    1UNK    H0K   21  -0.332  -0.231   0.059
    1UNK    H0M   22  -0.346  -0.173   0.226
    1UNK    H0N   23  -0.488   0.203   0.238
    1UNK    H0O   24  -0.419   0.255   0.394
    1UNK    H0P   25  -0.503   0.097   0.379
   1.00000   1.00000   1.00000

