LIGPARGEN GENERATED GRO FILE
   34
    1UNK    C00    1   0.100   0.100   0.000
    1UNK    C01    2  -0.051   0.100   0.000
    1UNK    O02    3  -0.114   0.100   0.106
    1UNK    C03    4  -0.117   0.100  -0.137
    1UNK    C04    5  -0.267   0.109  -0.134
    1UNK    C05    6  -0.339   0.110  -0.266
    1UNK    C06    7  -0.351  -0.010  -0.175
    1UNK    C07    8  -0.484  -0.040  -0.109
    1UNK    C08    9  -0.593  -0.070  -0.214
    1UNK    C09   10  -0.566  -0.217  -0.251
    1UNK    C0A   11  -0.678  -0.281  -0.329
    1UNK    C0B   12  -0.541  -0.278  -0.115
    1UNK    C0C   13  -0.404  -0.292  -0.056
    1UNK    C0D   14  -0.485  -0.168  -0.027
    1UNK    H0E   15   0.137   0.082   0.101
    1UNK    H0F   16   0.136   0.197  -0.035
    1UNK    H0G   17   0.137   0.021  -0.066
    1UNK    H0H   18  -0.085   0.009  -0.189
    1UNK    H0I   19  -0.078   0.186  -0.192
    1UNK    H0J   20  -0.304   0.177  -0.058
    1UNK    H0K   21  -0.283   0.096  -0.358
    1UNK    H0M   22  -0.424   0.177  -0.277
    1UNK    H0N   23  -0.300  -0.099  -0.210
    1UNK    H0O   24  -0.516   0.045  -0.046
    1UNK    H0P   25  -0.591  -0.003  -0.301
    1UNK    H0Q   26  -0.692  -0.061  -0.167
    1UNK    H0R   27  -0.475  -0.222  -0.311
    1UNK    H0S   28  -0.768  -0.294  -0.269
    1UNK    H0T   29  -0.647  -0.379  -0.365
    1UNK    H0U   30  -0.704  -0.220  -0.417
    1UNK    H0V   31  -0.623  -0.337  -0.076
    1UNK    H0W   32  -0.318  -0.288  -0.121
    1UNK    H0X   33  -0.391  -0.363   0.026
    1UNK    H0Y   34  -0.529  -0.156   0.072
   1.00000   1.00000   1.00000

