LIGPARGEN GENERATED GRO FILE
   35
    1UNK    C00    1   0.100   0.100   0.000
    1UNK    C01    2  -0.052   0.100   0.000
    1UNK    C02    3  -0.107   0.100   0.143
    1UNK    C03    4  -0.262   0.100   0.152
    1UNK    C04    5  -0.319  -0.025   0.083
    1UNK    C05    6  -0.311   0.111   0.301
    1UNK    C06    7  -0.260   0.240   0.368
    1UNK    C07    8  -0.465   0.104   0.311
    1UNK    C08    9  -0.522   0.114   0.453
    1UNK    C09   10  -0.674   0.099   0.454
    1UNK    O0A   11  -0.740   0.090   0.351
    1UNK    C0B   12  -0.742   0.105   0.588
    1UNK    C0C   13  -0.699  -0.005   0.674
    1UNK    N0D   14  -0.664  -0.093   0.741
    1UNK    H0E   15   0.138   0.100  -0.103
    1UNK    H0F   16   0.139   0.011   0.050
    1UNK    H0G   17   0.139   0.188   0.051
    1UNK    H0H   18  -0.086   0.012  -0.055
    1UNK    H0I   19  -0.088   0.189  -0.054
    1UNK    H0J   20  -0.067   0.189   0.192
    1UNK    H0K   21  -0.068   0.013   0.198
    1UNK    H0M   22  -0.299   0.188   0.098
    1UNK    H0N   23  -0.289  -0.116   0.136
    1UNK    H0O   24  -0.286  -0.033  -0.021
    1UNK    H0P   25  -0.428  -0.022   0.078
    1UNK    H0Q   26  -0.270   0.027   0.357
    1UNK    H0R   27  -0.297   0.329   0.316
    1UNK    H0S   28  -0.150   0.245   0.370
    1UNK    H0T   29  -0.291   0.247   0.472
    1UNK    H0U   30  -0.500   0.008   0.270
    1UNK    H0V   31  -0.510   0.182   0.248
    1UNK    H0W   32  -0.500   0.211   0.497
    1UNK    H0X   33  -0.478   0.035   0.515
    1UNK    H0Y   34  -0.851   0.101   0.573
    1UNK    H0Z   35  -0.720   0.202   0.634
   1.00000   1.00000   1.00000

