
;
; GENERATED BY LigParGen Server
; Jorgensen Lab @ Yale University 
;
[ atomtypes ]
  opls_818  H818     1.0080     0.000    A    2.50000E-01   1.25520E-01
  opls_824  H824     1.0080     0.000    A    2.50000E-01   1.25520E-01
  opls_805  C805    12.0110     0.000    A    3.50000E-01   2.76144E-01
  opls_813  H813     1.0080     0.000    A    2.50000E-01   1.25520E-01
  opls_803  O803    15.9990     0.000    A    2.96000E-01   8.78640E-01
  opls_806  C806    12.0110     0.000    A    3.50000E-01   2.76144E-01
  opls_815  H815     1.0080     0.000    A    2.50000E-01   1.25520E-01
  opls_801  C801    12.0110     0.000    A    3.50000E-01   2.76144E-01
  opls_822  H822     1.0080     0.000    A    2.50000E-01   1.25520E-01
  opls_814  H814     1.0080     0.000    A    2.50000E-01   1.25520E-01
  opls_821  H821     1.0080     0.000    A    2.50000E-01   1.25520E-01
  opls_820  H820     1.0080     0.000    A    2.50000E-01   1.25520E-01
  opls_811  H811     1.0080     0.000    A    2.50000E-01   1.25520E-01
  opls_816  H816     1.0080     0.000    A    2.50000E-01   1.25520E-01
  opls_800  C800    12.0110     0.000    A    3.50000E-01   2.76144E-01
  opls_823  H823     1.0080     0.000    A    2.50000E-01   1.25520E-01
  opls_802  C802    12.0110     0.000    A    3.55000E-01   2.92880E-01
  opls_819  H819     1.0080     0.000    A    2.50000E-01   1.25520E-01
  opls_804  C804    12.0110     0.000    A    3.50000E-01   2.76144E-01
  opls_807  S807    32.0600     0.000    A    3.60000E-01   1.48532E+00
  opls_809  C809    12.0110     0.000    A    3.50000E-01   2.76144E-01
  opls_808  C808    12.0110     0.000    A    3.50000E-01   2.76144E-01
  opls_817  H817     1.0080     0.000    A    2.50000E-01   1.25520E-01
  opls_812  H812     1.0080     0.000    A    2.50000E-01   1.25520E-01
  opls_810  S810    32.0600     0.000    A    3.60000E-01   1.48532E+00
[ moleculetype ]
; Name               nrexcl
UNK                   3
[ atoms ]
;   nr       type  resnr residue  atom   cgnr     charge       mass  
     1   opls_800      1    UNK   C00      1    -0.2326    12.0110 
     2   opls_801      1    UNK   C01      1    -0.2286    12.0110 
     3   opls_802      1    UNK   C02      1     0.3631    12.0110 
     4   opls_803      1    UNK   O03      1    -0.4373    15.9990 
     5   opls_804      1    UNK   C04      1    -0.1354    12.0110 
     6   opls_805      1    UNK   C05      1    -0.2339    12.0110 
     7   opls_806      1    UNK   C06      1     0.0913    12.0110 
     8   opls_807      1    UNK   S07      1    -0.3494    32.0600 
     9   opls_808      1    UNK   C08      1    -0.0918    12.0110 
    10   opls_809      1    UNK   C09      1    -0.0912    12.0110 
    11   opls_810      1    UNK   S0A      1    -0.3605    32.0600 
    12   opls_811      1    UNK   H0B      1      0.093     1.0080 
    13   opls_812      1    UNK   H0C      1      0.093     1.0080 
    14   opls_813      1    UNK   H0D      1      0.093     1.0080 
    15   opls_814      1    UNK   H0E      1     0.1239     1.0080 
    16   opls_815      1    UNK   H0F      1     0.1239     1.0080 
    17   opls_816      1    UNK   H0G      1     0.1378     1.0080 
    18   opls_817      1    UNK   H0H      1     0.1017     1.0080 
    19   opls_818      1    UNK   H0I      1     0.1017     1.0080 
    20   opls_819      1    UNK   H0J      1     0.1017     1.0080 
    21   opls_820      1    UNK   H0K      1     0.1681     1.0080 
    22   opls_821      1    UNK   H0M      1     0.1451     1.0080 
    23   opls_822      1    UNK   H0N      1     0.1451     1.0080 
    24   opls_823      1    UNK   H0O      1     0.1392     1.0080 
    25   opls_824      1    UNK   H0P      1     0.1392     1.0080 
[ bonds ]
    2     1     1      0.1529 224262.400
    3     2     1      0.1522 265265.600
    4     3     1      0.1229 476976.000
    5     3     1      0.1522 265265.600
    6     5     1      0.1529 224262.400
    7     5     1      0.1529 224262.400
    8     7     1      0.1810 185769.600
    9     8     1      0.1810 185769.600
   10     9     1      0.1529 224262.400
   11     7     1      0.1810 185769.600
   12     1     1      0.1090 284512.000
   13     1     1      0.1090 284512.000
   14     1     1      0.1090 284512.000
   15     2     1      0.1090 284512.000
   16     2     1      0.1090 284512.000
   17     5     1      0.1090 284512.000
   18     6     1      0.1090 284512.000
   19     6     1      0.1090 284512.000
   20     6     1      0.1090 284512.000
   21     7     1      0.1090 284512.000
   22     9     1      0.1090 284512.000
   23     9     1      0.1090 284512.000
   24    10     1      0.1090 284512.000
   25    10     1      0.1090 284512.000
   11    10     1      0.1810 185769.600

[ angles ]
;  ai    aj    ak funct            c0            c1            c2            c3 
    1     2     3     1    111.100    527.184
    2     3     4     1    120.400    669.440
    2     3     5     1    116.000    585.760
    3     5     6     1    111.100    527.184
    3     5     7     1    111.100    527.184
    5     7     8     1    114.700    418.400
    7     8     9     1     98.900    518.816
    8     9    10     1    114.700    418.400
    5     7    11     1    114.700    418.400
    2     1    12     1    110.700    313.800
    2     1    13     1    110.700    313.800
    2     1    14     1    110.700    313.800
    1     2    15     1    110.700    313.800
    1     2    16     1    110.700    313.800
    3     5    17     1    109.500    292.880
    5     6    18     1    110.700    313.800
    5     6    19     1    110.700    313.800
    5     6    20     1    110.700    313.800
    5     7    21     1    110.700    313.800
    8     9    22     1    109.500    292.880
    8     9    23     1    109.500    292.880
    9    10    24     1    110.700    313.800
    9    10    25     1    110.700    313.800
    6     5    17     1    110.700    313.800
   13     1    14     1    107.800    276.144
   10     9    23     1    110.700    313.800
   18     6    19     1    107.800    276.144
    3     2    15     1    109.500    292.880
    8     7    11     1    110.580    432.207
   24    10    25     1    107.800    276.144
   12     1    14     1    107.800    276.144
   22     9    23     1    107.800    276.144
    3     2    16     1    109.500    292.880
   11     7    21     1    109.500    292.880
    4     3     5     1    120.400    669.440
    9    10    11     1    114.700    418.400
    6     5     7     1    112.700    488.273
   12     1    13     1    107.800    276.144
   10     9    22     1    110.700    313.800
   11    10    25     1    109.500    292.880
   19     6    20     1    107.800    276.144
    8     7    21     1    109.500    292.880
    7     5    17     1    110.700    313.800
    7    11    10     1     98.900    518.816
   15     2    16     1    107.800    276.144
   18     6    20     1    107.800    276.144
   11    10    24     1    109.500    292.880

[ dihedrals ]
; IMPROPER DIHEDRAL ANGLES 
;  ai    aj    ak    al funct            c0            c1            c2            c3            c4            c5
     5     3     2     4    4        180.000     43.932     2  

[ dihedrals ]
; PROPER DIHEDRAL ANGLES
;  ai    aj    ak    al funct            c0            c1            c2            c3            c4            c5
    5    3    2    1        3       0.818  -7.906   0.602   6.485  -0.000   0.000
    6    5    3    2        3       0.818  -7.906   0.602   6.485  -0.000   0.000
    7    5    3    2        3       0.818  -7.906   0.602   6.485  -0.000   0.000
    6    5    3    4        3       0.000   0.000   0.000  -0.000  -0.000   0.000
    7    5    3    4        3       0.000   0.000   0.000  -0.000  -0.000   0.000
    9   10   11    7        3       0.941   2.314   2.410  -5.665  -0.000   0.000
   10    9    8    7        3       0.941   2.314   2.410  -5.665  -0.000   0.000
   10   11    7    5        3       0.941   2.314   2.410  -5.665  -0.000   0.000
    9    8    7    5        3       0.941   2.314   2.410  -5.665  -0.000   0.000
   10   11    7    8        3       1.354   4.061   0.000  -5.414  -0.000   0.000
   15    2    3    5        3       0.575   1.726   0.000  -2.301  -0.000   0.000
   16    2    3    5        3       0.575   1.726   0.000  -2.301  -0.000   0.000
   17    5    3    2        3       0.575   1.726   0.000  -2.301  -0.000   0.000
   15    2    3    4        3       0.000   0.000   0.000  -0.000  -0.000   0.000
   16    2    3    4        3       0.000   0.000   0.000  -0.000  -0.000   0.000
   17    5    3    4        3       0.000   0.000   0.000  -0.000  -0.000   0.000
   21    7    5    3        3      -0.209  -0.628   0.000   0.837  -0.000   0.000
   19    6    5    3        3      -0.209  -0.628   0.000   0.837  -0.000   0.000
   12    1    2    3        3      -0.209  -0.628   0.000   0.837  -0.000   0.000
   13    1    2    3        3      -0.209  -0.628   0.000   0.837  -0.000   0.000
   18    6    5    3        3      -0.209  -0.628   0.000   0.837  -0.000   0.000
   20    6    5    3        3      -0.209  -0.628   0.000   0.837  -0.000   0.000
   14    1    2    3        3      -0.209  -0.628   0.000   0.837  -0.000   0.000
   18    6    5    7        3       0.628   1.883   0.000  -2.510  -0.000   0.000
   21    7    5    6        3       0.628   1.883   0.000  -2.510  -0.000   0.000
   20    6    5    7        3       0.628   1.883   0.000  -2.510  -0.000   0.000
   19    6    5    7        3       0.628   1.883   0.000  -2.510  -0.000   0.000
   16    2    1   13        3       0.628   1.883   0.000  -2.510  -0.000   0.000
   25   10    9   22        3       0.628   1.883   0.000  -2.510  -0.000   0.000
   25   10    9   23        3       0.628   1.883   0.000  -2.510  -0.000   0.000
   24   10    9   22        3       0.628   1.883   0.000  -2.510  -0.000   0.000
   18    6    5   17        3       0.628   1.883   0.000  -2.510  -0.000   0.000
   15    2    1   12        3       0.628   1.883   0.000  -2.510  -0.000   0.000
   16    2    1   14        3       0.628   1.883   0.000  -2.510  -0.000   0.000
   24   10    9   23        3       0.628   1.883   0.000  -2.510  -0.000   0.000
   19    6    5   17        3       0.628   1.883   0.000  -2.510  -0.000   0.000
   15    2    1   13        3       0.628   1.883   0.000  -2.510  -0.000   0.000
   15    2    1   14        3       0.628   1.883   0.000  -2.510  -0.000   0.000
   16    2    1   12        3       0.628   1.883   0.000  -2.510  -0.000   0.000
   21    7    5   17        3       0.628   1.883   0.000  -2.510  -0.000   0.000
   20    6    5   17        3       0.628   1.883   0.000  -2.510  -0.000   0.000
   24   10    9    8        3       0.946   2.837   0.000  -3.782  -0.000   0.000
   17    5    7   11        3       0.946   2.837   0.000  -3.782  -0.000   0.000
   25   10    9    8        3       0.946   2.837   0.000  -3.782  -0.000   0.000
   22    9   10   11        3       0.946   2.837   0.000  -3.782  -0.000   0.000
   17    5    7    8        3       0.946   2.837   0.000  -3.782  -0.000   0.000
   23    9   10   11        3       0.946   2.837   0.000  -3.782  -0.000   0.000
   21    7   11   10        3       1.354   4.061   0.000  -5.414  -0.000   0.000
   22    9    8    7        3       1.354   4.061   0.000  -5.414  -0.000   0.000
   23    9    8    7        3       1.354   4.061   0.000  -5.414  -0.000   0.000
   24   10   11    7        3       1.354   4.061   0.000  -5.414  -0.000   0.000
   21    7    8    9        3       1.354   4.061   0.000  -5.414  -0.000   0.000
   25   10   11    7        3       1.354   4.061   0.000  -5.414  -0.000   0.000
    4    3    2    1        3       0.000   0.000   0.000  -0.000  -0.000   0.000
   11    7    5    3        3      -16.259   9.088   7.171  -0.000  -0.000   0.000
    8    7    5    3        3      -16.259   9.088   7.171  -0.000  -0.000   0.000
   11    7    5    6        3       3.425  -3.860   2.594  -2.159  -0.000   0.000
    8    7    5    6        3       3.425  -3.860   2.594  -2.159  -0.000   0.000
   11   10    9    8        3       8.786  -10.878   2.092  -0.000  -0.000   0.000
   11    7    8    9        3       1.354   4.061   0.000  -5.414  -0.000   0.000

[ pairs ]
     1     4    1
     1     5    1
     2     6    1
     2     7    1
     4     6    1
     4     7    1
     3     8    1
     6     8    1
     5     9    1
     3    11    1
     5    10    1
     3    12    1
     3    13    1
     6    11    1
     3    14    1
     4    15    1
     2    17    1
     5    15    1
     4    16    1
     5    16    1
     4    17    1
     3    18    1
     3    19    1
     3    20    1
     3    21    1
     8    17    1
     7    18    1
     7    19    1
    12    15    1
     7    20    1
     6    21    1
    13    15    1
    12    16    1
    11    17    1
    14    15    1
    13    16    1
     7    22    1
    14    16    1
     9    21    1
     7    23    1
    10    21    1
     7    24    1
     8    24    1
     7    25    1
    11    22    1
     8    25    1
    11    23    1
    17    18    1
    17    19    1
    17    20    1
    17    21    1
    22    24    1
    23    24    1
    22    25    1
    23    25    1

