
;
; GENERATED BY LigParGen Server
; Jorgensen Lab @ Yale University 
;
[ atomtypes ]
  opls_818  H818     1.0080     0.000    A    2.50000E-01   1.25520E-01
  opls_805  C805    12.0110     0.000    A    3.45000E-01   3.47272E-01
  opls_804  C804    12.0110     0.000    A    3.50000E-01   2.76144E-01
  opls_824  H824     1.0080     0.000    A    2.50000E-01   1.25520E-01
  opls_808  O808    15.9990     0.000    A    2.96000E-01   8.78640E-01
  opls_828  H828     1.0080     0.000    A    2.50000E-01   1.25520E-01
  opls_813  H813     1.0080     0.000    A    2.50000E-01   1.25520E-01
  opls_807  C807    12.0110     0.000    A    3.75000E-01   4.39320E-01
  opls_811  C811    12.0110     0.000    A    3.50000E-01   2.76144E-01
  opls_815  H815     1.0080     0.000    A    2.50000E-01   1.25520E-01
  opls_812  C812    12.0110     0.000    A    3.50000E-01   2.76144E-01
  opls_830  H830     1.0080     0.000    A    2.50000E-01   1.25520E-01
  opls_802  O802    15.9990     0.000    A    2.96000E-01   8.78640E-01
  opls_822  H822     1.0080     0.000    A    2.50000E-01   1.25520E-01
  opls_803  C803    12.0110     0.000    A    3.50000E-01   2.76144E-01
  opls_825  H825     1.0080     0.000    A    2.50000E-01   1.25520E-01
  opls_826  H826     1.0080     0.000    A    2.50000E-01   1.25520E-01
  opls_814  H814     1.0080     0.000    A    2.50000E-01   1.25520E-01
  opls_821  H821     1.0080     0.000    A    2.50000E-01   1.25520E-01
  opls_820  H820     1.0080     0.000    A    2.50000E-01   1.25520E-01
  opls_801  C801    12.0110     0.000    A    3.55000E-01   2.92880E-01
  opls_829  H829     1.0080     0.000    A    2.50000E-01   1.25520E-01
  opls_816  H816     1.0080     0.000    A    2.50000E-01   1.25520E-01
  opls_800  C800    12.0110     0.000    A    3.50000E-01   2.76144E-01
  opls_823  H823     1.0080     0.000    A    2.50000E-01   1.25520E-01
  opls_806  C806    12.0110     0.000    A    3.45000E-01   3.47272E-01
  opls_819  H819     1.0080     0.000    A    2.50000E-01   1.25520E-01
  opls_810  C810    12.0110     0.000    A    3.50000E-01   2.76144E-01
  opls_827  H827     1.0080     0.000    A    2.50000E-01   1.25520E-01
  opls_817  H817     1.0080     0.000    A    2.50000E-01   1.25520E-01
  opls_809  C809    12.0110     0.000    A    3.45000E-01   3.47272E-01
[ moleculetype ]
; Name               nrexcl
UNK                   3
[ atoms ]
;   nr       type  resnr residue  atom   cgnr     charge       mass  
     1   opls_800      1    UNK   C00      1    -0.3048    12.0110 
     2   opls_801      1    UNK   C01      1     0.3599    12.0110 
     3   opls_802      1    UNK   O02      1    -0.4458    15.9990 
     4   opls_803      1    UNK   C03      1    -0.2358    12.0110 
     5   opls_804      1    UNK   C04      1     -0.158    12.0110 
     6   opls_805      1    UNK   C05      1    -0.1306    12.0110 
     7   opls_806      1    UNK   C06      1    -0.2652    12.0110 
     8   opls_807      1    UNK   C07      1     0.3193    12.0110 
     9   opls_808      1    UNK   O08      1    -0.3575    15.9990 
    10   opls_809      1    UNK   C09      1    -0.1741    12.0110 
    11   opls_810      1    UNK   C0A      1    -0.0974    12.0110 
    12   opls_811      1    UNK   C0B      1    -0.2423    12.0110 
    13   opls_812      1    UNK   C0C      1    -0.2382    12.0110 
    14   opls_813      1    UNK   H0D      1     0.1176     1.0080 
    15   opls_814      1    UNK   H0E      1     0.1176     1.0080 
    16   opls_815      1    UNK   H0F      1     0.1176     1.0080 
    17   opls_816      1    UNK   H0G      1     0.1196     1.0080 
    18   opls_817      1    UNK   H0H      1     0.1196     1.0080 
    19   opls_818      1    UNK   H0I      1     0.1107     1.0080 
    20   opls_819      1    UNK   H0J      1     0.1107     1.0080 
    21   opls_820      1    UNK   H0K      1     0.1179     1.0080 
    22   opls_821      1    UNK   H0M      1     0.1315     1.0080 
    23   opls_822      1    UNK   H0N      1     0.1315     1.0080 
    24   opls_823      1    UNK   H0O      1     0.1475     1.0080 
    25   opls_824      1    UNK   H0P      1     0.1044     1.0080 
    26   opls_825      1    UNK   H0Q      1     0.0901     1.0080 
    27   opls_826      1    UNK   H0R      1     0.0901     1.0080 
    28   opls_827      1    UNK   H0S      1     0.0901     1.0080 
    29   opls_828      1    UNK   H0T      1     0.0847     1.0080 
    30   opls_829      1    UNK   H0U      1     0.0847     1.0080 
    31   opls_830      1    UNK   H0V      1     0.0847     1.0080 
[ bonds ]
    2     1     1      0.1522 265265.600
    3     2     1      0.1229 476976.000
    4     2     1      0.1522 265265.600
    5     4     1      0.1529 224262.400
    6     5     1      0.1510 234304.000
    7     6     1      0.1520 217568.000
    8     7     1      0.1522 265265.600
    9     8     1      0.1229 476976.000
   10     6     1      0.1520 217568.000
   11    10     1      0.1510 234304.000
   12    11     1      0.1529 224262.400
   13    11     1      0.1529 224262.400
   14     1     1      0.1090 284512.000
   15     1     1      0.1090 284512.000
   16     1     1      0.1090 284512.000
   17     4     1      0.1090 284512.000
   18     4     1      0.1090 284512.000
   19     5     1      0.1090 284512.000
   20     5     1      0.1090 284512.000
   21     6     1      0.1088 284512.000
   22     7     1      0.1088 284512.000
   23     7     1      0.1088 284512.000
   24    10     1      0.1088 284512.000
   25    11     1      0.1090 284512.000
   26    12     1      0.1090 284512.000
   27    12     1      0.1090 284512.000
   28    12     1      0.1090 284512.000
   29    13     1      0.1090 284512.000
   30    13     1      0.1090 284512.000
   31    13     1      0.1090 284512.000
   10     8     1      0.1522 265265.600

[ angles ]
;  ai    aj    ak funct            c0            c1            c2            c3 
    1     2     3     1    120.400    669.440
    1     2     4     1    116.000    585.760
    2     4     5     1    111.100    527.184
    4     5     6     1    112.700    488.273
    5     6     7     1    117.200    313.800
    6     7     8     1     85.000    527.184
    7     8     9     1    134.000    669.440
    5     6    10     1    117.200    313.800
    6    10    11     1    117.200    313.800
   10    11    12     1    112.700    488.273
   10    11    13     1    112.700    488.273
    2     1    14     1    109.500    292.880
    2     1    15     1    109.500    292.880
    2     1    16     1    109.500    292.880
    2     4    17     1    109.500    292.880
    2     4    18     1    109.500    292.880
    4     5    19     1    110.700    313.800
    4     5    20     1    110.700    313.800
    5     6    21     1    114.300    292.880
    6     7    22     1    117.200    313.800
    6     7    23     1    117.200    313.800
    6    10    24     1    117.200    313.800
   10    11    25     1    110.700    313.800
   11    12    26     1    110.700    313.800
   11    12    27     1    110.700    313.800
   11    12    28     1    110.700    313.800
   11    13    29     1    110.700    313.800
   11    13    30     1    110.700    313.800
   11    13    31     1    110.700    313.800
   26    12    28     1    107.800    276.144
   26    12    27     1    107.800    276.144
   29    13    31     1    107.800    276.144
    6     5    19     1    110.700    313.800
   22     7    23     1    114.300    292.880
   13    11    25     1    110.700    313.800
   14     1    16     1    107.800    276.144
   17     4    18     1    107.800    276.144
   14     1    15     1    107.800    276.144
    6    10     8     1     85.000    527.184
   27    12    28     1    107.800    276.144
    6     5    20     1    110.700    313.800
    8    10    11     1    111.100    527.184
   10     6    21     1    117.200    313.800
   19     5    20     1    107.800    276.144
   15     1    16     1    107.800    276.144
    3     2     4     1    120.400    669.440
    7     8    10     1    116.000    585.760
   30    13    31     1    107.800    276.144
   29    13    30     1    107.800    276.144
    8     7    22     1    110.000    313.800
   12    11    13     1    112.700    488.273
    8    10    24     1    110.000    313.800
   12    11    25     1    110.700    313.800
    8     7    23     1    110.000    313.800
    5     4    18     1    110.700    313.800
    9     8    10     1    134.000    669.440
    7     6    21     1    117.200    313.800
    7     6    10     1     83.000    251.040
   11    10    24     1    114.300    292.880
    5     4    17     1    110.700    313.800

[ dihedrals ]
; IMPROPER DIHEDRAL ANGLES 
;  ai    aj    ak    al funct            c0            c1            c2            c3            c4            c5
     4     2     1     3    4        180.000     43.932     2  
     9     8    10     7    4        180.000     10.460     2  

[ dihedrals ]
; PROPER DIHEDRAL ANGLES
;  ai    aj    ak    al funct            c0            c1            c2            c3            c4            c5
    8   10    6    5        3       0.000   0.000   0.000  -0.000  -0.000   0.000
    8    7    6    5        3       0.000   0.000   0.000  -0.000  -0.000   0.000
    5    4    2    1        3       0.818  -7.906   0.602   6.485  -0.000   0.000
    5    4    2    3        3       0.000   0.000   0.000  -0.000  -0.000   0.000
   13   11   10    8        3       2.301  -1.464   0.837  -1.674  -0.000   0.000
   12   11   10    8        3       2.301  -1.464   0.837  -1.674  -0.000   0.000
   13   11   10    6        3       0.000   0.000   0.000  -0.000  -0.000   0.000
   12   11   10    6        3       0.000   0.000   0.000  -0.000  -0.000   0.000
   11   10    8    7        3       0.000   0.000   0.000  -0.000  -0.000   0.000
   11   10    8    9        3       0.000   0.000   0.000  -0.000  -0.000   0.000
   11   10    6    5        3       0.000   0.000   0.000  -0.000  -0.000   0.000
   11   10    6    7        3       0.000   0.000   0.000  -0.000  -0.000   0.000
    6    5    4    2        3      -4.960   6.286   1.310  -2.636  -0.000   0.000
   10    6    5    4        3       0.000   0.000   0.000  -0.000  -0.000   0.000
    7    6    5    4        3       0.000   0.000   0.000  -0.000  -0.000   0.000
   16    1    2    4        3       0.575   1.726   0.000  -2.301  -0.000   0.000
   18    4    2    1        3       0.575   1.726   0.000  -2.301  -0.000   0.000
   15    1    2    4        3       0.575   1.726   0.000  -2.301  -0.000   0.000
   14    1    2    4        3       0.575   1.726   0.000  -2.301  -0.000   0.000
   17    4    2    1        3       0.575   1.726   0.000  -2.301  -0.000   0.000
   14    1    2    3        3       0.000   0.000   0.000  -0.000  -0.000   0.000
   16    1    2    3        3       0.000   0.000   0.000  -0.000  -0.000   0.000
   18    4    2    3        3       0.000   0.000   0.000  -0.000  -0.000   0.000
   15    1    2    3        3       0.000   0.000   0.000  -0.000  -0.000   0.000
   17    4    2    3        3       0.000   0.000   0.000  -0.000  -0.000   0.000
   20    5    4    2        3      -0.209  -0.628   0.000   0.837  -0.000   0.000
   19    5    4    2        3      -0.209  -0.628   0.000   0.837  -0.000   0.000
   31   13   11   12        3       0.628   1.883   0.000  -2.510  -0.000   0.000
   29   13   11   12        3       0.628   1.883   0.000  -2.510  -0.000   0.000
   27   12   11   13        3       0.628   1.883   0.000  -2.510  -0.000   0.000
   28   12   11   13        3       0.628   1.883   0.000  -2.510  -0.000   0.000
   30   13   11   12        3       0.628   1.883   0.000  -2.510  -0.000   0.000
   26   12   11   13        3       0.628   1.883   0.000  -2.510  -0.000   0.000
   31   13   11   10        3       0.628   1.883   0.000  -2.510  -0.000   0.000
   26   12   11   10        3       0.628   1.883   0.000  -2.510  -0.000   0.000
   29   13   11   10        3       0.628   1.883   0.000  -2.510  -0.000   0.000
   18    4    5    6        3       0.628   1.883   0.000  -2.510  -0.000   0.000
   17    4    5    6        3       0.628   1.883   0.000  -2.510  -0.000   0.000
   28   12   11   10        3       0.628   1.883   0.000  -2.510  -0.000   0.000
   30   13   11   10        3       0.628   1.883   0.000  -2.510  -0.000   0.000
   27   12   11   10        3       0.628   1.883   0.000  -2.510  -0.000   0.000
   20    5    4   17        3       0.628   1.883   0.000  -2.510  -0.000   0.000
   19    5    4   18        3       0.628   1.883   0.000  -2.510  -0.000   0.000
   31   13   11   25        3       0.628   1.883   0.000  -2.510  -0.000   0.000
   19    5    4   17        3       0.628   1.883   0.000  -2.510  -0.000   0.000
   20    5    4   18        3       0.628   1.883   0.000  -2.510  -0.000   0.000
   28   12   11   25        3       0.628   1.883   0.000  -2.510  -0.000   0.000
   29   13   11   25        3       0.628   1.883   0.000  -2.510  -0.000   0.000
   30   13   11   25        3       0.628   1.883   0.000  -2.510  -0.000   0.000
   26   12   11   25        3       0.628   1.883   0.000  -2.510  -0.000   0.000
   27   12   11   25        3       0.628   1.883   0.000  -2.510  -0.000   0.000
   25   11   10    8        3       0.628   1.883   0.000  -2.510  -0.000   0.000
   20    5    6   10        3       0.628   1.883   0.000  -2.510  -0.000   0.000
   19    5    6   10        3       0.628   1.883   0.000  -2.510  -0.000   0.000
   25   11   10    6        3       0.628   1.883   0.000  -2.510  -0.000   0.000
   19    5    6    7        3       0.628   1.883   0.000  -2.510  -0.000   0.000
   20    5    6    7        3       0.628   1.883   0.000  -2.510  -0.000   0.000
   25   11   10   24        3       0.628   1.883   0.000  -2.510  -0.000   0.000
   22    7    8   10        3       0.000   0.000   0.000  -0.000  -0.000   0.000
   24   10    8    7        3       0.000   0.000   0.000  -0.000  -0.000   0.000
   23    7    8   10        3       0.000   0.000   0.000  -0.000  -0.000   0.000
   22    7    8    9        3       0.000   0.000   0.000  -0.000  -0.000   0.000
   24   10    8    9        3       0.000   0.000   0.000  -0.000  -0.000   0.000
   23    7    8    9        3       0.000   0.000   0.000  -0.000  -0.000   0.000
   24   10   11   13        3       0.628   1.883   0.000  -2.510  -0.000   0.000
   24   10   11   12        3       0.628   1.883   0.000  -2.510  -0.000   0.000
   21    6    5    4        3       0.628   1.883   0.000  -2.510  -0.000   0.000
   21    6    5   20        3       0.628   1.883   0.000  -2.510  -0.000   0.000
   21    6    5   19        3       0.628   1.883   0.000  -2.510  -0.000   0.000
   21    6    7    8        3       0.000   0.000   0.000  -0.000  -0.000   0.000
   21    6   10    8        3       0.000   0.000   0.000  -0.000  -0.000   0.000
   24   10    6    5        3       0.000   0.000   0.000  -0.000  -0.000   0.000
   22    7    6    5        3       0.000   0.000   0.000  -0.000  -0.000   0.000
   23    7    6    5        3       0.000   0.000   0.000  -0.000  -0.000   0.000
   21    6   10   11        3       0.000   0.000   0.000  -0.000  -0.000   0.000
   22    7    6   10        3       0.000   0.000   0.000  -0.000  -0.000   0.000
   23    7    6   10        3       0.000   0.000   0.000  -0.000  -0.000   0.000
   24   10    6    7        3       0.000   0.000   0.000  -0.000  -0.000   0.000
   24   10    6   21        3       0.000   0.000   0.000  -0.000  -0.000   0.000
   22    7    6   21        3       0.000   0.000   0.000  -0.000  -0.000   0.000
   23    7    6   21        3       0.000   0.000   0.000  -0.000  -0.000   0.000
    9    8   10    6        3       0.000   0.000   0.000  -0.000  -0.000   0.000
    9    8    7    6        3       0.000   0.000   0.000  -0.000  -0.000   0.000

[ pairs ]
     1     5    1
     3     5    1
     2     6    1
     4     7    1
     5     8    1
     4    10    1
     6     9    1
     5    11    1
     3    14    1
     7    11    1
     6    12    1
     4    14    1
     3    15    1
     1    17    1
     6    13    1
     4    15    1
     3    16    1
     1    18    1
     9    11    1
     8    12    1
     4    16    1
     3    17    1
     8    13    1
     3    18    1
     2    19    1
     2    20    1
     6    17    1
     6    18    1
     4    21    1
     7    19    1
     7    20    1
     5    22    1
     5    23    1
    10    19    1
     8    21    1
     5    24    1
    10    20    1
     9    22    1
     7    24    1
     6    25    1
    11    21    1
    10    22    1
     9    23    1
    10    23    1
     9    24    1
     8    25    1
    17    19    1
    12    24    1
    10    26    1
    18    19    1
    17    20    1
    13    24    1
    10    27    1
    18    20    1
    10    28    1
    13    26    1
    10    29    1
    19    21    1
    13    27    1
    10    30    1
    20    21    1
    13    28    1
    12    29    1
    10    31    1
    12    30    1
    21    22    1
    12    31    1
    21    23    1
    21    24    1
    24    25    1
    25    26    1
    25    27    1
    25    28    1
    25    29    1
    25    30    1
    25    31    1

