
;
; GENERATED BY LigParGen Server
; Jorgensen Lab @ Yale University 
;
[ atomtypes ]
  opls_818  H818     1.0080     0.000    A    2.50000E-01   1.25520E-01
  opls_804  C804    12.0110     0.000    A    3.45000E-01   3.47272E-01
  opls_824  H824     1.0080     0.000    A    2.50000E-01   1.25520E-01
  opls_802  C802    12.0110     0.000    A    3.45000E-01   3.47272E-01
  opls_828  H828     1.0080     0.000    A    2.50000E-01   1.25520E-01
  opls_813  H813     1.0080     0.000    A    2.50000E-01   1.25520E-01
  opls_803  C803    12.0110     0.000    A    3.45000E-01   3.47272E-01
  opls_806  C806    12.0110     0.000    A    3.50000E-01   2.76144E-01
  opls_815  H815     1.0080     0.000    A    2.50000E-01   1.25520E-01
  opls_801  C801    12.0110     0.000    A    3.50000E-01   2.76144E-01
  opls_822  H822     1.0080     0.000    A    2.50000E-01   1.25520E-01
  opls_807  C807    12.0110     0.000    A    3.50000E-01   2.76144E-01
  opls_825  H825     1.0080     0.000    A    2.50000E-01   1.25520E-01
  opls_826  H826     1.0080     0.000    A    2.50000E-01   1.25520E-01
  opls_814  H814     1.0080     0.000    A    2.50000E-01   1.25520E-01
  opls_810  O810    15.9990     0.000    A    2.96000E-01   8.78640E-01
  opls_821  H821     1.0080     0.000    A    2.50000E-01   1.25520E-01
  opls_820  H820     1.0080     0.000    A    2.50000E-01   1.25520E-01
  opls_809  C809    12.0110     0.000    A    3.55000E-01   2.92880E-01
  opls_829  H829     1.0080     0.000    A    2.50000E-01   1.25520E-01
  opls_816  H816     1.0080     0.000    A    2.50000E-01   1.25520E-01
  opls_800  C800    12.0110     0.000    A    3.50000E-01   2.76144E-01
  opls_823  H823     1.0080     0.000    A    2.50000E-01   1.25520E-01
  opls_811  C811    12.0110     0.000    A    3.45000E-01   3.47272E-01
  opls_819  H819     1.0080     0.000    A    2.50000E-01   1.25520E-01
  opls_805  C805    12.0110     0.000    A    3.50000E-01   2.76144E-01
  opls_827  H827     1.0080     0.000    A    2.50000E-01   1.25520E-01
  opls_808  C808    12.0110     0.000    A    3.50000E-01   2.76144E-01
  opls_817  H817     1.0080     0.000    A    2.50000E-01   1.25520E-01
  opls_812  H812     1.0080     0.000    A    2.50000E-01   1.25520E-01
[ moleculetype ]
; Name               nrexcl
UNK                   3
[ atoms ]
;   nr       type  resnr residue  atom   cgnr     charge       mass  
     1   opls_800      1    UNK   C00      1    -0.2413    12.0110 
     2   opls_801      1    UNK   C01      1    -0.1551    12.0110 
     3   opls_802      1    UNK   C02      1    -0.1116    12.0110 
     4   opls_803      1    UNK   C03      1    -0.1085    12.0110 
     5   opls_804      1    UNK   C04      1    -0.2008    12.0110 
     6   opls_805      1    UNK   C05      1    -0.1234    12.0110 
     7   opls_806      1    UNK   C06      1    -0.1755    12.0110 
     8   opls_807      1    UNK   C07      1     -0.156    12.0110 
     9   opls_808      1    UNK   C08      1    -0.2095    12.0110 
    10   opls_809      1    UNK   C09      1     0.3919    12.0110 
    11   opls_810      1    UNK   O0A      1    -0.4525    15.9990 
    12   opls_811      1    UNK   C0B      1    -0.2016    12.0110 
    13   opls_812      1    UNK   H0C      1     0.0858     1.0080 
    14   opls_813      1    UNK   H0D      1     0.0858     1.0080 
    15   opls_814      1    UNK   H0E      1     0.0858     1.0080 
    16   opls_815      1    UNK   H0F      1     0.0943     1.0080 
    17   opls_816      1    UNK   H0G      1     0.0943     1.0080 
    18   opls_817      1    UNK   H0H      1     0.1066     1.0080 
    19   opls_818      1    UNK   H0I      1     0.1066     1.0080 
    20   opls_819      1    UNK   H0J      1     0.1017     1.0080 
    21   opls_820      1    UNK   H0K      1      0.089     1.0080 
    22   opls_821      1    UNK   H0M      1      0.089     1.0080 
    23   opls_822      1    UNK   H0N      1     0.0875     1.0080 
    24   opls_823      1    UNK   H0O      1     0.0875     1.0080 
    25   opls_824      1    UNK   H0P      1     0.0918     1.0080 
    26   opls_825      1    UNK   H0Q      1     0.0918     1.0080 
    27   opls_826      1    UNK   H0R      1     0.1166     1.0080 
    28   opls_827      1    UNK   H0S      1     0.1166     1.0080 
    29   opls_828      1    UNK   H0T      1     0.1066     1.0080 
    30   opls_829      1    UNK   H0U      1     0.1066     1.0080 
[ bonds ]
    2     1     1      0.1529 224262.400
    3     2     1      0.1510 234304.000
    4     3     1      0.1520 217568.000
    5     4     1      0.1520 217568.000
    6     5     1      0.1510 234304.000
    7     6     1      0.1529 224262.400
    8     7     1      0.1529 224262.400
    9     8     1      0.1529 224262.400
   10     3     1      0.1522 265265.600
   11    10     1      0.1229 476976.000
   12     3     1      0.1520 217568.000
   13     1     1      0.1090 284512.000
   14     1     1      0.1090 284512.000
   15     1     1      0.1090 284512.000
   16     2     1      0.1090 284512.000
   17     2     1      0.1090 284512.000
   18     4     1      0.1088 284512.000
   19     4     1      0.1088 284512.000
   20     5     1      0.1088 284512.000
   21     6     1      0.1090 284512.000
   22     6     1      0.1090 284512.000
   23     7     1      0.1090 284512.000
   24     7     1      0.1090 284512.000
   25     8     1      0.1090 284512.000
   26     8     1      0.1090 284512.000
   27     9     1      0.1090 284512.000
   28     9     1      0.1090 284512.000
   29    12     1      0.1088 284512.000
   30    12     1      0.1088 284512.000
   12     5     1      0.1520 217568.000
   10     9     1      0.1522 265265.600

[ angles ]
;  ai    aj    ak funct            c0            c1            c2            c3 
    1     2     3     1    112.700    488.273
    2     3     4     1    117.200    313.800
    3     4     5     1     83.000    251.040
    4     5     6     1    117.200    313.800
    5     6     7     1    112.700    488.273
    6     7     8     1    112.700    488.273
    7     8     9     1    112.700    488.273
    2     3    10     1    111.100    527.184
    3    10    11     1    120.400    669.440
    2     3    12     1    117.200    313.800
    2     1    13     1    110.700    313.800
    2     1    14     1    110.700    313.800
    2     1    15     1    110.700    313.800
    1     2    16     1    110.700    313.800
    1     2    17     1    110.700    313.800
    3     4    18     1    117.200    313.800
    3     4    19     1    117.200    313.800
    4     5    20     1    117.200    313.800
    5     6    21     1    110.700    313.800
    5     6    22     1    110.700    313.800
    6     7    23     1    110.700    313.800
    6     7    24     1    110.700    313.800
    7     8    25     1    110.700    313.800
    7     8    26     1    110.700    313.800
    8     9    27     1    110.700    313.800
    8     9    28     1    110.700    313.800
    3    12    29     1    117.200    313.800
    3    12    30     1    117.200    313.800
   23     7    24     1    107.800    276.144
   10     3    12     1    111.100    527.184
    3    12     5     1     83.000    251.040
    9     8    25     1    110.700    313.800
   13     1    14     1    107.800    276.144
   10     9    28     1    109.500    292.880
    7     6    22     1    110.700    313.800
   21     6    22     1    107.800    276.144
    3     2    17     1    110.700    313.800
   25     8    26     1    107.800    276.144
    4     3    10     1    111.100    527.184
   27     9    28     1    107.800    276.144
    3     2    16     1    110.700    313.800
    8     7    23     1    110.700    313.800
   14     1    15     1    107.800    276.144
   16     2    17     1    107.800    276.144
    6     5    20     1    114.300    292.880
    5     4    19     1    117.200    313.800
    6     5    12     1    117.200    313.800
   10     9    27     1    109.500    292.880
    3    10     9     1    116.000    585.760
    4     5    12     1     83.000    251.040
   12     5    20     1    117.200    313.800
    4     3    12     1     83.000    251.040
    9    10    11     1    120.400    669.440
    9     8    26     1    110.700    313.800
    5    12    29     1    117.200    313.800
    8     7    24     1    110.700    313.800
    8     9    10     1    111.100    527.184
    5     4    18     1    117.200    313.800
   13     1    15     1    107.800    276.144
   18     4    19     1    114.300    292.880
    7     6    21     1    110.700    313.800
    5    12    30     1    117.200    313.800
   29    12    30     1    114.300    292.880

[ dihedrals ]
; IMPROPER DIHEDRAL ANGLES 
;  ai    aj    ak    al funct            c0            c1            c2            c3            c4            c5
    11    10     3     9    4        180.000     43.932     2  

[ dihedrals ]
; PROPER DIHEDRAL ANGLES
;  ai    aj    ak    al funct            c0            c1            c2            c3            c4            c5
   10    9    8    7        3      -4.960   6.286   1.310  -2.636  -0.000   0.000
   10    3    2    1        3      -4.960   6.286   1.310  -2.636  -0.000   0.000
   10    3    4    5        3       0.000   0.000   0.000  -0.000  -0.000   0.000
   10    3   12    5        3       0.000   0.000   0.000  -0.000  -0.000   0.000
    9   10    3    2        3       0.818  -7.906   0.602   6.485  -0.000   0.000
    9   10    3    4        3       0.000   0.000   0.000  -0.000  -0.000   0.000
    8    9   10    3        3       0.000   0.000   0.000  -0.000  -0.000   0.000
    9    8    7    6        3       2.301  -1.464   0.837  -1.674  -0.000   0.000
    8    7    6    5        3       2.301  -1.464   0.837  -1.674  -0.000   0.000
    7    6    5    4        3       0.000   0.000   0.000  -0.000  -0.000   0.000
    6    5   12    3        3       0.000   0.000   0.000  -0.000  -0.000   0.000
    6    5    4    3        3       0.000   0.000   0.000  -0.000  -0.000   0.000
   12    3   10    9        3       0.000   0.000   0.000  -0.000  -0.000   0.000
   12    3   10   11        3       0.000   0.000   0.000  -0.000  -0.000   0.000
   12    3    2    1        3       0.000   0.000   0.000  -0.000  -0.000   0.000
    4    3    2    1        3       0.000   0.000   0.000  -0.000  -0.000   0.000
   12    5    6    7        3       0.000   0.000   0.000  -0.000  -0.000   0.000
    5   12    3    2        3       0.000   0.000   0.000  -0.000  -0.000   0.000
    5    4    3    2        3       0.000   0.000   0.000  -0.000  -0.000   0.000
   28    9   10    3        3       0.575   1.726   0.000  -2.301  -0.000   0.000
   27    9   10    3        3       0.575   1.726   0.000  -2.301  -0.000   0.000
   28    9   10   11        3       0.000   0.000   0.000  -0.000  -0.000   0.000
   27    9   10   11        3       0.000   0.000   0.000  -0.000  -0.000   0.000
   25    8    9   10        3      -0.209  -0.628   0.000   0.837  -0.000   0.000
   26    8    9   10        3      -0.209  -0.628   0.000   0.837  -0.000   0.000
   22    6    7    8        3       0.628   1.883   0.000  -2.510  -0.000   0.000
   27    9    8    7        3       0.628   1.883   0.000  -2.510  -0.000   0.000
   25    8    7    6        3       0.628   1.883   0.000  -2.510  -0.000   0.000
   28    9    8    7        3       0.628   1.883   0.000  -2.510  -0.000   0.000
   21    6    7    8        3       0.628   1.883   0.000  -2.510  -0.000   0.000
   24    7    8    9        3       0.628   1.883   0.000  -2.510  -0.000   0.000
   23    7    8    9        3       0.628   1.883   0.000  -2.510  -0.000   0.000
   26    8    7    6        3       0.628   1.883   0.000  -2.510  -0.000   0.000
   13    1    2    3        3       0.628   1.883   0.000  -2.510  -0.000   0.000
   24    7    6    5        3       0.628   1.883   0.000  -2.510  -0.000   0.000
   23    7    6    5        3       0.628   1.883   0.000  -2.510  -0.000   0.000
   14    1    2    3        3       0.628   1.883   0.000  -2.510  -0.000   0.000
   15    1    2    3        3       0.628   1.883   0.000  -2.510  -0.000   0.000
   24    7    6   22        3       0.628   1.883   0.000  -2.510  -0.000   0.000
   26    8    7   23        3       0.628   1.883   0.000  -2.510  -0.000   0.000
   23    7    6   22        3       0.628   1.883   0.000  -2.510  -0.000   0.000
   24    7    6   21        3       0.628   1.883   0.000  -2.510  -0.000   0.000
   17    2    1   13        3       0.628   1.883   0.000  -2.510  -0.000   0.000
   16    2    1   14        3       0.628   1.883   0.000  -2.510  -0.000   0.000
   28    9    8   26        3       0.628   1.883   0.000  -2.510  -0.000   0.000
   28    9    8   25        3       0.628   1.883   0.000  -2.510  -0.000   0.000
   27    9    8   26        3       0.628   1.883   0.000  -2.510  -0.000   0.000
   26    8    7   24        3       0.628   1.883   0.000  -2.510  -0.000   0.000
   17    2    1   15        3       0.628   1.883   0.000  -2.510  -0.000   0.000
   25    8    7   24        3       0.628   1.883   0.000  -2.510  -0.000   0.000
   17    2    1   14        3       0.628   1.883   0.000  -2.510  -0.000   0.000
   16    2    1   13        3       0.628   1.883   0.000  -2.510  -0.000   0.000
   25    8    7   23        3       0.628   1.883   0.000  -2.510  -0.000   0.000
   27    9    8   25        3       0.628   1.883   0.000  -2.510  -0.000   0.000
   23    7    6   21        3       0.628   1.883   0.000  -2.510  -0.000   0.000
   16    2    1   15        3       0.628   1.883   0.000  -2.510  -0.000   0.000
   16    2    3   10        3       0.628   1.883   0.000  -2.510  -0.000   0.000
   17    2    3   10        3       0.628   1.883   0.000  -2.510  -0.000   0.000
   22    6    5    4        3       0.628   1.883   0.000  -2.510  -0.000   0.000
   21    6    5   12        3       0.628   1.883   0.000  -2.510  -0.000   0.000
   16    2    3   12        3       0.628   1.883   0.000  -2.510  -0.000   0.000
   17    2    3    4        3       0.628   1.883   0.000  -2.510  -0.000   0.000
   22    6    5   12        3       0.628   1.883   0.000  -2.510  -0.000   0.000
   21    6    5    4        3       0.628   1.883   0.000  -2.510  -0.000   0.000
   17    2    3   12        3       0.628   1.883   0.000  -2.510  -0.000   0.000
   16    2    3    4        3       0.628   1.883   0.000  -2.510  -0.000   0.000
   21    6    5   20        3       0.628   1.883   0.000  -2.510  -0.000   0.000
   22    6    5   20        3       0.628   1.883   0.000  -2.510  -0.000   0.000
   20    5    6    7        3       0.628   1.883   0.000  -2.510  -0.000   0.000
   19    4    3   10        3       0.000   0.000   0.000  -0.000  -0.000   0.000
   18    4    3   10        3       0.000   0.000   0.000  -0.000  -0.000   0.000
   30   12    3   10        3       0.000   0.000   0.000  -0.000  -0.000   0.000
   29   12    3   10        3       0.000   0.000   0.000  -0.000  -0.000   0.000
   18    4    5    6        3       0.000   0.000   0.000  -0.000  -0.000   0.000
   30   12    5    6        3       0.000   0.000   0.000  -0.000  -0.000   0.000
   29   12    5    6        3       0.000   0.000   0.000  -0.000  -0.000   0.000
   19    4    3    2        3       0.000   0.000   0.000  -0.000  -0.000   0.000
   30   12    3    2        3       0.000   0.000   0.000  -0.000  -0.000   0.000
   19    4    5    6        3       0.000   0.000   0.000  -0.000  -0.000   0.000
   18    4    3    2        3       0.000   0.000   0.000  -0.000  -0.000   0.000
   29   12    3    2        3       0.000   0.000   0.000  -0.000  -0.000   0.000
   18    4    3   12        3       0.000   0.000   0.000  -0.000  -0.000   0.000
   20    5   12    3        3       0.000   0.000   0.000  -0.000  -0.000   0.000
   29   12    5    4        3       0.000   0.000   0.000  -0.000  -0.000   0.000
   19    4    3   12        3       0.000   0.000   0.000  -0.000  -0.000   0.000
   30   12    3    4        3       0.000   0.000   0.000  -0.000  -0.000   0.000
   19    4    5   12        3       0.000   0.000   0.000  -0.000  -0.000   0.000
   20    5    4    3        3       0.000   0.000   0.000  -0.000  -0.000   0.000
   29   12    3    4        3       0.000   0.000   0.000  -0.000  -0.000   0.000
   30   12    5    4        3       0.000   0.000   0.000  -0.000  -0.000   0.000
   18    4    5   12        3       0.000   0.000   0.000  -0.000  -0.000   0.000
   20    5    4   19        3       0.000   0.000   0.000  -0.000  -0.000   0.000
   20    5    4   18        3       0.000   0.000   0.000  -0.000  -0.000   0.000
   29   12    5   20        3       0.000   0.000   0.000  -0.000  -0.000   0.000
   30   12    5   20        3       0.000   0.000   0.000  -0.000  -0.000   0.000
   11   10    9    8        3       0.000   0.000   0.000  -0.000  -0.000   0.000
   11   10    3    2        3       0.000   0.000   0.000  -0.000  -0.000   0.000
   11   10    3    4        3       0.000   0.000   0.000  -0.000  -0.000   0.000

[ pairs ]
     1     4    1
     2     5    1
     3     6    1
     4     7    1
     3     8    1
     2     9    1
     1    10    1
     5     8    1
     4     9    1
     2    11    1
     1    12    1
     6     9    1
     5    10    1
     4    11    1
     3    13    1
     7    10    1
     3    14    1
     3    15    1
     8    11    1
     7    12    1
     4    16    1
     2    18    1
     9    12    1
     4    17    1
     2    19    1
    11    12    1
     3    20    1
     6    18    1
     6    19    1
     4    21    1
    10    16    1
     4    22    1
    10    17    1
     7    20    1
    12    16    1
    10    18    1
     5    23    1
    13    16    1
    12    17    1
    10    19    1
     8    21    1
     5    24    1
    14    16    1
    13    17    1
    12    18    1
     8    22    1
     3    27    1
    15    16    1
    14    17    1
    12    19    1
     6    25    1
     3    28    1
     2    29    1
    15    17    1
     9    23    1
     6    26    1
     2    30    1
    12    21    1
     9    24    1
     4    29    1
    12    22    1
     7    27    1
     4    30    1
    10    25    1
     7    28    1
     6    29    1
    10    26    1
     6    30    1
    18    20    1
    11    27    1
    19    20    1
    11    28    1
    10    29    1
    10    30    1
    20    21    1
    20    22    1
    21    23    1
    22    23    1
    21    24    1
    22    24    1
    23    25    1
    24    25    1
    23    26    1
    20    29    1
    24    26    1
    20    30    1
    25    27    1
    26    27    1
    25    28    1
    26    28    1

