LIGPARGEN GENERATED GRO FILE
   38
    1UNK    C00    1   0.100   0.100   0.000
    1UNK    O01    2  -0.042   0.100   0.000
    1UNK    C02    3  -0.095   0.100   0.133
    1UNK    C03    4  -0.248   0.124   0.126
    1UNK    C04    5  -0.318   0.012   0.049
    1UNK    C05    6  -0.412   0.038  -0.067
    1UNK    C06    7  -0.440   0.173  -0.125
    1UNK    C07    8  -0.468  -0.010   0.065
    1UNK    C08    9  -0.545   0.070   0.168
    1UNK    C09   10  -0.677   0.123   0.113
    1UNK    C0A   11  -0.464   0.181   0.236
    1UNK    C0B   12  -0.316   0.142   0.265
    1UNK    C0C   13  -0.308   0.014   0.353
    1UNK    C0D   14  -0.252   0.257   0.346
    1UNK    H0E   15   0.134   0.081  -0.102
    1UNK    H0F   16   0.139   0.022   0.066
    1UNK    H0G   17   0.137   0.198   0.031
    1UNK    H0H   18  -0.047   0.180   0.189
    1UNK    H0I   19  -0.072   0.004   0.180
    1UNK    H0J   20  -0.260   0.217   0.070
    1UNK    H0K   21  -0.257  -0.077   0.043
    1UNK    H0M   22  -0.409  -0.035  -0.148
    1UNK    H0N   23  -0.442   0.253  -0.051
    1UNK    H0O   24  -0.536   0.171  -0.176
    1UNK    H0P   25  -0.363   0.197  -0.199
    1UNK    H0Q   26  -0.502  -0.113   0.065
    1UNK    H0R   27  -0.571  -0.002   0.247
    1UNK    H0S   28  -0.662   0.194   0.030
    1UNK    H0T   29  -0.733   0.175   0.191
    1UNK    H0U   30  -0.739   0.041   0.075
    1UNK    H0V   31  -0.515   0.209   0.330
    1UNK    H0W   32  -0.465   0.272   0.174
    1UNK    H0X   33  -0.345  -0.075   0.301
    1UNK    H0Y   34  -0.368   0.026   0.444
    1UNK    H0Z   35  -0.206  -0.006   0.383
    1UNK    H10   36  -0.246   0.349   0.287
    1UNK    H11   37  -0.150   0.231   0.379
    1UNK    H12   38  -0.310   0.279   0.436
   1.00000   1.00000   1.00000

