LIGPARGEN GENERATED GRO FILE
   26
    1UNK    C00    1   0.100   0.100   0.000
    1UNK    C01    2  -0.052   0.100   0.000
    1UNK    O02    3  -0.097   0.100   0.136
    1UNK    C03    4  -0.109  -0.023   0.192
    1UNK    O04    5  -0.109  -0.129   0.133
    1UNK    O05    6  -0.111  -0.007   0.327
    1UNK    C06    7  -0.106  -0.129   0.402
    1UNK    C07    8   0.035  -0.190   0.398
    1UNK    C08    9   0.047  -0.323   0.469
    1UNK    S09   10  -0.065  -0.452   0.407
    1UNK    C0A   11   0.003  -0.466   0.240
    1UNK    O0B   12  -0.032  -0.579   0.480
    1UNK    H0C   13   0.140   0.100  -0.102
    1UNK    H0D   14   0.139   0.012   0.053
    1UNK    H0E   15   0.138   0.188   0.053
    1UNK    H0F   16  -0.092   0.015  -0.056
    1UNK    H0G   17  -0.090   0.191  -0.047
    1UNK    H0H   18  -0.183  -0.197   0.364
    1UNK    H0I   19  -0.132  -0.105   0.505
    1UNK    H0J   20   0.105  -0.118   0.443
    1UNK    H0K   21   0.070  -0.199   0.294
    1UNK    H0M   22   0.023  -0.310   0.576
    1UNK    H0N   23   0.150  -0.361   0.462
    1UNK    H0O   24  -0.017  -0.375   0.183
    1UNK    H0P   25  -0.046  -0.550   0.190
    1UNK    H0Q   26   0.111  -0.484   0.245
   1.00000   1.00000   1.00000

