LIGPARGEN GENERATED GRO FILE
   32
    1UNK    C00    1   0.100   0.100   0.000
    1UNK    C01    2  -0.052   0.100   0.000
    1UNK    C02    3  -0.126   0.100   0.170
    1UNK    C03    4  -0.287   0.204   0.142
    1UNK    C04    5  -0.262   0.319  -0.006
    1UNK    C05    6  -0.194   0.428   0.052
    1UNK    C06    7  -0.154   0.294   0.099
    1UNK    C07    8  -0.274   0.141   0.025
    1UNK    C08    9  -0.327   0.133  -0.125
    1UNK    C09   10  -0.190   0.111  -0.183
    1UNK    C0A   11  -0.118  -0.002  -0.100
    1UNK    C0B   12  -0.217  -0.088  -0.022
    1UNK    O0C   13  -0.295   0.001   0.063
    1UNK    C0D   14  -0.128   0.228  -0.107
    1UNK    H0E   15   0.141   0.077   0.098
    1UNK    H0F   16   0.138   0.198  -0.031
    1UNK    H0G   17   0.140   0.027  -0.071
    1UNK    H0H   18  -0.054   0.147   0.239
    1UNK    H0I   19  -0.142  -0.003   0.206
    1UNK    H0J   20  -0.380   0.189   0.198
    1UNK    H0K   21  -0.351   0.352  -0.063
    1UNK    H0M   22  -0.255   0.488   0.120
    1UNK    H0N   23  -0.123   0.482  -0.010
    1UNK    H0O   24  -0.150   0.313   0.213
    1UNK    H0P   25  -0.043   0.290   0.083
    1UNK    H0Q   26  -0.379   0.216  -0.175
    1UNK    H0R   27  -0.393   0.048  -0.143
    1UNK    H0S   28  -0.176   0.110  -0.291
    1UNK    H0T   29  -0.048  -0.062  -0.160
    1UNK    H0U   30  -0.168  -0.161   0.041
    1UNK    H0V   31  -0.286  -0.142  -0.088
    1UNK    H0W   32  -0.061   0.298  -0.157
   1.00000   1.00000   1.00000

