LIGPARGEN GENERATED GRO FILE
   15
    1UNK    C00    1   0.100   0.100   0.000
    1UNK    C01    2  -0.020   0.100   0.000
    1UNK    C02    3  -0.163   0.100   0.000
    1UNK    C03    4  -0.243   0.095  -0.112
    1UNK    C04    5  -0.382   0.096  -0.079
    1UNK    O05    6  -0.490   0.092  -0.160
    1UNK    C06    7  -0.461   0.086  -0.299
    1UNK    C07    8  -0.401   0.103   0.057
    1UNK    S08    9  -0.255   0.107   0.144
    1UNK    H09   10   0.207   0.100   0.000
    1UNK    H0A   11  -0.202   0.090  -0.213
    1UNK    H0B   12  -0.556   0.083  -0.353
    1UNK    H0C   13  -0.406  -0.006  -0.324
    1UNK    H0D   14  -0.407   0.175  -0.332
    1UNK    H0E   15  -0.496   0.105   0.110
   1.00000   1.00000   1.00000

