LIGPARGEN GENERATED GRO FILE
   32
    1UNK    C00    1   0.100   0.100   0.000
    1UNK    C01    2  -0.053   0.100   0.000
    1UNK    C02    3  -0.106   0.100   0.144
    1UNK    C03    4  -0.248   0.149   0.130
    1UNK    C04    5  -0.234   0.265   0.031
    1UNK    C05    6  -0.372   0.311  -0.015
    1UNK    C06    7  -0.132   0.215  -0.076
    1UNK    C07    8  -0.046   0.335  -0.118
    1UNK    O08    9   0.059   0.367  -0.061
    1UNK    C09   10  -0.104   0.430  -0.221
    1UNK    C0A   11  -0.148   0.353  -0.344
    1UNK    C0B   12  -0.248   0.245  -0.311
    1UNK    C0C   13  -0.204   0.153  -0.199
    1UNK    O0D   14  -0.239   0.035  -0.202
    1UNK    H0E   15   0.137   0.007   0.046
    1UNK    H0F   16   0.141   0.182   0.060
    1UNK    H0G   17   0.140   0.105  -0.102
    1UNK    H0H   18  -0.080   0.003  -0.042
    1UNK    H0I   19  -0.048   0.168   0.207
    1UNK    H0J   20  -0.102   0.000   0.189
    1UNK    H0K   21  -0.289   0.182   0.226
    1UNK    H0M   22  -0.312   0.070   0.090
    1UNK    H0N   23  -0.190   0.349   0.085
    1UNK    H0O   24  -0.427   0.231  -0.066
    1UNK    H0P   25  -0.365   0.397  -0.083
    1UNK    H0Q   26  -0.432   0.342   0.071
    1UNK    H0R   27  -0.027   0.502  -0.250
    1UNK    H0S   28  -0.186   0.486  -0.176
    1UNK    H0T   29  -0.061   0.309  -0.393
    1UNK    H0U   30  -0.193   0.423  -0.416
    1UNK    H0V   31  -0.264   0.183  -0.400
    1UNK    H0W   32  -0.345   0.288  -0.284
   1.00000   1.00000   1.00000

