
;
; GENERATED BY LigParGen Server
; Jorgensen Lab @ Yale University 
;
[ atomtypes ]
  opls_818  H818     1.0080     0.000    A    2.50000E-01   1.25520E-01
  opls_824  H824     1.0080     0.000    A    2.50000E-01   1.25520E-01
  opls_804  C804    12.0110     0.000    A    3.50000E-01   2.76144E-01
  opls_813  H813     1.0080     0.000    A    2.50000E-01   1.25520E-01
  opls_812  C812    12.0110     0.000    A    3.50000E-01   2.76144E-01
  opls_803  O803    15.9990     0.000    A    2.96000E-01   8.78640E-01
  opls_811  C811    12.0110     0.000    A    3.50000E-01   2.76144E-01
  opls_815  H815     1.0080     0.000    A    2.50000E-01   1.25520E-01
  opls_809  C809    12.0110     0.000    A    3.50000E-01   2.76144E-01
  opls_822  H822     1.0080     0.000    A    2.50000E-01   1.25520E-01
  opls_807  C807    12.0110     0.000    A    3.50000E-01   2.76144E-01
  opls_825  H825     1.0080     0.000    A    2.50000E-01   1.25520E-01
  opls_814  H814     1.0080     0.000    A    2.50000E-01   1.25520E-01
  opls_821  H821     1.0080     0.000    A    2.50000E-01   1.25520E-01
  opls_820  H820     1.0080     0.000    A    2.50000E-01   1.25520E-01
  opls_816  H816     1.0080     0.000    A    2.50000E-01   1.25520E-01
  opls_800  C800    12.0110     0.000    A    3.50000E-01   2.76144E-01
  opls_805  C805    12.0110     0.000    A    3.30000E-01   2.76144E-01
  opls_823  H823     1.0080     0.000    A    2.50000E-01   1.25520E-01
  opls_802  C802    12.0110     0.000    A    3.55000E-01   2.92880E-01
  opls_826  H826     1.0080     0.000    A    2.50000E-01   1.25520E-01
  opls_806  N806    14.0070     0.000    A    3.20000E-01   7.11280E-01
  opls_819  H819     1.0080     0.000    A    2.50000E-01   1.25520E-01
  opls_810  C810    12.0110     0.000    A    3.50000E-01   2.76144E-01
  opls_827  H827     1.0080     0.000    A    2.50000E-01   1.25520E-01
  opls_801  C801    12.0110     0.000    A    3.50000E-01   2.76144E-01
  opls_808  C808    12.0110     0.000    A    3.50000E-01   2.76144E-01
  opls_817  H817     1.0080     0.000    A    2.50000E-01   1.25520E-01
[ moleculetype ]
; Name               nrexcl
UNK                   3
[ atoms ]
;   nr       type  resnr residue  atom   cgnr     charge       mass  
     1   opls_800      1    UNK   C00      1    -0.2296    12.0110 
     2   opls_801      1    UNK   C01      1    -0.1438    12.0110 
     3   opls_802      1    UNK   C02      1     0.3719    12.0110 
     4   opls_803      1    UNK   O03      1    -0.4213    15.9990 
     5   opls_804      1    UNK   C04      1    -0.0231    12.0110 
     6   opls_805      1    UNK   C05      1      0.135    12.0110 
     7   opls_806      1    UNK   N06      1    -0.3783    14.0070 
     8   opls_807      1    UNK   C07      1    -0.1597    12.0110 
     9   opls_808      1    UNK   C08      1    -0.1377    12.0110 
    10   opls_809      1    UNK   C09      1    -0.1715    12.0110 
    11   opls_810      1    UNK   C0A      1    -0.1838    12.0110 
    12   opls_811      1    UNK   C0B      1    -0.1741    12.0110 
    13   opls_812      1    UNK   C0C      1    -0.1188    12.0110 
    14   opls_813      1    UNK   H0D      1     0.0955     1.0080 
    15   opls_814      1    UNK   H0E      1     0.0955     1.0080 
    16   opls_815      1    UNK   H0F      1     0.0955     1.0080 
    17   opls_816      1    UNK   H0G      1     0.1367     1.0080 
    18   opls_817      1    UNK   H0H      1     0.1718     1.0080 
    19   opls_818      1    UNK   H0I      1     0.1144     1.0080 
    20   opls_819      1    UNK   H0J      1     0.1144     1.0080 
    21   opls_820      1    UNK   H0K      1     0.1154     1.0080 
    22   opls_821      1    UNK   H0M      1     0.0987     1.0080 
    23   opls_822      1    UNK   H0N      1     0.0987     1.0080 
    24   opls_823      1    UNK   H0O      1     0.0968     1.0080 
    25   opls_824      1    UNK   H0P      1     0.0968     1.0080 
    26   opls_825      1    UNK   H0Q      1     0.0983     1.0080 
    27   opls_826      1    UNK   H0R      1     0.0983     1.0080 
    28   opls_827      1    UNK   H0S      1     0.1081     1.0080 
[ bonds ]
    2     1     1      0.1529 224262.400
    3     2     1      0.1522 265265.600
    4     3     1      0.1229 476976.000
    5     3     1      0.1522 265265.600
    6     5     1      0.1470 326352.000
    7     6     1      0.1157 543920.000
    8     5     1      0.1529 224262.400
    9     8     1      0.1529 224262.400
   10     9     1      0.1529 224262.400
   11    10     1      0.1529 224262.400
   12    11     1      0.1529 224262.400
   13     2     1      0.1529 224262.400
   14     1     1      0.1090 284512.000
   15     1     1      0.1090 284512.000
   16     1     1      0.1090 284512.000
   17     2     1      0.1090 284512.000
   18     5     1      0.1090 284512.000
   19     8     1      0.1090 284512.000
   20     8     1      0.1090 284512.000
   21     9     1      0.1090 284512.000
   22    10     1      0.1090 284512.000
   23    10     1      0.1090 284512.000
   24    11     1      0.1090 284512.000
   25    11     1      0.1090 284512.000
   26    12     1      0.1090 284512.000
   27    12     1      0.1090 284512.000
   28    13     1      0.1090 284512.000
   13     9     1      0.1529 224262.400
   13    12     1      0.1529 224262.400

[ angles ]
;  ai    aj    ak funct            c0            c1            c2            c3 
    1     2     3     1    111.100    527.184
    2     3     4     1    120.400    669.440
    2     3     5     1    116.000    585.760
    3     5     6     1    110.580    432.207
    5     6     7     1    180.000   1255.200
    3     5     8     1    111.100    527.184
    5     8     9     1    112.700    488.273
    8     9    10     1    112.700    488.273
    9    10    11     1    112.700    488.273
   10    11    12     1    112.700    488.273
    1     2    13     1    112.700    488.273
    2     1    14     1    110.700    313.800
    2     1    15     1    110.700    313.800
    2     1    16     1    110.700    313.800
    1     2    17     1    110.700    313.800
    3     5    18     1    109.500    292.880
    5     8    19     1    110.700    313.800
    5     8    20     1    110.700    313.800
    8     9    21     1    110.700    313.800
    9    10    22     1    110.700    313.800
    9    10    23     1    110.700    313.800
   10    11    24     1    110.700    313.800
   10    11    25     1    110.700    313.800
   11    12    26     1    110.700    313.800
   11    12    27     1    110.700    313.800
    2    13    28     1    110.700    313.800
    9    13    28     1    110.700    313.800
    2    13    12     1    112.700    488.273
   12    11    24     1    110.700    313.800
    9    13    12     1    112.700    488.273
   26    12    27     1    107.800    276.144
   12    11    25     1    110.700    313.800
   24    11    25     1    107.800    276.144
   10     9    13     1    112.700    488.273
    9     8    20     1    110.700    313.800
   22    10    23     1    107.800    276.144
    8     9    13     1    112.700    488.273
   19     8    20     1    107.800    276.144
    4     3     5     1    120.400    669.440
   14     1    15     1    107.800    276.144
   13     2    17     1    110.700    313.800
    3     2    17     1    109.500    292.880
    2    13     9     1    112.700    488.273
   15     1    16     1    107.800    276.144
   11    10    22     1    110.700    313.800
    6     5     8     1    112.700    488.273
    3     2    13     1    111.100    527.184
   12    13    28     1    110.700    313.800
   13     9    21     1    110.700    313.800
   10     9    21     1    110.700    313.800
   14     1    16     1    107.800    276.144
   11    12    13     1    112.700    488.273
    8     5    18     1    110.700    313.800
    9     8    19     1    110.700    313.800
   11    10    23     1    110.700    313.800
   13    12    26     1    110.700    313.800
   13    12    27     1    110.700    313.800
    6     5    18     1    108.500    292.880

[ dihedrals ]
; IMPROPER DIHEDRAL ANGLES 
;  ai    aj    ak    al funct            c0            c1            c2            c3            c4            c5
     5     3     2     4    4        180.000     43.932     2  

[ dihedrals ]
; PROPER DIHEDRAL ANGLES
;  ai    aj    ak    al funct            c0            c1            c2            c3            c4            c5
    5    3    2    1        3       0.818  -7.906   0.602   6.485  -0.000   0.000
    8    5    3    2        3       0.818  -7.906   0.602   6.485  -0.000   0.000
   13    2    3    5        3       0.818  -7.906   0.602   6.485  -0.000   0.000
   13    2    3    4        3       0.000   0.000   0.000  -0.000  -0.000   0.000
    8    5    3    4        3       0.000   0.000   0.000  -0.000  -0.000   0.000
   12   13    2    3        3      -4.960   6.286   1.310  -2.636  -0.000   0.000
    9   13    2    3        3      -4.960   6.286   1.310  -2.636  -0.000   0.000
    9    8    5    3        3      -4.960   6.286   1.310  -2.636  -0.000   0.000
   12   13    9    8        3       2.301  -1.464   0.837  -1.674  -0.000   0.000
   10    9   13    2        3       2.301  -1.464   0.837  -1.674  -0.000   0.000
   13    9    8    5        3       2.301  -1.464   0.837  -1.674  -0.000   0.000
   13    9   10   11        3       2.301  -1.464   0.837  -1.674  -0.000   0.000
   12   13    9   10        3       2.301  -1.464   0.837  -1.674  -0.000   0.000
    9   13    2    1        3       2.301  -1.464   0.837  -1.674  -0.000   0.000
   11   12   13    9        3       2.301  -1.464   0.837  -1.674  -0.000   0.000
   13   12   11   10        3       2.301  -1.464   0.837  -1.674  -0.000   0.000
    8    9   13    2        3       2.301  -1.464   0.837  -1.674  -0.000   0.000
   11   12   13    2        3       2.301  -1.464   0.837  -1.674  -0.000   0.000
   10    9    8    5        3       2.301  -1.464   0.837  -1.674  -0.000   0.000
   11   10    9    8        3       2.301  -1.464   0.837  -1.674  -0.000   0.000
   12   11   10    9        3       2.301  -1.464   0.837  -1.674  -0.000   0.000
   12   13    2    1        3       2.301  -1.464   0.837  -1.674  -0.000   0.000
    9    8    5    6        3      -2.720   0.000   2.720  -0.000  -0.000   0.000
    8    5    6    7        3       0.000   0.000   0.000  -0.000  -0.000   0.000
    6    5    3    2        3       0.818  -7.906   0.602   6.485  -0.000   0.000
    6    5    3    4        3       0.000   0.000   0.000  -0.000  -0.000   0.000
   18    5    3    2        3       0.575   1.726   0.000  -2.301  -0.000   0.000
   17    2    3    5        3       0.575   1.726   0.000  -2.301  -0.000   0.000
   17    2    3    4        3       0.000   0.000   0.000  -0.000  -0.000   0.000
   18    5    3    4        3       0.000   0.000   0.000  -0.000  -0.000   0.000
   28   13    2    3        3      -0.209  -0.628   0.000   0.837  -0.000   0.000
   19    8    5    3        3      -0.209  -0.628   0.000   0.837  -0.000   0.000
   20    8    5    3        3      -0.209  -0.628   0.000   0.837  -0.000   0.000
   16    1    2    3        3      -0.209  -0.628   0.000   0.837  -0.000   0.000
   14    1    2    3        3      -0.209  -0.628   0.000   0.837  -0.000   0.000
   15    1    2    3        3      -0.209  -0.628   0.000   0.837  -0.000   0.000
   17    2   13   12        3       0.628   1.883   0.000  -2.510  -0.000   0.000
   23   10   11   12        3       0.628   1.883   0.000  -2.510  -0.000   0.000
   15    1    2   13        3       0.628   1.883   0.000  -2.510  -0.000   0.000
   23   10    9   13        3       0.628   1.883   0.000  -2.510  -0.000   0.000
   23   10    9    8        3       0.628   1.883   0.000  -2.510  -0.000   0.000
   26   12   11   10        3       0.628   1.883   0.000  -2.510  -0.000   0.000
   17    2   13    9        3       0.628   1.883   0.000  -2.510  -0.000   0.000
   19    8    9   13        3       0.628   1.883   0.000  -2.510  -0.000   0.000
   26   12   13    9        3       0.628   1.883   0.000  -2.510  -0.000   0.000
   27   12   11   10        3       0.628   1.883   0.000  -2.510  -0.000   0.000
   20    8    9   10        3       0.628   1.883   0.000  -2.510  -0.000   0.000
   24   11   10    9        3       0.628   1.883   0.000  -2.510  -0.000   0.000
   21    9   10   11        3       0.628   1.883   0.000  -2.510  -0.000   0.000
   21    9   13   12        3       0.628   1.883   0.000  -2.510  -0.000   0.000
   21    9    8    5        3       0.628   1.883   0.000  -2.510  -0.000   0.000
   28   13    9    8        3       0.628   1.883   0.000  -2.510  -0.000   0.000
   28   13    9   10        3       0.628   1.883   0.000  -2.510  -0.000   0.000
   28   13   12   11        3       0.628   1.883   0.000  -2.510  -0.000   0.000
   16    1    2   13        3       0.628   1.883   0.000  -2.510  -0.000   0.000
   25   11   12   13        3       0.628   1.883   0.000  -2.510  -0.000   0.000
   26   12   13    2        3       0.628   1.883   0.000  -2.510  -0.000   0.000
   22   10   11   12        3       0.628   1.883   0.000  -2.510  -0.000   0.000
   18    5    8    9        3       0.628   1.883   0.000  -2.510  -0.000   0.000
   28   13    2    1        3       0.628   1.883   0.000  -2.510  -0.000   0.000
   14    1    2   13        3       0.628   1.883   0.000  -2.510  -0.000   0.000
   21    9   13    2        3       0.628   1.883   0.000  -2.510  -0.000   0.000
   27   12   13    9        3       0.628   1.883   0.000  -2.510  -0.000   0.000
   19    8    9   10        3       0.628   1.883   0.000  -2.510  -0.000   0.000
   27   12   13    2        3       0.628   1.883   0.000  -2.510  -0.000   0.000
   25   11   10    9        3       0.628   1.883   0.000  -2.510  -0.000   0.000
   24   11   12   13        3       0.628   1.883   0.000  -2.510  -0.000   0.000
   20    8    9   13        3       0.628   1.883   0.000  -2.510  -0.000   0.000
   22   10    9   13        3       0.628   1.883   0.000  -2.510  -0.000   0.000
   22   10    9    8        3       0.628   1.883   0.000  -2.510  -0.000   0.000
   19    8    5    6        3       0.766   2.297   0.000  -3.063  -0.000   0.000
   20    8    5    6        3       0.766   2.297   0.000  -3.063  -0.000   0.000
   28   13   12   26        3       0.628   1.883   0.000  -2.510  -0.000   0.000
   28   13    9   21        3       0.628   1.883   0.000  -2.510  -0.000   0.000
   27   12   11   25        3       0.628   1.883   0.000  -2.510  -0.000   0.000
   22   10    9   21        3       0.628   1.883   0.000  -2.510  -0.000   0.000
   17    2    1   15        3       0.628   1.883   0.000  -2.510  -0.000   0.000
   17    2    1   16        3       0.628   1.883   0.000  -2.510  -0.000   0.000
   21    9    8   19        3       0.628   1.883   0.000  -2.510  -0.000   0.000
   20    8    5   18        3       0.628   1.883   0.000  -2.510  -0.000   0.000
   26   12   11   25        3       0.628   1.883   0.000  -2.510  -0.000   0.000
   27   12   11   24        3       0.628   1.883   0.000  -2.510  -0.000   0.000
   28   13    2   17        3       0.628   1.883   0.000  -2.510  -0.000   0.000
   25   11   10   22        3       0.628   1.883   0.000  -2.510  -0.000   0.000
   28   13   12   27        3       0.628   1.883   0.000  -2.510  -0.000   0.000
   24   11   10   22        3       0.628   1.883   0.000  -2.510  -0.000   0.000
   25   11   10   23        3       0.628   1.883   0.000  -2.510  -0.000   0.000
   17    2    1   14        3       0.628   1.883   0.000  -2.510  -0.000   0.000
   26   12   11   24        3       0.628   1.883   0.000  -2.510  -0.000   0.000
   23   10    9   21        3       0.628   1.883   0.000  -2.510  -0.000   0.000
   21    9    8   20        3       0.628   1.883   0.000  -2.510  -0.000   0.000
   19    8    5   18        3       0.628   1.883   0.000  -2.510  -0.000   0.000
   24   11   10   23        3       0.628   1.883   0.000  -2.510  -0.000   0.000
   18    5    6    7        3       0.000   0.000   0.000  -0.000  -0.000   0.000
    7    6    5    3        3       0.000   0.000   0.000  -0.000  -0.000   0.000
    4    3    2    1        3       0.000   0.000   0.000  -0.000  -0.000   0.000

[ pairs ]
     1     4    1
     1     5    1
     2     6    1
     4     6    1
     3     7    1
     2     8    1
     1     9    1
     4     8    1
     3     9    1
     2    10    1
     2    11    1
     1    12    1
     7     8    1
     6     9    1
     5    10    1
     3    12    1
     4    13    1
     3    14    1
     5    13    1
     3    15    1
     8    11    1
     3    16    1
     8    12    1
     2    18    1
     4    17    1
     5    17    1
     4    18    1
     3    19    1
     3    20    1
     2    21    1
     7    18    1
     6    19    1
     9    17    1
     6    20    1
     5    21    1
    13    14    1
     9    18    1
    13    15    1
     2    26    1
    13    16    1
    12    17    1
    10    19    1
     2    27    1
     1    28    1
    10    20    1
     8    22    1
    14    17    1
     8    23    1
     3    28    1
    15    17    1
    13    19    1
    11    21    1
    16    17    1
    13    20    1
    12    21    1
     9    24    1
    12    22    1
     9    25    1
    13    22    1
    12    23    1
     9    26    1
    13    23    1
    10    26    1
     9    27    1
     8    28    1
    18    19    1
    13    24    1
    10    27    1
    18    20    1
    13    25    1
    10    28    1
    11    28    1
    19    21    1
    20    21    1
    21    22    1
    21    23    1
    17    28    1
    22    24    1
    23    24    1
    22    25    1
    23    25    1
    21    28    1
    24    26    1
    25    26    1
    24    27    1
    25    27    1
    26    28    1
    27    28    1

