LIGPARGEN GENERATED GRO FILE
   33
    1UNK    C00    1   0.100   0.100   0.000
    1UNK    C01    2  -0.051   0.100   0.000
    1UNK    O02    3  -0.114   0.100   0.105
    1UNK    C03    4  -0.117   0.100  -0.136
    1UNK    C04    5  -0.270   0.100  -0.128
    1UNK    C05    6  -0.331   0.100  -0.269
    1UNK    C06    7  -0.484   0.100  -0.266
    1UNK    C07    8  -0.547   0.099  -0.407
    1UNK    C08    9  -0.505  -0.025  -0.486
    1UNK    C09   10  -0.701   0.106  -0.393
    1UNK    C0A   11  -0.772   0.115  -0.527
    1UNK    C0B   12  -0.912   0.059  -0.535
    1UNK    O0C   13  -0.722   0.172  -0.625
    1UNK    H0D   14   0.137   0.100   0.103
    1UNK    H0E   15   0.137   0.190  -0.051
    1UNK    H0F   16   0.137   0.010  -0.051
    1UNK    H0G   17  -0.083   0.011  -0.190
    1UNK    H0H   18  -0.083   0.189  -0.191
    1UNK    H0I   19  -0.304   0.188  -0.073
    1UNK    H0J   20  -0.304   0.012  -0.073
    1UNK    H0K   21  -0.294   0.011  -0.321
    1UNK    H0M   22  -0.295   0.187  -0.324
    1UNK    H0N   23  -0.518   0.189  -0.211
    1UNK    H0O   24  -0.519   0.012  -0.209
    1UNK    H0P   25  -0.513   0.188  -0.461
    1UNK    H0Q   26  -0.524  -0.117  -0.429
    1UNK    H0R   27  -0.399  -0.022  -0.511
    1UNK    H0S   28  -0.558  -0.033  -0.581
    1UNK    H0T   29  -0.730   0.195  -0.336
    1UNK    H0U   30  -0.737   0.018  -0.340
    1UNK    H0V   31  -0.931  -0.010  -0.452
    1UNK    H0W   32  -0.924   0.004  -0.628
    1UNK    H0X   33  -0.984   0.141  -0.529
   1.00000   1.00000   1.00000

