
;
; GENERATED BY LigParGen Server
; Jorgensen Lab @ Yale University 
;
[ atomtypes ]
  opls_818  H818     1.0080     0.000    A    2.50000E-01   1.25520E-01
  opls_824  H824     1.0080     0.000    A    2.50000E-01   1.25520E-01
  opls_805  O805    15.9990     0.000    A    2.96000E-01   8.78640E-01
  opls_813  H813     1.0080     0.000    A    2.50000E-01   1.25520E-01
  opls_801  O801    15.9990     0.000    A    2.90000E-01   5.85760E-01
  opls_803  O803    15.9990     0.000    A    2.96000E-01   8.78640E-01
  opls_806  C806    12.0110     0.000    A    3.50000E-01   2.76144E-01
  opls_815  H815     1.0080     0.000    A    2.50000E-01   1.25520E-01
  opls_809  C809    12.0110     0.000    A    3.50000E-01   2.76144E-01
  opls_822  H822     1.0080     0.000    A    2.50000E-01   1.25520E-01
  opls_807  C807    12.0110     0.000    A    3.50000E-01   2.76144E-01
  opls_814  H814     1.0080     0.000    A    2.50000E-01   1.25520E-01
  opls_821  H821     1.0080     0.000    A    2.50000E-01   1.25520E-01
  opls_820  H820     1.0080     0.000    A    2.50000E-01   1.25520E-01
  opls_804  C804    12.0110     0.000    A    3.55000E-01   2.92880E-01
  opls_816  H816     1.0080     0.000    A    2.50000E-01   1.25520E-01
  opls_800  C800    12.0110     0.000    A    3.50000E-01   2.76144E-01
  opls_823  H823     1.0080     0.000    A    2.50000E-01   1.25520E-01
  opls_802  C802    12.0110     0.000    A    3.55000E-01   2.92880E-01
  opls_811 Cl811    35.4500     0.000    A    3.40000E-01   1.25520E+00
  opls_819  H819     1.0080     0.000    A    2.50000E-01   1.25520E-01
  opls_810  C810    12.0110     0.000    A    3.50000E-01   2.76144E-01
  opls_808  C808    12.0110     0.000    A    3.50000E-01   2.76144E-01
  opls_817  H817     1.0080     0.000    A    2.50000E-01   1.25520E-01
  opls_812  H812     1.0080     0.000    A    2.50000E-01   1.25520E-01
[ moleculetype ]
; Name               nrexcl
UNK                   3
[ atoms ]
;   nr       type  resnr residue  atom   cgnr     charge       mass  
     1   opls_800      1    UNK   C00      1    -0.0654    12.0110 
     2   opls_801      1    UNK   O01      1     -0.311    15.9990 
     3   opls_802      1    UNK   C02      1     0.3863    12.0110 
     4   opls_803      1    UNK   O03      1    -0.4229    15.9990 
     5   opls_804      1    UNK   C04      1     0.3623    12.0110 
     6   opls_805      1    UNK   O05      1    -0.3707    15.9990 
     7   opls_806      1    UNK   C06      1    -0.1495    12.0110 
     8   opls_807      1    UNK   C07      1    -0.2312    12.0110 
     9   opls_808      1    UNK   C08      1    -0.1791    12.0110 
    10   opls_809      1    UNK   C09      1      0.081    12.0110 
    11   opls_810      1    UNK   C0A      1    -0.2533    12.0110 
    12   opls_811      1    UNK   Cl0      1    -0.2892    35.4500 
    13   opls_812      1    UNK   H0C      1     0.1078     1.0080 
    14   opls_813      1    UNK   H0D      1     0.1078     1.0080 
    15   opls_814      1    UNK   H0E      1     0.1078     1.0080 
    16   opls_815      1    UNK   H0F      1     0.1461     1.0080 
    17   opls_816      1    UNK   H0G      1     0.0991     1.0080 
    18   opls_817      1    UNK   H0H      1     0.0991     1.0080 
    19   opls_818      1    UNK   H0I      1     0.0991     1.0080 
    20   opls_819      1    UNK   H0J      1     0.1206     1.0080 
    21   opls_820      1    UNK   H0K      1     0.1206     1.0080 
    22   opls_821      1    UNK   H0M      1     0.1357     1.0080 
    23   opls_822      1    UNK   H0N      1     0.0997     1.0080 
    24   opls_823      1    UNK   H0O      1     0.0997     1.0080 
    25   opls_824      1    UNK   H0P      1     0.0997     1.0080 
[ bonds ]
    2     1     1      0.1410 267776.000
    3     2     1      0.1327 179075.200
    4     3     1      0.1229 476976.000
    5     3     1      0.1510 292880.000
    6     5     1      0.1229 476976.000
    7     5     1      0.1522 265265.600
    8     7     1      0.1529 224262.400
    9     7     1      0.1529 224262.400
   10     9     1      0.1529 224262.400
   11    10     1      0.1529 224262.400
   12    10     1      0.1781 205016.000
   13     1     1      0.1090 284512.000
   14     1     1      0.1090 284512.000
   15     1     1      0.1090 284512.000
   16     7     1      0.1090 284512.000
   17     8     1      0.1090 284512.000
   18     8     1      0.1090 284512.000
   19     8     1      0.1090 284512.000
   20     9     1      0.1090 284512.000
   21     9     1      0.1090 284512.000
   22    10     1      0.1090 284512.000
   23    11     1      0.1090 284512.000
   24    11     1      0.1090 284512.000
   25    11     1      0.1090 284512.000

[ angles ]
;  ai    aj    ak funct            c0            c1            c2            c3 
    1     2     3     1    116.900    694.544
    2     3     4     1    123.400    694.544
    2     3     5     1    118.180    584.923
    3     5     6     1    121.400    669.440
    3     5     7     1    117.200    669.440
    5     7     8     1    111.100    527.184
    5     7     9     1    111.100    527.184
    7     9    10     1    112.700    488.273
    9    10    11     1    112.700    488.273
    9    10    12     1    109.800    577.392
    2     1    13     1    109.500    292.880
    2     1    14     1    109.500    292.880
    2     1    15     1    109.500    292.880
    5     7    16     1    109.500    292.880
    7     8    17     1    110.700    313.800
    7     8    18     1    110.700    313.800
    7     8    19     1    110.700    313.800
    7     9    20     1    110.700    313.800
    7     9    21     1    110.700    313.800
    9    10    22     1    110.700    313.800
   10    11    23     1    110.700    313.800
   10    11    24     1    110.700    313.800
   10    11    25     1    110.700    313.800
   11    10    12     1    109.800    577.392
   13     1    14     1    107.800    276.144
   12    10    22     1    107.600    426.768
   24    11    25     1    107.800    276.144
   17     8    19     1    107.800    276.144
    8     7     9     1    112.700    488.273
   17     8    18     1    107.800    276.144
   20     9    21     1    107.800    276.144
    4     3     5     1    121.400    669.440
   14     1    15     1    107.800    276.144
    6     5     7     1    120.400    669.440
   11    10    22     1    110.700    313.800
   18     8    19     1    107.800    276.144
   10     9    21     1    110.700    313.800
   23    11    25     1    107.800    276.144
   13     1    15     1    107.800    276.144
    9     7    16     1    110.700    313.800
   23    11    24     1    107.800    276.144
    8     7    16     1    110.700    313.800
   10     9    20     1    110.700    313.800

[ dihedrals ]
; IMPROPER DIHEDRAL ANGLES 
;  ai    aj    ak    al funct            c0            c1            c2            c3            c4            c5
     5     3     2     4    4        180.000     43.932     2  
     7     5     3     6    4        180.000     43.932     2  

[ dihedrals ]
; PROPER DIHEDRAL ANGLES
;  ai    aj    ak    al funct            c0            c1            c2            c3            c4            c5
    5    3    2    1        3      31.206  -9.768  -21.439  -0.000  -0.000   0.000
    7    5    3    4        3       2.092   0.000  -2.092  -0.000  -0.000   0.000
    7    5    3    2        3       2.092   0.000  -2.092  -0.000  -0.000   0.000
    8    7    5    3        3       0.000   0.000   0.000  -0.000  -0.000   0.000
    9    7    5    3        3       0.000   0.000   0.000  -0.000  -0.000   0.000
    9    7    5    6        3       0.000   0.000   0.000  -0.000  -0.000   0.000
    8    7    5    6        3       0.000   0.000   0.000  -0.000  -0.000   0.000
   10    9    7    5        3      -4.960   6.286   1.310  -2.636  -0.000   0.000
   11   10    9    7        3       2.301  -1.464   0.837  -1.674  -0.000   0.000
   10    9    7    8        3       2.301  -1.464   0.837  -1.674  -0.000   0.000
   12   10    9    7        3       0.837   2.510   0.000  -3.347  -0.000   0.000
   16    7    5    3        3       0.178   0.533   0.000  -0.711  -0.000   0.000
   16    7    5    6        3       0.000   0.000   0.000  -0.000  -0.000   0.000
   20    9    7    5        3      -0.209  -0.628   0.000   0.837  -0.000   0.000
   19    8    7    5        3      -0.209  -0.628   0.000   0.837  -0.000   0.000
   21    9    7    5        3      -0.209  -0.628   0.000   0.837  -0.000   0.000
   18    8    7    5        3      -0.209  -0.628   0.000   0.837  -0.000   0.000
   17    8    7    5        3      -0.209  -0.628   0.000   0.837  -0.000   0.000
   21    9   10   11        3       0.628   1.883   0.000  -2.510  -0.000   0.000
   21    9    7    8        3       0.628   1.883   0.000  -2.510  -0.000   0.000
   20    9    7    8        3       0.628   1.883   0.000  -2.510  -0.000   0.000
   19    8    7    9        3       0.628   1.883   0.000  -2.510  -0.000   0.000
   23   11   10    9        3       0.628   1.883   0.000  -2.510  -0.000   0.000
   22   10    9    7        3       0.628   1.883   0.000  -2.510  -0.000   0.000
   25   11   10    9        3       0.628   1.883   0.000  -2.510  -0.000   0.000
   16    7    9   10        3       0.628   1.883   0.000  -2.510  -0.000   0.000
   24   11   10    9        3       0.628   1.883   0.000  -2.510  -0.000   0.000
   20    9   10   11        3       0.628   1.883   0.000  -2.510  -0.000   0.000
   17    8    7    9        3       0.628   1.883   0.000  -2.510  -0.000   0.000
   18    8    7    9        3       0.628   1.883   0.000  -2.510  -0.000   0.000
   20    9   10   12        3       0.837   2.510   0.000  -3.347  -0.000   0.000
   24   11   10   12        3       0.837   2.510   0.000  -3.347  -0.000   0.000
   23   11   10   12        3       0.837   2.510   0.000  -3.347  -0.000   0.000
   25   11   10   12        3       0.837   2.510   0.000  -3.347  -0.000   0.000
   21    9   10   12        3       0.837   2.510   0.000  -3.347  -0.000   0.000
   23   11   10   22        3       0.628   1.883   0.000  -2.510  -0.000   0.000
   18    8    7   16        3       0.628   1.883   0.000  -2.510  -0.000   0.000
   19    8    7   16        3       0.628   1.883   0.000  -2.510  -0.000   0.000
   22   10    9   21        3       0.628   1.883   0.000  -2.510  -0.000   0.000
   20    9    7   16        3       0.628   1.883   0.000  -2.510  -0.000   0.000
   25   11   10   22        3       0.628   1.883   0.000  -2.510  -0.000   0.000
   21    9    7   16        3       0.628   1.883   0.000  -2.510  -0.000   0.000
   22   10    9   20        3       0.628   1.883   0.000  -2.510  -0.000   0.000
   17    8    7   16        3       0.628   1.883   0.000  -2.510  -0.000   0.000
   24   11   10   22        3       0.628   1.883   0.000  -2.510  -0.000   0.000
   14    1    2    3        3       0.414   1.243   0.000  -1.657  -0.000   0.000
   15    1    2    3        3       0.414   1.243   0.000  -1.657  -0.000   0.000
   13    1    2    3        3       0.414   1.243   0.000  -1.657  -0.000   0.000
    6    5    3    4        3      16.736  -3.347  -13.389  -0.000  -0.000   0.000
    6    5    3    2        3      16.736  -3.347  -13.389  -0.000  -0.000   0.000
    4    3    2    1        3      21.439   0.000  -21.439  -0.000  -0.000   0.000

[ pairs ]
     1     4    1
     1     5    1
     2     6    1
     2     7    1
     4     6    1
     4     7    1
     3     8    1
     3     9    1
     6     8    1
     6     9    1
     5    10    1
     3    13    1
     3    14    1
     8    10    1
     7    11    1
     3    15    1
     7    12    1
     3    16    1
     6    16    1
     5    17    1
     5    18    1
     5    19    1
     5    20    1
    10    16    1
     9    17    1
     5    21    1
     9    18    1
     9    19    1
     8    20    1
     8    21    1
     7    22    1
    11    20    1
    12    20    1
    11    21    1
     9    23    1
    16    17    1
    12    21    1
     9    24    1
    16    18    1
     9    25    1
    16    19    1
    12    23    1
    16    20    1
    12    24    1
    16    21    1
    12    25    1
    20    22    1
    21    22    1
    22    23    1
    22    24    1
    22    25    1

