
;
; GENERATED BY LigParGen Server
; Jorgensen Lab @ Yale University 
;
[ atomtypes ]
  opls_818  H818     1.0080     0.000    A    2.50000E-01   1.25520E-01
  opls_810  C810    12.0110     0.000    A    3.45000E-01   3.47272E-01
  opls_824  H824     1.0080     0.000    A    2.50000E-01   1.25520E-01
  opls_811  C811    12.0110     0.000    A    3.50000E-01   2.76144E-01
  opls_833  H833     1.0080     0.000    A    2.50000E-01   1.25520E-01
  opls_828  H828     1.0080     0.000    A    2.50000E-01   1.25520E-01
  opls_813  H813     1.0080     0.000    A    2.50000E-01   1.25520E-01
  opls_807  C807    12.0110     0.000    A    3.45000E-01   3.47272E-01
  opls_802  C802    12.0110     0.000    A    3.50000E-01   2.76144E-01
  opls_815  H815     1.0080     0.000    A    2.50000E-01   1.25520E-01
  opls_801  C801    12.0110     0.000    A    3.50000E-01   2.76144E-01
  opls_830  H830     1.0080     0.000    A    2.50000E-01   1.25520E-01
  opls_822  H822     1.0080     0.000    A    2.50000E-01   1.25520E-01
  opls_803  C803    12.0110     0.000    A    3.50000E-01   2.76144E-01
  opls_808  C808    12.0110     0.000    A    3.45000E-01   3.47272E-01
  opls_825  H825     1.0080     0.000    A    2.50000E-01   1.25520E-01
  opls_814  H814     1.0080     0.000    A    2.50000E-01   1.25520E-01
  opls_821  H821     1.0080     0.000    A    2.50000E-01   1.25520E-01
  opls_820  H820     1.0080     0.000    A    2.50000E-01   1.25520E-01
  opls_829  H829     1.0080     0.000    A    2.50000E-01   1.25520E-01
  opls_834  H834     1.0080     0.000    A    2.50000E-01   1.25520E-01
  opls_831  H831     1.0080     0.000    A    2.50000E-01   1.25520E-01
  opls_832  H832     1.0080     0.000    A    2.50000E-01   1.25520E-01
  opls_816  H816     1.0080     0.000    A    2.50000E-01   1.25520E-01
  opls_800  C800    12.0110     0.000    A    3.50000E-01   2.76144E-01
  opls_806  C806    12.0110     0.000    A    3.50000E-01   2.76144E-01
  opls_823  H823     1.0080     0.000    A    2.50000E-01   1.25520E-01
  opls_826  H826     1.0080     0.000    A    2.50000E-01   1.25520E-01
  opls_819  H819     1.0080     0.000    A    2.50000E-01   1.25520E-01
  opls_805  C805    12.0110     0.000    A    3.50000E-01   2.76144E-01
  opls_827  H827     1.0080     0.000    A    2.50000E-01   1.25520E-01
  opls_812  C812    12.0110     0.000    A    3.50000E-01   2.76144E-01
  opls_817  H817     1.0080     0.000    A    2.50000E-01   1.25520E-01
  opls_809  C809    12.0110     0.000    A    3.45000E-01   3.47272E-01
  opls_804  O804    15.9990     0.000    A    2.90000E-01   5.85760E-01
[ moleculetype ]
; Name               nrexcl
UNK                   3
[ atoms ]
;   nr       type  resnr residue  atom   cgnr     charge       mass  
     1   opls_800      1    UNK   C00      1    -0.2384    12.0110 
     2   opls_801      1    UNK   C01      1    -0.1749    12.0110 
     3   opls_802      1    UNK   C02      1    -0.1348    12.0110 
     4   opls_803      1    UNK   C03      1     0.0172    12.0110 
     5   opls_804      1    UNK   O04      1     -0.372    15.9990 
     6   opls_805      1    UNK   C05      1     0.1141    12.0110 
     7   opls_806      1    UNK   C06      1    -0.2489    12.0110 
     8   opls_807      1    UNK   C07      1    -0.1693    12.0110 
     9   opls_808      1    UNK   C08      1    -0.1491    12.0110 
    10   opls_809      1    UNK   C09      1    -0.2114    12.0110 
    11   opls_810      1    UNK   C0A      1    -0.1104    12.0110 
    12   opls_811      1    UNK   C0B      1    -0.0749    12.0110 
    13   opls_812      1    UNK   C0C      1    -0.2406    12.0110 
    14   opls_813      1    UNK   H0D      1     0.0823     1.0080 
    15   opls_814      1    UNK   H0E      1     0.0823     1.0080 
    16   opls_815      1    UNK   H0F      1     0.0823     1.0080 
    17   opls_816      1    UNK   H0G      1     0.0861     1.0080 
    18   opls_817      1    UNK   H0H      1     0.0861     1.0080 
    19   opls_818      1    UNK   H0I      1     0.0929     1.0080 
    20   opls_819      1    UNK   H0J      1     0.0958     1.0080 
    21   opls_820      1    UNK   H0K      1     0.0958     1.0080 
    22   opls_821      1    UNK   H0M      1     0.0758     1.0080 
    23   opls_822      1    UNK   H0N      1     0.0921     1.0080 
    24   opls_823      1    UNK   H0O      1     0.0921     1.0080 
    25   opls_824      1    UNK   H0P      1     0.0921     1.0080 
    26   opls_825      1    UNK   H0Q      1     0.0677     1.0080 
    27   opls_826      1    UNK   H0R      1     0.1001     1.0080 
    28   opls_827      1    UNK   H0S      1     0.1001     1.0080 
    29   opls_828      1    UNK   H0T      1     0.1004     1.0080 
    30   opls_829      1    UNK   H0U      1     0.1004     1.0080 
    31   opls_830      1    UNK   H0V      1     0.1102     1.0080 
    32   opls_831      1    UNK   H0W      1     0.1008     1.0080 
    33   opls_832      1    UNK   H0X      2     0.0859     1.0080 
    34   opls_833      1    UNK   H0Y      2     0.0859     1.0080 
    35   opls_834      1    UNK   H0Z      2     0.0859     1.0080 
[ bonds ]
    2     1     1      0.1529 224262.400
    3     2     1      0.1529 224262.400
    4     3     1      0.1529 224262.400
    5     4     1      0.1410 267776.000
    6     5     1      0.1410 267776.000
    7     6     1      0.1529 224262.400
    8     6     1      0.1510 234304.000
    9     8     1      0.1520 217568.000
   10     9     1      0.1520 217568.000
   11     8     1      0.1520 217568.000
   12     3     1      0.1529 224262.400
   13    12     1      0.1529 224262.400
   14     1     1      0.1090 284512.000
   15     1     1      0.1090 284512.000
   16     1     1      0.1090 284512.000
   17     2     1      0.1090 284512.000
   18     2     1      0.1090 284512.000
   19     3     1      0.1090 284512.000
   20     4     1      0.1090 284512.000
   21     4     1      0.1090 284512.000
   22     6     1      0.1090 284512.000
   23     7     1      0.1090 284512.000
   24     7     1      0.1090 284512.000
   25     7     1      0.1090 284512.000
   26     8     1      0.1088 284512.000
   27     9     1      0.1088 284512.000
   28     9     1      0.1088 284512.000
   29    10     1      0.1088 284512.000
   30    10     1      0.1088 284512.000
   31    11     1      0.1088 284512.000
   32    12     1      0.1090 284512.000
   33    13     1      0.1090 284512.000
   34    13     1      0.1090 284512.000
   35    13     1      0.1090 284512.000
   11    10     1      0.1520 217568.000
   12    11     1      0.1510 234304.000

[ angles ]
;  ai    aj    ak funct            c0            c1            c2            c3 
    1     2     3     1    112.700    488.273
    2     3     4     1    112.700    488.273
    3     4     5     1    109.500    418.400
    4     5     6     1    109.500    502.080
    5     6     7     1    109.500    418.400
    5     6     8     1    109.500    418.400
    6     8     9     1    117.200    313.800
    8     9    10     1     83.000    251.040
    6     8    11     1    117.200    313.800
    2     3    12     1    112.700    488.273
    3    12    13     1    112.700    488.273
    2     1    14     1    110.700    313.800
    2     1    15     1    110.700    313.800
    2     1    16     1    110.700    313.800
    1     2    17     1    110.700    313.800
    1     2    18     1    110.700    313.800
    2     3    19     1    110.700    313.800
    3     4    20     1    110.700    313.800
    3     4    21     1    110.700    313.800
    5     6    22     1    109.500    292.880
    6     7    23     1    110.700    313.800
    6     7    24     1    110.700    313.800
    6     7    25     1    110.700    313.800
    6     8    26     1    114.300    292.880
    8     9    27     1    117.200    313.800
    8     9    28     1    117.200    313.800
    9    10    29     1    117.200    313.800
    9    10    30     1    117.200    313.800
    8    11    31     1    117.200    313.800
    3    12    32     1    110.700    313.800
   12    13    33     1    110.700    313.800
   12    13    34     1    110.700    313.800
   12    13    35     1    110.700    313.800
   23     7    24     1    107.800    276.144
   12    11    31     1    114.300    292.880
   11    12    13     1    112.700    488.273
    3     2    18     1    110.700    313.800
   13    12    32     1    110.700    313.800
    7     6    22     1    110.700    313.800
   33    13    34     1    107.800    276.144
    8    11    10     1     83.000    251.040
    8    11    12     1    117.200    313.800
    3     2    17     1    110.700    313.800
   27     9    28     1    114.300    292.880
    4     3    19     1    110.700    313.800
   34    13    35     1    107.800    276.144
   33    13    35     1    107.800    276.144
   11     8    26     1    117.200    313.800
   23     7    25     1    107.800    276.144
    9     8    11     1     83.000    251.040
   15     1    16     1    107.800    276.144
   14     1    15     1    107.800    276.144
   10    11    12     1    117.200    313.800
   12     3    19     1    110.700    313.800
    7     6     8     1    112.700    488.273
   10     9    27     1    117.200    313.800
   17     2    18     1    107.800    276.144
   11    10    29     1    117.200    313.800
   20     4    21     1    107.800    276.144
    5     4    20     1    109.500    292.880
    4     3    12     1    112.700    488.273
    8     6    22     1    110.700    313.800
    9    10    11     1     83.000    251.040
    9     8    26     1    117.200    313.800
   10     9    28     1    117.200    313.800
    5     4    21     1    109.500    292.880
   11    12    32     1    110.700    313.800
   10    11    31     1    117.200    313.800
   24     7    25     1    107.800    276.144
   14     1    16     1    107.800    276.144
    3    12    11     1    112.700    488.273
   11    10    30     1    117.200    313.800
   29    10    30     1    114.300    292.880

[ dihedrals ]
; IMPROPER DIHEDRAL ANGLES 
;  ai    aj    ak    al funct            c0            c1            c2            c3            c4            c5

[ dihedrals ]
; PROPER DIHEDRAL ANGLES
;  ai    aj    ak    al funct            c0            c1            c2            c3            c4            c5
    4    3    2    1        3       2.301  -1.464   0.837  -1.674  -0.000   0.000
   13   12    3    4        3       2.301  -1.464   0.837  -1.674  -0.000   0.000
   12    3    2    1        3       2.301  -1.464   0.837  -1.674  -0.000   0.000
   13   12    3    2        3       2.301  -1.464   0.837  -1.674  -0.000   0.000
   12    3    4    5        3       2.874   0.582   2.092  -5.548  -0.000   0.000
   13   12   11    8        3       0.000   0.000   0.000  -0.000  -0.000   0.000
   13   12   11   10        3       0.000   0.000   0.000  -0.000  -0.000   0.000
    7    6    5    4        3       1.715   2.845   1.046  -5.607  -0.000   0.000
   12   11    8    6        3       0.000   0.000   0.000  -0.000  -0.000   0.000
   12   11    8    9        3       0.000   0.000   0.000  -0.000  -0.000   0.000
   12   11   10    9        3       0.000   0.000   0.000  -0.000  -0.000   0.000
    6    5    4    3        3       1.715   2.845   1.046  -5.607  -0.000   0.000
   11   12    3    4        3       2.301  -1.464   0.837  -1.674  -0.000   0.000
   11   12    3    2        3       2.301  -1.464   0.837  -1.674  -0.000   0.000
    8    6    5    4        3       1.715   2.845   1.046  -5.607  -0.000   0.000
   11    8    6    7        3       0.000   0.000   0.000  -0.000  -0.000   0.000
    9    8    6    7        3       0.000   0.000   0.000  -0.000  -0.000   0.000
   10   11   12    3        3       0.000   0.000   0.000  -0.000  -0.000   0.000
    8   11   12    3        3       0.000   0.000   0.000  -0.000  -0.000   0.000
   11    8    6    5        3       0.000   0.000   0.000  -0.000  -0.000   0.000
    9    8    6    5        3       0.000   0.000   0.000  -0.000  -0.000   0.000
   10   11    8    6        3       0.000   0.000   0.000  -0.000  -0.000   0.000
   10    9    8    6        3       0.000   0.000   0.000  -0.000  -0.000   0.000
   19    3    2    1        3       0.628   1.883   0.000  -2.510  -0.000   0.000
   17    2    3    4        3       0.628   1.883   0.000  -2.510  -0.000   0.000
   32   12    3    4        3       0.628   1.883   0.000  -2.510  -0.000   0.000
   16    1    2    3        3       0.628   1.883   0.000  -2.510  -0.000   0.000
   32   12    3    2        3       0.628   1.883   0.000  -2.510  -0.000   0.000
   21    4    3    2        3       0.628   1.883   0.000  -2.510  -0.000   0.000
   18    2    3    4        3       0.628   1.883   0.000  -2.510  -0.000   0.000
   18    2    3   12        3       0.628   1.883   0.000  -2.510  -0.000   0.000
   14    1    2    3        3       0.628   1.883   0.000  -2.510  -0.000   0.000
   34   13   12    3        3       0.628   1.883   0.000  -2.510  -0.000   0.000
   17    2    3   12        3       0.628   1.883   0.000  -2.510  -0.000   0.000
   20    4    3   12        3       0.628   1.883   0.000  -2.510  -0.000   0.000
   20    4    3    2        3       0.628   1.883   0.000  -2.510  -0.000   0.000
   33   13   12    3        3       0.628   1.883   0.000  -2.510  -0.000   0.000
   35   13   12    3        3       0.628   1.883   0.000  -2.510  -0.000   0.000
   15    1    2    3        3       0.628   1.883   0.000  -2.510  -0.000   0.000
   21    4    3   12        3       0.628   1.883   0.000  -2.510  -0.000   0.000
   19    3   12   13        3       0.628   1.883   0.000  -2.510  -0.000   0.000
   35   13   12   11        3       0.628   1.883   0.000  -2.510  -0.000   0.000
   24    7    6    8        3       0.628   1.883   0.000  -2.510  -0.000   0.000
   33   13   12   11        3       0.628   1.883   0.000  -2.510  -0.000   0.000
   23    7    6    8        3       0.628   1.883   0.000  -2.510  -0.000   0.000
   19    3   12   11        3       0.628   1.883   0.000  -2.510  -0.000   0.000
   25    7    6    8        3       0.628   1.883   0.000  -2.510  -0.000   0.000
   34   13   12   11        3       0.628   1.883   0.000  -2.510  -0.000   0.000
   19    3    2   17        3       0.628   1.883   0.000  -2.510  -0.000   0.000
   20    4    3   19        3       0.628   1.883   0.000  -2.510  -0.000   0.000
   17    2    1   14        3       0.628   1.883   0.000  -2.510  -0.000   0.000
   24    7    6   22        3       0.628   1.883   0.000  -2.510  -0.000   0.000
   33   13   12   32        3       0.628   1.883   0.000  -2.510  -0.000   0.000
   17    2    1   16        3       0.628   1.883   0.000  -2.510  -0.000   0.000
   34   13   12   32        3       0.628   1.883   0.000  -2.510  -0.000   0.000
   32   12    3   19        3       0.628   1.883   0.000  -2.510  -0.000   0.000
   23    7    6   22        3       0.628   1.883   0.000  -2.510  -0.000   0.000
   18    2    1   14        3       0.628   1.883   0.000  -2.510  -0.000   0.000
   18    2    1   16        3       0.628   1.883   0.000  -2.510  -0.000   0.000
   19    3    2   18        3       0.628   1.883   0.000  -2.510  -0.000   0.000
   25    7    6   22        3       0.628   1.883   0.000  -2.510  -0.000   0.000
   35   13   12   32        3       0.628   1.883   0.000  -2.510  -0.000   0.000
   21    4    3   19        3       0.628   1.883   0.000  -2.510  -0.000   0.000
   17    2    1   15        3       0.628   1.883   0.000  -2.510  -0.000   0.000
   18    2    1   15        3       0.628   1.883   0.000  -2.510  -0.000   0.000
   19    3    4    5        3       0.979   2.937   0.000  -3.916  -0.000   0.000
   23    7    6    5        3       0.979   2.937   0.000  -3.916  -0.000   0.000
   24    7    6    5        3       0.979   2.937   0.000  -3.916  -0.000   0.000
   25    7    6    5        3       0.979   2.937   0.000  -3.916  -0.000   0.000
   32   12   11    8        3       0.628   1.883   0.000  -2.510  -0.000   0.000
   22    6    8   11        3       0.628   1.883   0.000  -2.510  -0.000   0.000
   32   12   11   10        3       0.628   1.883   0.000  -2.510  -0.000   0.000
   22    6    8    9        3       0.628   1.883   0.000  -2.510  -0.000   0.000
   32   12   11   31        3       0.628   1.883   0.000  -2.510  -0.000   0.000
   21    4    5    6        3       1.590   4.770   0.000  -6.360  -0.000   0.000
   20    4    5    6        3       1.590   4.770   0.000  -6.360  -0.000   0.000
   22    6    5    4        3       1.590   4.770   0.000  -6.360  -0.000   0.000
   31   11   12   13        3       0.628   1.883   0.000  -2.510  -0.000   0.000
   26    8    6    7        3       0.628   1.883   0.000  -2.510  -0.000   0.000
   31   11   12    3        3       0.628   1.883   0.000  -2.510  -0.000   0.000
   26    8    6   22        3       0.628   1.883   0.000  -2.510  -0.000   0.000
   26    8    6    5        3       0.979   2.937   0.000  -3.916  -0.000   0.000
   29   10   11   12        3       0.000   0.000   0.000  -0.000  -0.000   0.000
   30   10   11   12        3       0.000   0.000   0.000  -0.000  -0.000   0.000
   28    9    8    6        3       0.000   0.000   0.000  -0.000  -0.000   0.000
   31   11    8    6        3       0.000   0.000   0.000  -0.000  -0.000   0.000
   27    9    8    6        3       0.000   0.000   0.000  -0.000  -0.000   0.000
   26    8   11   12        3       0.000   0.000   0.000  -0.000  -0.000   0.000
   28    9   10   11        3       0.000   0.000   0.000  -0.000  -0.000   0.000
   31   11    8    9        3       0.000   0.000   0.000  -0.000  -0.000   0.000
   29   10    9    8        3       0.000   0.000   0.000  -0.000  -0.000   0.000
   26    8   11   10        3       0.000   0.000   0.000  -0.000  -0.000   0.000
   26    8    9   10        3       0.000   0.000   0.000  -0.000  -0.000   0.000
   30   10    9    8        3       0.000   0.000   0.000  -0.000  -0.000   0.000
   30   10   11    8        3       0.000   0.000   0.000  -0.000  -0.000   0.000
   28    9    8   11        3       0.000   0.000   0.000  -0.000  -0.000   0.000
   29   10   11    8        3       0.000   0.000   0.000  -0.000  -0.000   0.000
   27    9    8   11        3       0.000   0.000   0.000  -0.000  -0.000   0.000
   31   11   10    9        3       0.000   0.000   0.000  -0.000  -0.000   0.000
   27    9   10   11        3       0.000   0.000   0.000  -0.000  -0.000   0.000
   31   11   10   29        3       0.000   0.000   0.000  -0.000  -0.000   0.000
   30   10    9   27        3       0.000   0.000   0.000  -0.000  -0.000   0.000
   28    9    8   26        3       0.000   0.000   0.000  -0.000  -0.000   0.000
   31   11   10   30        3       0.000   0.000   0.000  -0.000  -0.000   0.000
   27    9    8   26        3       0.000   0.000   0.000  -0.000  -0.000   0.000
   31   11    8   26        3       0.000   0.000   0.000  -0.000  -0.000   0.000
   29   10    9   27        3       0.000   0.000   0.000  -0.000  -0.000   0.000
   30   10    9   28        3       0.000   0.000   0.000  -0.000  -0.000   0.000
   29   10    9   28        3       0.000   0.000   0.000  -0.000  -0.000   0.000
    5    4    3    2        3       2.874   0.582   2.092  -5.548  -0.000   0.000

[ pairs ]
     1     4    1
     2     5    1
     3     6    1
     4     7    1
     3     8    1
     4     8    1
     3    10    1
     2    11    1
     1    12    1
     5     9    1
     4    11    1
     2    13    1
     7     9    1
     6    10    1
     5    11    1
     5    12    1
     4    13    1
     3    14    1
     7    11    1
     6    12    1
     3    15    1
     3    16    1
     1    19    1
     9    12    1
     8    13    1
     4    17    1
     4    18    1
     2    20    1
    10    13    1
     2    21    1
     5    19    1
     6    20    1
     4    22    1
     6    21    1
     5    23    1
    12    17    1
     5    24    1
    12    18    1
    11    19    1
     5    25    1
    14    17    1
     9    22    1
     8    23    1
     5    26    1
    15    17    1
    14    18    1
    13    19    1
    12    20    1
     8    24    1
    16    17    1
    15    18    1
    12    21    1
    11    22    1
     8    25    1
     7    26    1
     6    27    1
    16    18    1
     6    28    1
     3    31    1
     2    32    1
    17    19    1
    10    26    1
     4    32    1
     3    33    1
    18    19    1
     8    29    1
     6    31    1
     3    34    1
    12    26    1
    11    27    1
     8    30    1
     3    35    1
    19    20    1
    11    28    1
    19    21    1
     9    31    1
     8    32    1
    12    29    1
    12    30    1
    10    32    1
    13    31    1
    11    33    1
    22    23    1
    11    34    1
    22    24    1
    11    35    1
    22    25    1
    22    26    1
    19    32    1
    26    27    1
    26    28    1
    27    29    1
    28    29    1
    27    30    1
    26    31    1
    28    30    1
    29    31    1
    30    31    1
    31    32    1
    32    33    1
    32    34    1
    32    35    1

