LIGPARGEN GENERATED GRO FILE
   33
    1UNK    C00    1   0.100   0.100   0.000
    1UNK    C01    2  -0.052   0.100   0.000
    1UNK    C02    3  -0.108   0.100   0.143
    1UNK    C03    4  -0.263   0.100   0.149
    1UNK    C04    5  -0.330  -0.016   0.073
    1UNK    C05    6  -0.300  -0.155   0.128
    1UNK    C06    7  -0.313   0.105   0.295
    1UNK    O07    8  -0.265   0.222   0.364
    1UNK    C08    9  -0.326   0.337   0.331
    1UNK    O09   10  -0.420   0.349   0.254
    1UNK    O0A   11  -0.260   0.438   0.392
    1UNK    C0B   12  -0.285   0.568   0.338
    1UNK    C0C   13  -0.188   0.591   0.223
    1UNK    H0D   14   0.138   0.100  -0.103
    1UNK    H0E   15   0.139   0.011   0.051
    1UNK    H0F   16   0.139   0.189   0.051
    1UNK    H0G   17  -0.086   0.011  -0.055
    1UNK    H0H   18  -0.089   0.188  -0.054
    1UNK    H0I   19  -0.071   0.189   0.194
    1UNK    H0J   20  -0.069   0.014   0.197
    1UNK    H0K   21  -0.295   0.193   0.098
    1UNK    H0M   22  -0.300  -0.013  -0.033
    1UNK    H0N   23  -0.439  -0.002   0.073
    1UNK    H0O   24  -0.194  -0.170   0.148
    1UNK    H0P   25  -0.331  -0.231   0.057
    1UNK    H0Q   26  -0.355  -0.172   0.221
    1UNK    H0R   27  -0.275   0.018   0.350
    1UNK    H0S   28  -0.422   0.101   0.300
    1UNK    H0T   29  -0.267   0.642   0.417
    1UNK    H0U   30  -0.389   0.580   0.305
    1UNK    H0V   31  -0.085   0.582   0.259
    1UNK    H0W   32  -0.201   0.691   0.179
    1UNK    H0X   33  -0.201   0.516   0.145
   1.00000   1.00000   1.00000

