
;
; GENERATED BY LigParGen Server
; Jorgensen Lab @ Yale University 
;
[ atomtypes ]
  opls_818  H818     1.0080     0.000    A    2.50000E-01   1.25520E-01
  opls_824  H824     1.0080     0.000    A    2.50000E-01   1.25520E-01
  opls_805  C805    12.0110     0.000    A    3.50000E-01   2.76144E-01
  opls_828  H828     1.0080     0.000    A    2.50000E-01   1.25520E-01
  opls_813  H813     1.0080     0.000    A    2.50000E-01   1.25520E-01
  opls_802  C802    12.0110     0.000    A    3.50000E-01   2.76144E-01
  opls_815  H815     1.0080     0.000    A    2.50000E-01   1.25520E-01
  opls_809  C809    12.0110     0.000    A    3.50000E-01   2.76144E-01
  opls_822  H822     1.0080     0.000    A    2.50000E-01   1.25520E-01
  opls_803  C803    12.0110     0.000    A    3.50000E-01   2.76144E-01
  opls_825  H825     1.0080     0.000    A    2.50000E-01   1.25520E-01
  opls_814  H814     1.0080     0.000    A    2.50000E-01   1.25520E-01
  opls_821  H821     1.0080     0.000    A    2.50000E-01   1.25520E-01
  opls_820  H820     1.0080     0.000    A    2.50000E-01   1.25520E-01
  opls_829  H829     1.0080     0.000    A    2.50000E-01   1.25520E-01
  opls_816  H816     1.0080     0.000    A    2.50000E-01   1.25520E-01
  opls_800  C800    12.0110     0.000    A    3.50000E-01   2.76144E-01
  opls_806  C806    12.0110     0.000    A    3.50000E-01   2.76144E-01
  opls_823  H823     1.0080     0.000    A    2.50000E-01   1.25520E-01
  opls_826  H826     1.0080     0.000    A    2.50000E-01   1.25520E-01
  opls_819  H819     1.0080     0.000    A    2.50000E-01   1.25520E-01
  opls_804  C804    12.0110     0.000    A    3.50000E-01   2.76144E-01
  opls_827  H827     1.0080     0.000    A    2.50000E-01   1.25520E-01
  opls_801  C801    12.0110     0.000    A    3.50000E-01   2.76144E-01
  opls_810  O810    15.9990     0.000    A    2.96000E-01   7.11280E-01
  opls_807  O807    15.9990     0.000    A    2.90000E-01   5.85760E-01
  opls_817  H817     1.0080     0.000    A    2.50000E-01   1.25520E-01
  opls_812  H812     1.0080     0.000    A    2.50000E-01   1.25520E-01
  opls_811  O811    15.9990     0.000    A    2.96000E-01   7.11280E-01
  opls_808  S808    32.0600     0.000    A    3.55000E-01   1.04600E+00
[ moleculetype ]
; Name               nrexcl
UNK                   3
[ atoms ]
;   nr       type  resnr residue  atom   cgnr     charge       mass  
     1   opls_800      1    UNK   C00      1    -0.2392    12.0110 
     2   opls_801      1    UNK   C01      1    -0.1788    12.0110 
     3   opls_802      1    UNK   C02      1    -0.1786    12.0110 
     4   opls_803      1    UNK   C03      1    -0.1783    12.0110 
     5   opls_804      1    UNK   C04      1    -0.1796    12.0110 
     6   opls_805      1    UNK   C05      1    -0.1691    12.0110 
     7   opls_806      1    UNK   C06      1      0.086    12.0110 
     8   opls_807      1    UNK   O07      1    -0.5609    15.9990 
     9   opls_808      1    UNK   S08      1     1.3761    32.0600 
    10   opls_809      1    UNK   C09      1    -0.5588    12.0110 
    11   opls_810      1    UNK   O0A      1    -0.5692    15.9990 
    12   opls_811      1    UNK   O0B      1    -0.5692    15.9990 
    13   opls_812      1    UNK   H0C      1     0.0815     1.0080 
    14   opls_813      1    UNK   H0D      1     0.0815     1.0080 
    15   opls_814      1    UNK   H0E      1     0.0815     1.0080 
    16   opls_815      1    UNK   H0F      1     0.0887     1.0080 
    17   opls_816      1    UNK   H0G      1     0.0887     1.0080 
    18   opls_817      1    UNK   H0H      1     0.0904     1.0080 
    19   opls_818      1    UNK   H0I      1     0.0904     1.0080 
    20   opls_819      1    UNK   H0J      1     0.0898     1.0080 
    21   opls_820      1    UNK   H0K      1     0.0898     1.0080 
    22   opls_821      1    UNK   H0M      1     0.0979     1.0080 
    23   opls_822      1    UNK   H0N      1     0.0979     1.0080 
    24   opls_823      1    UNK   H0O      1     0.1093     1.0080 
    25   opls_824      1    UNK   H0P      1     0.1093     1.0080 
    26   opls_825      1    UNK   H0Q      1     0.1038     1.0080 
    27   opls_826      1    UNK   H0R      1     0.1038     1.0080 
    28   opls_827      1    UNK   H0S      1     0.1718     1.0080 
    29   opls_828      1    UNK   H0T      1     0.1718     1.0080 
    30   opls_829      1    UNK   H0U      1     0.1718     1.0080 
[ bonds ]
    2     1     1      0.1529 224262.400
    3     2     1      0.1529 224262.400
    4     3     1      0.1529 224262.400
    5     4     1      0.1529 224262.400
    6     5     1      0.1529 224262.400
    7     6     1      0.1529 224262.400
    8     7     1      0.1410 267776.000
    9     8     1      0.1660 245994.096
   10     9     1      0.1770 284512.000
   11     9     1      0.1440 585760.000
   12     9     1      0.1440 585760.000
   13     1     1      0.1090 284512.000
   14     1     1      0.1090 284512.000
   15     1     1      0.1090 284512.000
   16     2     1      0.1090 284512.000
   17     2     1      0.1090 284512.000
   18     3     1      0.1090 284512.000
   19     3     1      0.1090 284512.000
   20     4     1      0.1090 284512.000
   21     4     1      0.1090 284512.000
   22     5     1      0.1090 284512.000
   23     5     1      0.1090 284512.000
   24     6     1      0.1090 284512.000
   25     6     1      0.1090 284512.000
   26     7     1      0.1090 284512.000
   27     7     1      0.1090 284512.000
   28    10     1      0.1090 284512.000
   29    10     1      0.1090 284512.000
   30    10     1      0.1090 284512.000

[ angles ]
;  ai    aj    ak funct            c0            c1            c2            c3 
    1     2     3     1    112.700    488.273
    2     3     4     1    112.700    488.273
    3     4     5     1    112.700    488.273
    4     5     6     1    112.700    488.273
    5     6     7     1    112.700    488.273
    6     7     8     1    109.500    418.400
    7     8     9     1    114.540    581.660
    8     9    10     1    104.360    658.311
    8     9    11     1    104.360    658.311
    8     9    12     1    104.360    658.311
    2     1    13     1    110.700    313.800
    2     1    14     1    110.700    313.800
    2     1    15     1    110.700    313.800
    1     2    16     1    110.700    313.800
    1     2    17     1    110.700    313.800
    2     3    18     1    110.700    313.800
    2     3    19     1    110.700    313.800
    3     4    20     1    110.700    313.800
    3     4    21     1    110.700    313.800
    4     5    22     1    110.700    313.800
    4     5    23     1    110.700    313.800
    5     6    24     1    110.700    313.800
    5     6    25     1    110.700    313.800
    6     7    26     1    110.700    313.800
    6     7    27     1    110.700    313.800
    9    10    28     1    109.500    292.880
    9    10    29     1    109.500    292.880
    9    10    30     1    109.500    292.880
    8     7    27     1    109.500    292.880
    7     6    24     1    110.700    313.800
   13     1    14     1    107.800    276.144
   22     5    23     1    107.800    276.144
    6     5    22     1    110.700    313.800
    3     2    17     1    110.700    313.800
   28    10    30     1    107.800    276.144
    7     6    25     1    110.700    313.800
    4     3    19     1    110.700    313.800
    8     7    26     1    109.500    292.880
   28    10    29     1    107.800    276.144
    3     2    16     1    110.700    313.800
    4     3    18     1    110.700    313.800
   16     2    17     1    107.800    276.144
   14     1    15     1    107.800    276.144
   18     3    19     1    107.800    276.144
   26     7    27     1    107.800    276.144
   24     6    25     1    107.800    276.144
    5     4    20     1    110.700    313.800
   10     9    11     1    108.900    619.232
   11     9    12     1    119.000    870.272
    6     5    23     1    110.700    313.800
    5     4    21     1    110.700    313.800
   13     1    15     1    107.800    276.144
   10     9    12     1    108.900    619.232
   20     4    21     1    107.800    276.144
   29    10    30     1    107.800    276.144

[ dihedrals ]
; IMPROPER DIHEDRAL ANGLES 
;  ai    aj    ak    al funct            c0            c1            c2            c3            c4            c5

[ dihedrals ]
; PROPER DIHEDRAL ANGLES
;  ai    aj    ak    al funct            c0            c1            c2            c3            c4            c5
    4    3    2    1        3       2.301  -1.464   0.837  -1.674  -0.000   0.000
    5    4    3    2        3       2.301  -1.464   0.837  -1.674  -0.000   0.000
    6    5    4    3        3       2.301  -1.464   0.837  -1.674  -0.000   0.000
    7    6    5    4        3       2.301  -1.464   0.837  -1.674  -0.000   0.000
   10    9    8    7        3       1.715   2.845   1.046  -5.607  -0.000   0.000
   20    4    3    2        3       0.628   1.883   0.000  -2.510  -0.000   0.000
   23    5    6    7        3       0.628   1.883   0.000  -2.510  -0.000   0.000
   21    4    5    6        3       0.628   1.883   0.000  -2.510  -0.000   0.000
   26    7    6    5        3       0.628   1.883   0.000  -2.510  -0.000   0.000
   16    2    3    4        3       0.628   1.883   0.000  -2.510  -0.000   0.000
   25    6    5    4        3       0.628   1.883   0.000  -2.510  -0.000   0.000
   18    3    2    1        3       0.628   1.883   0.000  -2.510  -0.000   0.000
   19    3    2    1        3       0.628   1.883   0.000  -2.510  -0.000   0.000
   23    5    4    3        3       0.628   1.883   0.000  -2.510  -0.000   0.000
   14    1    2    3        3       0.628   1.883   0.000  -2.510  -0.000   0.000
   20    4    5    6        3       0.628   1.883   0.000  -2.510  -0.000   0.000
   22    5    4    3        3       0.628   1.883   0.000  -2.510  -0.000   0.000
   17    2    3    4        3       0.628   1.883   0.000  -2.510  -0.000   0.000
   27    7    6    5        3       0.628   1.883   0.000  -2.510  -0.000   0.000
   22    5    6    7        3       0.628   1.883   0.000  -2.510  -0.000   0.000
   19    3    4    5        3       0.628   1.883   0.000  -2.510  -0.000   0.000
   13    1    2    3        3       0.628   1.883   0.000  -2.510  -0.000   0.000
   21    4    3    2        3       0.628   1.883   0.000  -2.510  -0.000   0.000
   24    6    5    4        3       0.628   1.883   0.000  -2.510  -0.000   0.000
   15    1    2    3        3       0.628   1.883   0.000  -2.510  -0.000   0.000
   18    3    4    5        3       0.628   1.883   0.000  -2.510  -0.000   0.000
   26    7    6   24        3       0.628   1.883   0.000  -2.510  -0.000   0.000
   24    6    5   23        3       0.628   1.883   0.000  -2.510  -0.000   0.000
   25    6    5   22        3       0.628   1.883   0.000  -2.510  -0.000   0.000
   21    4    3   19        3       0.628   1.883   0.000  -2.510  -0.000   0.000
   27    7    6   25        3       0.628   1.883   0.000  -2.510  -0.000   0.000
   23    5    4   21        3       0.628   1.883   0.000  -2.510  -0.000   0.000
   20    4    3   19        3       0.628   1.883   0.000  -2.510  -0.000   0.000
   18    3    2   16        3       0.628   1.883   0.000  -2.510  -0.000   0.000
   17    2    1   14        3       0.628   1.883   0.000  -2.510  -0.000   0.000
   17    2    1   13        3       0.628   1.883   0.000  -2.510  -0.000   0.000
   16    2    1   14        3       0.628   1.883   0.000  -2.510  -0.000   0.000
   19    3    2   16        3       0.628   1.883   0.000  -2.510  -0.000   0.000
   22    5    4   21        3       0.628   1.883   0.000  -2.510  -0.000   0.000
   18    3    2   17        3       0.628   1.883   0.000  -2.510  -0.000   0.000
   17    2    1   15        3       0.628   1.883   0.000  -2.510  -0.000   0.000
   26    7    6   25        3       0.628   1.883   0.000  -2.510  -0.000   0.000
   20    4    3   18        3       0.628   1.883   0.000  -2.510  -0.000   0.000
   19    3    2   17        3       0.628   1.883   0.000  -2.510  -0.000   0.000
   16    2    1   13        3       0.628   1.883   0.000  -2.510  -0.000   0.000
   22    5    4   20        3       0.628   1.883   0.000  -2.510  -0.000   0.000
   23    5    4   20        3       0.628   1.883   0.000  -2.510  -0.000   0.000
   27    7    6   24        3       0.628   1.883   0.000  -2.510  -0.000   0.000
   16    2    1   15        3       0.628   1.883   0.000  -2.510  -0.000   0.000
   21    4    3   18        3       0.628   1.883   0.000  -2.510  -0.000   0.000
   24    6    5   22        3       0.628   1.883   0.000  -2.510  -0.000   0.000
   25    6    5   23        3       0.628   1.883   0.000  -2.510  -0.000   0.000
   25    6    7    8        3       0.979   2.937   0.000  -3.916  -0.000   0.000
   24    6    7    8        3       0.979   2.937   0.000  -3.916  -0.000   0.000
   26    7    8    9        3       1.590   4.770   0.000  -6.360  -0.000   0.000
   27    7    8    9        3       1.590   4.770   0.000  -6.360  -0.000   0.000
   30   10    9    8        3       0.732   2.197   0.000  -2.929  -0.000   0.000
   28   10    9    8        3       0.732   2.197   0.000  -2.929  -0.000   0.000
   29   10    9    8        3       0.732   2.197   0.000  -2.929  -0.000   0.000
   29   10    9   11        3       0.732   2.197   0.000  -2.929  -0.000   0.000
   28   10    9   12        3       0.732   2.197   0.000  -2.929  -0.000   0.000
   30   10    9   12        3       0.732   2.197   0.000  -2.929  -0.000   0.000
   28   10    9   11        3       0.732   2.197   0.000  -2.929  -0.000   0.000
   29   10    9   12        3       0.732   2.197   0.000  -2.929  -0.000   0.000
   30   10    9   11        3       0.732   2.197   0.000  -2.929  -0.000   0.000
    8    7    6    5        3       2.874   0.582   2.092  -5.548  -0.000   0.000
   12    9    8    7        3       0.000   0.000   0.000  -0.000  -0.000   0.000
   11    9    8    7        3       0.000   0.000   0.000  -0.000  -0.000   0.000
    9    8    7    6        3       1.715   2.845   1.046  -5.607  -0.000   0.000

[ pairs ]
     1     4    1
     2     5    1
     3     6    1
     4     7    1
     5     8    1
     6     9    1
     3    13    1
     7    10    1
     3    14    1
     7    11    1
     3    15    1
     7    12    1
     1    18    1
     4    16    1
     1    19    1
     4    17    1
     2    20    1
     5    18    1
     2    21    1
     5    19    1
     3    22    1
     6    20    1
     3    23    1
     6    21    1
     4    24    1
    13    16    1
     7    22    1
     4    25    1
    14    16    1
    13    17    1
     7    23    1
    15    16    1
    14    17    1
     5    26    1
    15    17    1
     8    24    1
     5    27    1
     8    25    1
    16    18    1
    17    18    1
    16    19    1
     9    26    1
    17    19    1
     9    27    1
     8    28    1
     8    29    1
    18    20    1
     8    30    1
    19    20    1
    18    21    1
    11    28    1
    19    21    1
    12    28    1
    11    29    1
    12    29    1
    11    30    1
    20    22    1
    12    30    1
    21    22    1
    20    23    1
    21    23    1
    22    24    1
    23    24    1
    22    25    1
    23    25    1
    24    26    1
    25    26    1
    24    27    1
    25    27    1

