LIGPARGEN GENERATED GRO FILE
   37
    1UNK    C00    1   0.100   0.100   0.000
    1UNK    C01    2  -0.052   0.100   0.000
    1UNK    C02    3  -0.108   0.100   0.143
    1UNK    C03    4  -0.261   0.100   0.149
    1UNK    C04    5  -0.327  -0.018   0.076
    1UNK    C05    6  -0.287  -0.154   0.130
    1UNK    C06    7  -0.326   0.146   0.280
    1UNK    C07    8  -0.248   0.189   0.401
    1UNK    O08    9  -0.340   0.232   0.500
    1UNK    C09   10  -0.274   0.275   0.618
    1UNK    C0A   11  -0.341   0.234   0.157
    1UNK    C0B   12  -0.268   0.365   0.143
    1UNK    C0C   13  -0.482   0.244   0.101
    1UNK    H0D   14   0.138   0.095  -0.102
    1UNK    H0E   15   0.139   0.013   0.055
    1UNK    H0F   16   0.139   0.191   0.047
    1UNK    H0G   17  -0.086   0.011  -0.055
    1UNK    H0H   18  -0.089   0.188  -0.055
    1UNK    H0I   19  -0.066   0.185   0.196
    1UNK    H0J   20  -0.071   0.012   0.196
    1UNK    H0K   21  -0.303  -0.012  -0.031
    1UNK    H0M   22  -0.436  -0.012   0.082
    1UNK    H0N   23  -0.178  -0.169   0.128
    1UNK    H0O   24  -0.332  -0.233   0.069
    1UNK    H0P   25  -0.321  -0.166   0.233
    1UNK    H0Q   26  -0.411   0.087   0.313
    1UNK    H0R   27  -0.178   0.271   0.379
    1UNK    H0S   28  -0.190   0.104   0.439
    1UNK    H0T   29  -0.350   0.307   0.690
    1UNK    H0U   30  -0.209   0.360   0.596
    1UNK    H0V   31  -0.216   0.193   0.662
    1UNK    H0W   32  -0.167   0.366   0.186
    1UNK    H0X   33  -0.324   0.445   0.193
    1UNK    H0Y   34  -0.258   0.392   0.037
    1UNK    H0Z   35  -0.546   0.162   0.134
    1UNK    H10   36  -0.478   0.243  -0.009
    1UNK    H11   37  -0.529   0.337   0.134
   1.00000   1.00000   1.00000

