LIGPARGEN GENERATED GRO FILE
   30
    1UNK    C00    1   0.100   0.100   0.000
    1UNK    C01    2  -0.052   0.100   0.000
    1UNK    C02    3  -0.107   0.100   0.143
    1UNK    C03    4  -0.260   0.100   0.145
    1UNK    C04    5  -0.310   0.100   0.290
    1UNK    C05    6  -0.463   0.100   0.298
    1UNK    C06    7  -0.511   0.100   0.443
    1UNK    O07    8  -0.464   0.218   0.507
    1UNK    S08    9  -0.495   0.233   0.666
    1UNK    C09   10  -0.410   0.387   0.691
    1UNK    O0A   11  -0.637   0.254   0.684
    1UNK    O0B   12  -0.424   0.129   0.737
    1UNK    H0C   13   0.138   0.100  -0.103
    1UNK    H0D   14   0.139   0.011   0.051
    1UNK    H0E   15   0.139   0.189   0.051
    1UNK    H0F   16  -0.088   0.012  -0.054
    1UNK    H0G   17  -0.088   0.188  -0.054
    1UNK    H0H   18  -0.069   0.188   0.196
    1UNK    H0I   19  -0.069   0.012   0.196
    1UNK    H0J   20  -0.298   0.011   0.093
    1UNK    H0K   21  -0.298   0.188   0.093
    1UNK    H0M   22  -0.270   0.188   0.341
    1UNK    H0N   23  -0.271   0.012   0.342
    1UNK    H0O   24  -0.503   0.012   0.246
    1UNK    H0P   25  -0.501   0.189   0.247
    1UNK    H0Q   26  -0.473   0.011   0.495
    1UNK    H0R   27  -0.621   0.098   0.445
    1UNK    H0S   28  -0.457   0.463   0.627
    1UNK    H0T   29  -0.305   0.374   0.665
    1UNK    H0U   30  -0.420   0.415   0.796
   1.00000   1.00000   1.00000

