LIGPARGEN GENERATED GRO FILE
   28
    1UNK    C00    1   0.100   0.100   0.000
    1UNK    C01    2  -0.054   0.100   0.000
    1UNK    C02    3  -0.102   0.100   0.146
    1UNK    O03    4  -0.242   0.077   0.158
    1UNK    C04    5  -0.319   0.196   0.151
    1UNK    C05    6  -0.362   0.229   0.009
    1UNK    C06    7  -0.270   0.186  -0.105
    1UNK    C07    8  -0.118   0.211  -0.091
    1UNK    C08    9  -0.089   0.354  -0.041
    1UNK    C09   10  -0.058   0.201  -0.234
    1UNK    H0A   11   0.139   0.022   0.066
    1UNK    H0B   12   0.141   0.195   0.035
    1UNK    H0C   13   0.140   0.079  -0.100
    1UNK    H0D   14  -0.084   0.003  -0.043
    1UNK    H0E   15  -0.071   0.191   0.200
    1UNK    H0F   16  -0.054   0.016   0.198
    1UNK    H0G   17  -0.267   0.280   0.198
    1UNK    H0H   18  -0.409   0.180   0.211
    1UNK    H0I   19  -0.382   0.337   0.002
    1UNK    H0J   20  -0.459   0.181  -0.009
    1UNK    H0K   21  -0.307   0.236  -0.195
    1UNK    H0M   22  -0.286   0.079  -0.124
    1UNK    H0N   23  -0.121   0.370   0.062
    1UNK    H0O   24  -0.140   0.428  -0.103
    1UNK    H0P   25   0.018   0.377  -0.045
    1UNK    H0Q   26  -0.069   0.100  -0.274
    1UNK    H0R   27   0.048   0.227  -0.236
    1UNK    H0S   28  -0.108   0.271  -0.302
   1.00000   1.00000   1.00000

