
;
; GENERATED BY LigParGen Server
; Jorgensen Lab @ Yale University 
;
[ atomtypes ]
  opls_818  H818     1.0080     0.000    A    2.50000E-01   1.25520E-01
  opls_803  O803    15.9990     0.000    A    2.90000E-01   5.85760E-01
  opls_824  H824     1.0080     0.000    A    2.50000E-01   1.25520E-01
  opls_805  C805    12.0110     0.000    A    3.50000E-01   2.76144E-01
  opls_813  H813     1.0080     0.000    A    2.50000E-01   1.25520E-01
  opls_802  C802    12.0110     0.000    A    3.50000E-01   2.76144E-01
  opls_815  H815     1.0080     0.000    A    2.50000E-01   1.25520E-01
  opls_809  C809    12.0110     0.000    A    3.50000E-01   2.76144E-01
  opls_822  H822     1.0080     0.000    A    2.50000E-01   1.25520E-01
  opls_807  C807    12.0110     0.000    A    3.50000E-01   2.76144E-01
  opls_825  H825     1.0080     0.000    A    2.50000E-01   1.25520E-01
  opls_814  H814     1.0080     0.000    A    2.50000E-01   1.25520E-01
  opls_821  H821     1.0080     0.000    A    2.50000E-01   1.25520E-01
  opls_820  H820     1.0080     0.000    A    2.50000E-01   1.25520E-01
  opls_811  H811     1.0080     0.000    A    2.50000E-01   1.25520E-01
  opls_810  H810     1.0080     0.000    A    2.50000E-01   1.25520E-01
  opls_816  H816     1.0080     0.000    A    2.50000E-01   1.25520E-01
  opls_800  C800    12.0110     0.000    A    3.50000E-01   2.76144E-01
  opls_806  C806    12.0110     0.000    A    3.50000E-01   2.76144E-01
  opls_823  H823     1.0080     0.000    A    2.50000E-01   1.25520E-01
  opls_826  H826     1.0080     0.000    A    2.50000E-01   1.25520E-01
  opls_819  H819     1.0080     0.000    A    2.50000E-01   1.25520E-01
  opls_804  C804    12.0110     0.000    A    3.50000E-01   2.76144E-01
  opls_827  H827     1.0080     0.000    A    2.50000E-01   1.25520E-01
  opls_801  C801    12.0110     0.000    A    3.50000E-01   2.76144E-01
  opls_808  C808    12.0110     0.000    A    3.50000E-01   2.76144E-01
  opls_817  H817     1.0080     0.000    A    2.50000E-01   1.25520E-01
  opls_812  H812     1.0080     0.000    A    2.50000E-01   1.25520E-01
[ moleculetype ]
; Name               nrexcl
UNK                   3
[ atoms ]
;   nr       type  resnr residue  atom   cgnr     charge       mass  
     1   opls_800      1    UNK   C00      1    -0.2358    12.0110 
     2   opls_801      1    UNK   C01      1    -0.1356    12.0110 
     3   opls_802      1    UNK   C02      1     0.0129    12.0110 
     4   opls_803      1    UNK   O03      1    -0.3677    15.9990 
     5   opls_804      1    UNK   C04      1     0.0136    12.0110 
     6   opls_805      1    UNK   C05      1    -0.2038    12.0110 
     7   opls_806      1    UNK   C06      1    -0.1572    12.0110 
     8   opls_807      1    UNK   C07      1    -0.0343    12.0110 
     9   opls_808      1    UNK   C08      1    -0.2265    12.0110 
    10   opls_809      1    UNK   C09      1    -0.2345    12.0110 
    11   opls_810      1    UNK   H0A      1      0.083     1.0080 
    12   opls_811      1    UNK   H0B      1      0.083     1.0080 
    13   opls_812      1    UNK   H0C      1      0.083     1.0080 
    14   opls_813      1    UNK   H0D      1     0.1078     1.0080 
    15   opls_814      1    UNK   H0E      1     0.0939     1.0080 
    16   opls_815      1    UNK   H0F      1     0.0939     1.0080 
    17   opls_816      1    UNK   H0G      1     0.0896     1.0080 
    18   opls_817      1    UNK   H0H      1     0.0896     1.0080 
    19   opls_818      1    UNK   H0I      1     0.0889     1.0080 
    20   opls_819      1    UNK   H0J      1     0.0889     1.0080 
    21   opls_820      1    UNK   H0K      1     0.0902     1.0080 
    22   opls_821      1    UNK   H0M      1     0.0902     1.0080 
    23   opls_822      1    UNK   H0N      1     0.0804     1.0080 
    24   opls_823      1    UNK   H0O      1     0.0804     1.0080 
    25   opls_824      1    UNK   H0P      1     0.0804     1.0080 
    26   opls_825      1    UNK   H0Q      1     0.0819     1.0080 
    27   opls_826      1    UNK   H0R      1     0.0819     1.0080 
    28   opls_827      1    UNK   H0S      1     0.0819     1.0080 
[ bonds ]
    2     1     1      0.1529 224262.400
    3     2     1      0.1529 224262.400
    4     3     1      0.1410 267776.000
    5     4     1      0.1410 267776.000
    6     5     1      0.1529 224262.400
    7     6     1      0.1529 224262.400
    8     2     1      0.1529 224262.400
    9     8     1      0.1529 224262.400
   10     8     1      0.1529 224262.400
   11     1     1      0.1090 284512.000
   12     1     1      0.1090 284512.000
   13     1     1      0.1090 284512.000
   14     2     1      0.1090 284512.000
   15     3     1      0.1090 284512.000
   16     3     1      0.1090 284512.000
   17     5     1      0.1090 284512.000
   18     5     1      0.1090 284512.000
   19     6     1      0.1090 284512.000
   20     6     1      0.1090 284512.000
   21     7     1      0.1090 284512.000
   22     7     1      0.1090 284512.000
   23     9     1      0.1090 284512.000
   24     9     1      0.1090 284512.000
   25     9     1      0.1090 284512.000
   26    10     1      0.1090 284512.000
   27    10     1      0.1090 284512.000
   28    10     1      0.1090 284512.000
    8     7     1      0.1529 224262.400

[ angles ]
;  ai    aj    ak funct            c0            c1            c2            c3 
    1     2     3     1    112.700    488.273
    2     3     4     1    109.500    418.400
    3     4     5     1    109.500    502.080
    4     5     6     1    109.500    418.400
    5     6     7     1    112.700    488.273
    1     2     8     1    112.700    488.273
    2     8     9     1    112.700    488.273
    2     8    10     1    112.700    488.273
    2     1    11     1    110.700    313.800
    2     1    12     1    110.700    313.800
    2     1    13     1    110.700    313.800
    1     2    14     1    110.700    313.800
    2     3    15     1    110.700    313.800
    2     3    16     1    110.700    313.800
    4     5    17     1    109.500    292.880
    4     5    18     1    109.500    292.880
    5     6    19     1    110.700    313.800
    5     6    20     1    110.700    313.800
    6     7    21     1    110.700    313.800
    6     7    22     1    110.700    313.800
    8     9    23     1    110.700    313.800
    8     9    24     1    110.700    313.800
    8     9    25     1    110.700    313.800
    8    10    26     1    110.700    313.800
    8    10    27     1    110.700    313.800
    8    10    28     1    110.700    313.800
   23     9    24     1    107.800    276.144
   26    10    27     1    107.800    276.144
   27    10    28     1    107.800    276.144
   17     5    18     1    107.800    276.144
    3     2    14     1    110.700    313.800
   23     9    25     1    107.800    276.144
    9     8    10     1    112.700    488.273
   11     1    12     1    107.800    276.144
    2     8     7     1    112.700    488.273
    6     5    17     1    110.700    313.800
   15     3    16     1    107.800    276.144
    6     7     8     1    112.700    488.273
    3     2     8     1    112.700    488.273
   24     9    25     1    107.800    276.144
   19     6    20     1    107.800    276.144
    7     6    19     1    110.700    313.800
   12     1    13     1    107.800    276.144
   21     7    22     1    107.800    276.144
    7     8    10     1    112.700    488.273
   11     1    13     1    107.800    276.144
    8     7    22     1    110.700    313.800
   26    10    28     1    107.800    276.144
    8     7    21     1    110.700    313.800
    4     3    16     1    109.500    292.880
    8     2    14     1    110.700    313.800
    7     8     9     1    112.700    488.273
    4     3    15     1    109.500    292.880
    7     6    20     1    110.700    313.800
    6     5    18     1    110.700    313.800

[ dihedrals ]
; IMPROPER DIHEDRAL ANGLES 
;  ai    aj    ak    al funct            c0            c1            c2            c3            c4            c5

[ dihedrals ]
; PROPER DIHEDRAL ANGLES
;  ai    aj    ak    al funct            c0            c1            c2            c3            c4            c5
   10    8    2    1        3       2.301  -1.464   0.837  -1.674  -0.000   0.000
    6    7    8    2        3       2.301  -1.464   0.837  -1.674  -0.000   0.000
    9    8    2    3        3       2.301  -1.464   0.837  -1.674  -0.000   0.000
    7    8    2    1        3       2.301  -1.464   0.837  -1.674  -0.000   0.000
   10    8    7    6        3       2.301  -1.464   0.837  -1.674  -0.000   0.000
    8    7    6    5        3       2.301  -1.464   0.837  -1.674  -0.000   0.000
    9    8    2    1        3       2.301  -1.464   0.837  -1.674  -0.000   0.000
    9    8    7    6        3       2.301  -1.464   0.837  -1.674  -0.000   0.000
   10    8    2    3        3       2.301  -1.464   0.837  -1.674  -0.000   0.000
    7    8    2    3        3       2.301  -1.464   0.837  -1.674  -0.000   0.000
    8    2    3    4        3       2.874   0.582   2.092  -5.548  -0.000   0.000
    7    6    5    4        3       2.874   0.582   2.092  -5.548  -0.000   0.000
    6    5    4    3        3       1.715   2.845   1.046  -5.607  -0.000   0.000
    5    4    3    2        3       1.715   2.845   1.046  -5.607  -0.000   0.000
   27   10    8    9        3       0.628   1.883   0.000  -2.510  -0.000   0.000
   28   10    8    2        3       0.628   1.883   0.000  -2.510  -0.000   0.000
   15    3    2    8        3       0.628   1.883   0.000  -2.510  -0.000   0.000
   14    2    8    7        3       0.628   1.883   0.000  -2.510  -0.000   0.000
   22    7    8    9        3       0.628   1.883   0.000  -2.510  -0.000   0.000
   12    1    2    3        3       0.628   1.883   0.000  -2.510  -0.000   0.000
   20    6    7    8        3       0.628   1.883   0.000  -2.510  -0.000   0.000
   23    9    8    7        3       0.628   1.883   0.000  -2.510  -0.000   0.000
   24    9    8   10        3       0.628   1.883   0.000  -2.510  -0.000   0.000
   13    1    2    8        3       0.628   1.883   0.000  -2.510  -0.000   0.000
   21    7    6    5        3       0.628   1.883   0.000  -2.510  -0.000   0.000
   28   10    8    9        3       0.628   1.883   0.000  -2.510  -0.000   0.000
   14    2    8    9        3       0.628   1.883   0.000  -2.510  -0.000   0.000
   17    5    6    7        3       0.628   1.883   0.000  -2.510  -0.000   0.000
   16    3    2    1        3       0.628   1.883   0.000  -2.510  -0.000   0.000
   25    9    8   10        3       0.628   1.883   0.000  -2.510  -0.000   0.000
   27   10    8    2        3       0.628   1.883   0.000  -2.510  -0.000   0.000
   26   10    8    7        3       0.628   1.883   0.000  -2.510  -0.000   0.000
   14    2    8   10        3       0.628   1.883   0.000  -2.510  -0.000   0.000
   28   10    8    7        3       0.628   1.883   0.000  -2.510  -0.000   0.000
   21    7    8    2        3       0.628   1.883   0.000  -2.510  -0.000   0.000
   25    9    8    7        3       0.628   1.883   0.000  -2.510  -0.000   0.000
   11    1    2    8        3       0.628   1.883   0.000  -2.510  -0.000   0.000
   22    7    8   10        3       0.628   1.883   0.000  -2.510  -0.000   0.000
   11    1    2    3        3       0.628   1.883   0.000  -2.510  -0.000   0.000
   12    1    2    8        3       0.628   1.883   0.000  -2.510  -0.000   0.000
   23    9    8   10        3       0.628   1.883   0.000  -2.510  -0.000   0.000
   23    9    8    2        3       0.628   1.883   0.000  -2.510  -0.000   0.000
   24    9    8    2        3       0.628   1.883   0.000  -2.510  -0.000   0.000
   21    7    8    9        3       0.628   1.883   0.000  -2.510  -0.000   0.000
   26   10    8    2        3       0.628   1.883   0.000  -2.510  -0.000   0.000
   16    3    2    8        3       0.628   1.883   0.000  -2.510  -0.000   0.000
   26   10    8    9        3       0.628   1.883   0.000  -2.510  -0.000   0.000
   24    9    8    7        3       0.628   1.883   0.000  -2.510  -0.000   0.000
   19    6    7    8        3       0.628   1.883   0.000  -2.510  -0.000   0.000
   25    9    8    2        3       0.628   1.883   0.000  -2.510  -0.000   0.000
   22    7    8    2        3       0.628   1.883   0.000  -2.510  -0.000   0.000
   18    5    6    7        3       0.628   1.883   0.000  -2.510  -0.000   0.000
   22    7    6    5        3       0.628   1.883   0.000  -2.510  -0.000   0.000
   21    7    8   10        3       0.628   1.883   0.000  -2.510  -0.000   0.000
   13    1    2    3        3       0.628   1.883   0.000  -2.510  -0.000   0.000
   27   10    8    7        3       0.628   1.883   0.000  -2.510  -0.000   0.000
   15    3    2    1        3       0.628   1.883   0.000  -2.510  -0.000   0.000
   20    6    5   18        3       0.628   1.883   0.000  -2.510  -0.000   0.000
   16    3    2   14        3       0.628   1.883   0.000  -2.510  -0.000   0.000
   14    2    1   12        3       0.628   1.883   0.000  -2.510  -0.000   0.000
   14    2    1   11        3       0.628   1.883   0.000  -2.510  -0.000   0.000
   20    6    5   17        3       0.628   1.883   0.000  -2.510  -0.000   0.000
   15    3    2   14        3       0.628   1.883   0.000  -2.510  -0.000   0.000
   19    6    5   18        3       0.628   1.883   0.000  -2.510  -0.000   0.000
   21    7    6   20        3       0.628   1.883   0.000  -2.510  -0.000   0.000
   22    7    6   19        3       0.628   1.883   0.000  -2.510  -0.000   0.000
   22    7    6   20        3       0.628   1.883   0.000  -2.510  -0.000   0.000
   14    2    1   13        3       0.628   1.883   0.000  -2.510  -0.000   0.000
   19    6    5   17        3       0.628   1.883   0.000  -2.510  -0.000   0.000
   21    7    6   19        3       0.628   1.883   0.000  -2.510  -0.000   0.000
   20    6    5    4        3       0.979   2.937   0.000  -3.916  -0.000   0.000
   14    2    3    4        3       0.979   2.937   0.000  -3.916  -0.000   0.000
   19    6    5    4        3       0.979   2.937   0.000  -3.916  -0.000   0.000
   15    3    4    5        3       1.590   4.770   0.000  -6.360  -0.000   0.000
   17    5    4    3        3       1.590   4.770   0.000  -6.360  -0.000   0.000
   16    3    4    5        3       1.590   4.770   0.000  -6.360  -0.000   0.000
   18    5    4    3        3       1.590   4.770   0.000  -6.360  -0.000   0.000
    4    3    2    1        3       2.874   0.582   2.092  -5.548  -0.000   0.000

[ pairs ]
     1     4    1
     2     5    1
     2     6    1
     1     7    1
     3     6    1
     3     7    1
     1     9    1
     4     7    1
     1    10    1
     4     8    1
     3     9    1
     5     8    1
     3    10    1
     3    11    1
     6     9    1
     3    12    1
     6    10    1
     3    13    1
     1    15    1
     1    16    1
     4    14    1
     8    11    1
     8    12    1
     5    15    1
     3    17    1
     8    13    1
     7    14    1
     5    16    1
     3    18    1
     9    14    1
     8    15    1
     4    19    1
     2    21    1
    10    14    1
     8    16    1
     7    17    1
     4    20    1
     2    22    1
    11    14    1
     7    18    1
     2    23    1
    12    14    1
     5    21    1
     2    24    1
    13    14    1
     8    19    1
     5    22    1
     2    25    1
     8    20    1
     2    26    1
    14    15    1
     2    27    1
    14    16    1
     9    21    1
     7    23    1
     2    28    1
    10    21    1
     9    22    1
     7    24    1
    10    22    1
     7    25    1
    10    23    1
     7    26    1
    10    24    1
     7    27    1
    10    25    1
     9    26    1
     7    28    1
    17    19    1
     9    27    1
    18    19    1
    17    20    1
     9    28    1
    18    20    1
    19    21    1
    20    21    1
    19    22    1
    20    22    1

