LIGPARGEN GENERATED GRO FILE
   34
    1UNK    C00    1   0.100   0.100   0.000
    1UNK    C01    2  -0.052   0.100   0.000
    1UNK    O02    3  -0.096   0.100   0.136
    1UNK    C03    4  -0.109  -0.024   0.193
    1UNK    O04    5  -0.111  -0.129   0.132
    1UNK    C05    6  -0.110  -0.008   0.344
    1UNK    C06    7  -0.104  -0.139   0.417
    1UNK    C07    8  -0.093  -0.139   0.567
    1UNK    C08    9  -0.220  -0.186   0.502
    1UNK    C09   10  -0.256  -0.332   0.503
    1UNK    C0A   11  -0.285  -0.385   0.642
    1UNK    C0B   12  -0.363  -0.513   0.614
    1UNK    C0C   13  -0.454  -0.476   0.498
    1UNK    C0D   14  -0.385  -0.361   0.424
    1UNK    H0E   15   0.140   0.100  -0.102
    1UNK    H0F   16   0.139   0.013   0.053
    1UNK    H0G   17   0.138   0.188   0.053
    1UNK    H0H   18  -0.092   0.015  -0.056
    1UNK    H0I   19  -0.089   0.192  -0.047
    1UNK    H0J   20  -0.198   0.050   0.373
    1UNK    H0K   21  -0.020   0.049   0.370
    1UNK    H0M   22  -0.043  -0.212   0.365
    1UNK    H0N   23  -0.095  -0.044   0.620
    1UNK    H0O   24  -0.027  -0.212   0.613
    1UNK    H0P   25  -0.306  -0.121   0.515
    1UNK    H0Q   26  -0.174  -0.391   0.459
    1UNK    H0R   27  -0.347  -0.315   0.700
    1UNK    H0S   28  -0.194  -0.404   0.699
    1UNK    H0T   29  -0.418  -0.548   0.701
    1UNK    H0U   30  -0.294  -0.592   0.583
    1UNK    H0V   31  -0.551  -0.441   0.536
    1UNK    H0W   32  -0.472  -0.561   0.432
    1UNK    H0X   33  -0.451  -0.274   0.420
    1UNK    H0Y   34  -0.362  -0.388   0.321
   1.00000   1.00000   1.00000

