LIGPARGEN GENERATED GRO FILE
   37
    1UNK    C00    1   0.100   0.100   0.000
    1UNK    C01    2  -0.052   0.100   0.000
    1UNK    C02    3  -0.106   0.100   0.143
    1UNK    C03    4  -0.259   0.094   0.146
    1UNK    C04    5  -0.324   0.093   0.288
    1UNK    C05    6  -0.273  -0.029   0.368
    1UNK    C06    7  -0.285   0.220   0.371
    1UNK    C07    8  -0.333   0.353   0.316
    1UNK    C08    9  -0.480   0.085   0.276
    1UNK    C09   10  -0.534  -0.041   0.206
    1UNK    C0A   11  -0.685  -0.043   0.196
    1UNK    C0B   12  -0.745  -0.164   0.128
    1UNK    O0C   13  -0.757   0.046   0.240
    1UNK    H0D   14   0.138   0.100  -0.102
    1UNK    H0E   15   0.139   0.011   0.051
    1UNK    H0F   16   0.139   0.189   0.051
    1UNK    H0G   17  -0.088   0.012  -0.054
    1UNK    H0H   18  -0.089   0.189  -0.054
    1UNK    H0I   19  -0.071   0.190   0.194
    1UNK    H0J   20  -0.064   0.014   0.196
    1UNK    H0K   21  -0.288   0.002   0.093
    1UNK    H0M   22  -0.300   0.177   0.088
    1UNK    H0N   23  -0.166  -0.022   0.390
    1UNK    H0O   24  -0.289  -0.123   0.314
    1UNK    H0P   25  -0.324  -0.037   0.465
    1UNK    H0Q   26  -0.175   0.224   0.381
    1UNK    H0R   27  -0.323   0.209   0.473
    1UNK    H0S   28  -0.317   0.363   0.209
    1UNK    H0T   29  -0.280   0.435   0.366
    1UNK    H0U   30  -0.440   0.367   0.337
    1UNK    H0V   31  -0.516   0.173   0.221
    1UNK    H0W   32  -0.524   0.091   0.376
    1UNK    H0X   33  -0.504  -0.131   0.260
    1UNK    H0Y   34  -0.496  -0.047   0.103
    1UNK    H0Z   35  -0.668  -0.237   0.102
    1UNK    H10   36  -0.796  -0.132   0.036
    1UNK    H11   37  -0.816  -0.212   0.196
   1.00000   1.00000   1.00000

