LIGPARGEN GENERATED GRO FILE
   24
    1UNK    C00    1   0.100   0.100   0.000
    1UNK    O01    2  -0.042   0.100   0.000
    1UNK    C02    3  -0.098   0.100   0.133
    1UNK    S03    4  -0.067  -0.046   0.237
    1UNK    O04    5  -0.119  -0.162   0.167
    1UNK    O05    6   0.073  -0.042   0.277
    1UNK    C06    7  -0.167  -0.021   0.388
    1UNK    C07    8  -0.317  -0.018   0.353
    1UNK    C08    9  -0.140  -0.140   0.481
    1UNK    C09   10  -0.127   0.109   0.458
    1UNK    H0A   11   0.134   0.112  -0.103
    1UNK    H0B   12   0.139   0.005   0.036
    1UNK    H0C   13   0.139   0.183   0.060
    1UNK    H0D   14  -0.206   0.107   0.120
    1UNK    H0E   15  -0.062   0.189   0.186
    1UNK    H0F   16  -0.348  -0.110   0.302
    1UNK    H0G   17  -0.342   0.066   0.287
    1UNK    H0H   18  -0.378  -0.008   0.444
    1UNK    H0I   19  -0.169  -0.235   0.434
    1UNK    H0J   20  -0.197  -0.131   0.575
    1UNK    H0K   21  -0.034  -0.148   0.507
    1UNK    H0M   22  -0.148   0.197   0.396
    1UNK    H0N   23  -0.020   0.110   0.481
    1UNK    H0O   24  -0.182   0.121   0.552
   1.00000   1.00000   1.00000

