
;
; GENERATED BY LigParGen Server
; Jorgensen Lab @ Yale University 
;
[ atomtypes ]
  opls_818  H818     1.0080     0.000    A    2.50000E-01   1.25520E-01
  opls_824  H824     1.0080     0.000    A    2.50000E-01   1.25520E-01
  opls_805  C805    12.0110     0.000    A    3.50000E-01   2.76144E-01
  opls_828  H828     1.0080     0.000    A    2.50000E-01   1.25520E-01
  opls_806  C806    12.0110     0.000    A    3.50000E-01   2.76144E-01
  opls_815  H815     1.0080     0.000    A    2.50000E-01   1.25520E-01
  opls_812  C812    12.0110     0.000    A    3.50000E-01   2.76144E-01
  opls_830  H830     1.0080     0.000    A    2.50000E-01   1.25520E-01
  opls_802  O802    15.9990     0.000    A    2.96000E-01   8.78640E-01
  opls_822  H822     1.0080     0.000    A    2.50000E-01   1.25520E-01
  opls_803  C803    12.0110     0.000    A    3.50000E-01   2.76144E-01
  opls_825  H825     1.0080     0.000    A    2.50000E-01   1.25520E-01
  opls_814  H814     1.0080     0.000    A    2.50000E-01   1.25520E-01
  opls_801  C801    12.0110     0.000    A    3.55000E-01   2.92880E-01
  opls_810  O810    15.9990     0.000    A    2.96000E-01   8.78640E-01
  opls_821  H821     1.0080     0.000    A    2.50000E-01   1.25520E-01
  opls_820  H820     1.0080     0.000    A    2.50000E-01   1.25520E-01
  opls_809  C809    12.0110     0.000    A    3.55000E-01   2.92880E-01
  opls_829  H829     1.0080     0.000    A    2.50000E-01   1.25520E-01
  opls_831  H831     1.0080     0.000    A    2.50000E-01   1.25520E-01
  opls_816  H816     1.0080     0.000    A    2.50000E-01   1.25520E-01
  opls_800  C800    12.0110     0.000    A    3.50000E-01   2.76144E-01
  opls_823  H823     1.0080     0.000    A    2.50000E-01   1.25520E-01
  opls_811  C811    12.0110     0.000    A    3.55000E-01   2.92880E-01
  opls_826  H826     1.0080     0.000    A    2.50000E-01   1.25520E-01
  opls_813  O813    15.9990     0.000    A    2.96000E-01   8.78640E-01
  opls_819  H819     1.0080     0.000    A    2.50000E-01   1.25520E-01
  opls_804  C804    12.0110     0.000    A    3.50000E-01   2.76144E-01
  opls_827  H827     1.0080     0.000    A    2.50000E-01   1.25520E-01
  opls_808  C808    12.0110     0.000    A    3.50000E-01   2.76144E-01
  opls_817  H817     1.0080     0.000    A    2.50000E-01   1.25520E-01
  opls_807  C807    12.0110     0.000    A    3.50000E-01   2.76144E-01
[ moleculetype ]
; Name               nrexcl
UNK                   3
[ atoms ]
;   nr       type  resnr residue  atom   cgnr     charge       mass  
     1   opls_800      1    UNK   C00      1     -0.306    12.0110 
     2   opls_801      1    UNK   C01      1     0.3594    12.0110 
     3   opls_802      1    UNK   O02      1    -0.4463    15.9990 
     4   opls_803      1    UNK   C03      1    -0.2349    12.0110 
     5   opls_804      1    UNK   C04      1    -0.1704    12.0110 
     6   opls_805      1    UNK   C05      1    -0.1775    12.0110 
     7   opls_806      1    UNK   C06      1    -0.1794    12.0110 
     8   opls_807      1    UNK   C07      1    -0.1777    12.0110 
     9   opls_808      1    UNK   C08      1    -0.2245    12.0110 
    10   opls_809      1    UNK   C09      1      0.319    12.0110 
    11   opls_810      1    UNK   O0A      1    -0.4069    15.9990 
    12   opls_811      1    UNK   C0B      1     0.3196    12.0110 
    13   opls_812      1    UNK   C0C      1    -0.2983    12.0110 
    14   opls_813      1    UNK   O0D      1    -0.4143    15.9990 
    15   opls_814      1    UNK   H0E      1     0.1166     1.0080 
    16   opls_815      1    UNK   H0F      1     0.1166     1.0080 
    17   opls_816      1    UNK   H0G      1     0.1166     1.0080 
    18   opls_817      1    UNK   H0H      1     0.1185     1.0080 
    19   opls_818      1    UNK   H0I      1     0.1185     1.0080 
    20   opls_819      1    UNK   H0J      1     0.1057     1.0080 
    21   opls_820      1    UNK   H0K      1     0.1057     1.0080 
    22   opls_821      1    UNK   H0M      1     0.0933     1.0080 
    23   opls_822      1    UNK   H0N      1     0.0933     1.0080 
    24   opls_823      1    UNK   H0O      1     0.0898     1.0080 
    25   opls_824      1    UNK   H0P      1     0.0898     1.0080 
    26   opls_825      1    UNK   H0Q      1     0.1042     1.0080 
    27   opls_826      1    UNK   H0R      1     0.1042     1.0080 
    28   opls_827      1    UNK   H0S      1     0.1373     1.0080 
    29   opls_828      1    UNK   H0T      1     0.1373     1.0080 
    30   opls_829      1    UNK   H0U      1     0.1301     1.0080 
    31   opls_830      1    UNK   H0V      1     0.1301     1.0080 
    32   opls_831      1    UNK   H0W      1     0.1301     1.0080 
[ bonds ]
    2     1     1      0.1522 265265.600
    3     2     1      0.1229 476976.000
    4     2     1      0.1522 265265.600
    5     4     1      0.1529 224262.400
    6     5     1      0.1529 224262.400
    7     6     1      0.1529 224262.400
    8     7     1      0.1529 224262.400
    9     8     1      0.1529 224262.400
   10     9     1      0.1522 265265.600
   11    10     1      0.1229 476976.000
   12    10     1      0.1510 292880.000
   13    12     1      0.1522 265265.600
   14    12     1      0.1229 476976.000
   15     1     1      0.1090 284512.000
   16     1     1      0.1090 284512.000
   17     1     1      0.1090 284512.000
   18     4     1      0.1090 284512.000
   19     4     1      0.1090 284512.000
   20     5     1      0.1090 284512.000
   21     5     1      0.1090 284512.000
   22     6     1      0.1090 284512.000
   23     6     1      0.1090 284512.000
   24     7     1      0.1090 284512.000
   25     7     1      0.1090 284512.000
   26     8     1      0.1090 284512.000
   27     8     1      0.1090 284512.000
   28     9     1      0.1090 284512.000
   29     9     1      0.1090 284512.000
   30    13     1      0.1090 284512.000
   31    13     1      0.1090 284512.000
   32    13     1      0.1090 284512.000

[ angles ]
;  ai    aj    ak funct            c0            c1            c2            c3 
    1     2     3     1    120.400    669.440
    1     2     4     1    116.000    585.760
    2     4     5     1    111.100    527.184
    4     5     6     1    112.700    488.273
    5     6     7     1    112.700    488.273
    6     7     8     1    112.700    488.273
    7     8     9     1    112.700    488.273
    8     9    10     1    111.100    527.184
    9    10    11     1    120.400    669.440
    9    10    12     1    117.200    669.440
   10    12    13     1    117.200    669.440
   10    12    14     1    121.400    669.440
    2     1    15     1    109.500    292.880
    2     1    16     1    109.500    292.880
    2     1    17     1    109.500    292.880
    2     4    18     1    109.500    292.880
    2     4    19     1    109.500    292.880
    4     5    20     1    110.700    313.800
    4     5    21     1    110.700    313.800
    5     6    22     1    110.700    313.800
    5     6    23     1    110.700    313.800
    6     7    24     1    110.700    313.800
    6     7    25     1    110.700    313.800
    7     8    26     1    110.700    313.800
    7     8    27     1    110.700    313.800
    8     9    28     1    110.700    313.800
    8     9    29     1    110.700    313.800
   12    13    30     1    109.500    292.880
   12    13    31     1    109.500    292.880
   12    13    32     1    109.500    292.880
   16     1    17     1    107.800    276.144
   10     9    29     1    109.500    292.880
   13    12    14     1    120.400    669.440
   10     9    28     1    109.500    292.880
   26     8    27     1    107.800    276.144
   11    10    12     1    121.400    669.440
    7     6    22     1    110.700    313.800
   20     5    21     1    107.800    276.144
   15     1    17     1    107.800    276.144
    7     6    23     1    110.700    313.800
   30    13    32     1    107.800    276.144
   22     6    23     1    107.800    276.144
    6     5    20     1    110.700    313.800
    8     7    25     1    110.700    313.800
   15     1    16     1    107.800    276.144
    3     2     4     1    120.400    669.440
    5     4    19     1    110.700    313.800
    6     5    21     1    110.700    313.800
   31    13    32     1    107.800    276.144
    9     8    26     1    110.700    313.800
    8     7    24     1    110.700    313.800
    5     4    18     1    110.700    313.800
   24     7    25     1    107.800    276.144
   18     4    19     1    107.800    276.144
   30    13    31     1    107.800    276.144
    9     8    27     1    110.700    313.800
   28     9    29     1    107.800    276.144

[ dihedrals ]
; IMPROPER DIHEDRAL ANGLES 
;  ai    aj    ak    al funct            c0            c1            c2            c3            c4            c5
    12    10     9    11    4        180.000     43.932     2  
     4     2     1     3    4        180.000     43.932     2  
    14    12    10    13    4        180.000     43.932     2  

[ dihedrals ]
; PROPER DIHEDRAL ANGLES
;  ai    aj    ak    al funct            c0            c1            c2            c3            c4            c5
   12   10    9    8        3       0.000   0.000   0.000  -0.000  -0.000   0.000
   10    9    8    7        3      -4.960   6.286   1.310  -2.636  -0.000   0.000
   13   12   10    9        3      -4.812  -1.464   6.276  -0.000  -0.000   0.000
   13   12   10   11        3       2.092   0.000  -2.092  -0.000  -0.000   0.000
    5    4    2    1        3       0.818  -7.906   0.602   6.485  -0.000   0.000
    5    4    2    3        3       0.000   0.000   0.000  -0.000  -0.000   0.000
    6    5    4    2        3      -4.960   6.286   1.310  -2.636  -0.000   0.000
    7    6    5    4        3       2.301  -1.464   0.837  -1.674  -0.000   0.000
    8    7    6    5        3       2.301  -1.464   0.837  -1.674  -0.000   0.000
    9    8    7    6        3       2.301  -1.464   0.837  -1.674  -0.000   0.000
   30   13   12   10        3       0.178   0.533   0.000  -0.711  -0.000   0.000
   29    9   10   12        3       0.178   0.533   0.000  -0.711  -0.000   0.000
   28    9   10   12        3       0.178   0.533   0.000  -0.711  -0.000   0.000
   32   13   12   10        3       0.178   0.533   0.000  -0.711  -0.000   0.000
   31   13   12   10        3       0.178   0.533   0.000  -0.711  -0.000   0.000
   16    1    2    4        3       0.575   1.726   0.000  -2.301  -0.000   0.000
   15    1    2    4        3       0.575   1.726   0.000  -2.301  -0.000   0.000
   18    4    2    1        3       0.575   1.726   0.000  -2.301  -0.000   0.000
   19    4    2    1        3       0.575   1.726   0.000  -2.301  -0.000   0.000
   17    1    2    4        3       0.575   1.726   0.000  -2.301  -0.000   0.000
   17    1    2    3        3       0.000   0.000   0.000  -0.000  -0.000   0.000
   28    9   10   11        3       0.000   0.000   0.000  -0.000  -0.000   0.000
   19    4    2    3        3       0.000   0.000   0.000  -0.000  -0.000   0.000
   31   13   12   14        3       0.000   0.000   0.000  -0.000  -0.000   0.000
   29    9   10   11        3       0.000   0.000   0.000  -0.000  -0.000   0.000
   16    1    2    3        3       0.000   0.000   0.000  -0.000  -0.000   0.000
   30   13   12   14        3       0.000   0.000   0.000  -0.000  -0.000   0.000
   32   13   12   14        3       0.000   0.000   0.000  -0.000  -0.000   0.000
   18    4    2    3        3       0.000   0.000   0.000  -0.000  -0.000   0.000
   15    1    2    3        3       0.000   0.000   0.000  -0.000  -0.000   0.000
   20    5    4    2        3      -0.209  -0.628   0.000   0.837  -0.000   0.000
   21    5    4    2        3      -0.209  -0.628   0.000   0.837  -0.000   0.000
   26    8    9   10        3      -0.209  -0.628   0.000   0.837  -0.000   0.000
   27    8    9   10        3      -0.209  -0.628   0.000   0.837  -0.000   0.000
   25    7    6    5        3       0.628   1.883   0.000  -2.510  -0.000   0.000
   24    7    8    9        3       0.628   1.883   0.000  -2.510  -0.000   0.000
   20    5    6    7        3       0.628   1.883   0.000  -2.510  -0.000   0.000
   28    9    8    7        3       0.628   1.883   0.000  -2.510  -0.000   0.000
   27    8    7    6        3       0.628   1.883   0.000  -2.510  -0.000   0.000
   22    6    7    8        3       0.628   1.883   0.000  -2.510  -0.000   0.000
   19    4    5    6        3       0.628   1.883   0.000  -2.510  -0.000   0.000
   29    9    8    7        3       0.628   1.883   0.000  -2.510  -0.000   0.000
   22    6    5    4        3       0.628   1.883   0.000  -2.510  -0.000   0.000
   23    6    7    8        3       0.628   1.883   0.000  -2.510  -0.000   0.000
   21    5    6    7        3       0.628   1.883   0.000  -2.510  -0.000   0.000
   25    7    8    9        3       0.628   1.883   0.000  -2.510  -0.000   0.000
   18    4    5    6        3       0.628   1.883   0.000  -2.510  -0.000   0.000
   24    7    6    5        3       0.628   1.883   0.000  -2.510  -0.000   0.000
   23    6    5    4        3       0.628   1.883   0.000  -2.510  -0.000   0.000
   26    8    7    6        3       0.628   1.883   0.000  -2.510  -0.000   0.000
   29    9    8   27        3       0.628   1.883   0.000  -2.510  -0.000   0.000
   25    7    6   22        3       0.628   1.883   0.000  -2.510  -0.000   0.000
   26    8    7   25        3       0.628   1.883   0.000  -2.510  -0.000   0.000
   22    6    5   20        3       0.628   1.883   0.000  -2.510  -0.000   0.000
   24    7    6   23        3       0.628   1.883   0.000  -2.510  -0.000   0.000
   27    8    7   24        3       0.628   1.883   0.000  -2.510  -0.000   0.000
   28    9    8   27        3       0.628   1.883   0.000  -2.510  -0.000   0.000
   29    9    8   26        3       0.628   1.883   0.000  -2.510  -0.000   0.000
   20    5    4   19        3       0.628   1.883   0.000  -2.510  -0.000   0.000
   28    9    8   26        3       0.628   1.883   0.000  -2.510  -0.000   0.000
   22    6    5   21        3       0.628   1.883   0.000  -2.510  -0.000   0.000
   24    7    6   22        3       0.628   1.883   0.000  -2.510  -0.000   0.000
   23    6    5   21        3       0.628   1.883   0.000  -2.510  -0.000   0.000
   23    6    5   20        3       0.628   1.883   0.000  -2.510  -0.000   0.000
   20    5    4   18        3       0.628   1.883   0.000  -2.510  -0.000   0.000
   21    5    4   18        3       0.628   1.883   0.000  -2.510  -0.000   0.000
   27    8    7   25        3       0.628   1.883   0.000  -2.510  -0.000   0.000
   26    8    7   24        3       0.628   1.883   0.000  -2.510  -0.000   0.000
   21    5    4   19        3       0.628   1.883   0.000  -2.510  -0.000   0.000
   25    7    6   23        3       0.628   1.883   0.000  -2.510  -0.000   0.000
   14   12   10    9        3       2.092   0.000  -2.092  -0.000  -0.000   0.000
   14   12   10   11        3      16.736  -3.347  -13.389  -0.000  -0.000   0.000
   11   10    9    8        3       0.000   0.000   0.000  -0.000  -0.000   0.000

[ pairs ]
     1     5    1
     3     5    1
     2     6    1
     4     7    1
     5     8    1
     6     9    1
     7    10    1
     3    15    1
     8    11    1
     4    15    1
     3    16    1
     1    18    1
     8    12    1
     4    16    1
     3    17    1
     1    19    1
     4    17    1
     3    18    1
     9    13    1
     3    19    1
     2    20    1
     9    14    1
     2    21    1
    11    13    1
     6    18    1
    11    14    1
     6    19    1
     4    22    1
     7    20    1
     4    23    1
     7    21    1
     5    24    1
     8    22    1
     5    25    1
     8    23    1
     6    26    1
     9    24    1
     6    27    1
     9    25    1
     7    28    1
    10    26    1
     7    29    1
    10    27    1
    18    20    1
    19    20    1
    18    21    1
    11    28    1
    19    21    1
    12    28    1
    11    29    1
    10    30    1
    12    29    1
    10    31    1
    20    22    1
    10    32    1
    21    22    1
    20    23    1
    21    23    1
    14    30    1
    14    31    1
    22    24    1
    14    32    1
    23    24    1
    22    25    1
    23    25    1
    24    26    1
    25    26    1
    24    27    1
    25    27    1
    26    28    1
    27    28    1
    26    29    1
    27    29    1

