LIGPARGEN GENERATED GRO FILE
   31
    1UNK    C00    1   0.100   0.100   0.000
    1UNK    O01    2  -0.042   0.100   0.000
    1UNK    C02    3  -0.098   0.100   0.124
    1UNK    O03    4  -0.035   0.100   0.230
    1UNK    C04    5  -0.249   0.100   0.113
    1UNK    C05    6  -0.298  -0.045   0.107
    1UNK    C06    7  -0.314   0.176   0.230
    1UNK    C07    8  -0.279   0.327   0.238
    1UNK    C08    9  -0.318   0.401   0.110
    1UNK    C09   10  -0.347   0.386   0.363
    1UNK    C0A   11  -0.321   0.534   0.384
    1UNK    C0B   12  -0.179   0.580   0.405
    1UNK    O0C   13  -0.414   0.615   0.385
    1UNK    H0D   14   0.134   0.093  -0.104
    1UNK    H0E   15   0.139   0.013   0.054
    1UNK    H0F   16   0.138   0.193   0.043
    1UNK    H0G   17  -0.277   0.149   0.018
    1UNK    H0H   18  -0.292  -0.093   0.206
    1UNK    H0I   19  -0.238  -0.105   0.038
    1UNK    H0J   20  -0.402  -0.049   0.074
    1UNK    H0K   21  -0.286   0.128   0.324
    1UNK    H0M   22  -0.423   0.166   0.221
    1UNK    H0N   23  -0.170   0.337   0.251
    1UNK    H0O   24  -0.416   0.367   0.073
    1UNK    H0P   25  -0.244   0.382   0.032
    1UNK    H0Q   26  -0.323   0.509   0.125
    1UNK    H0R   27  -0.314   0.334   0.453
    1UNK    H0S   28  -0.456   0.372   0.356
    1UNK    H0T   29  -0.115   0.495   0.431
    1UNK    H0U   30  -0.176   0.652   0.487
    1UNK    H0V   31  -0.143   0.626   0.313
   1.00000   1.00000   1.00000

