LIGPARGEN GENERATED GRO FILE
   29
    1UNK    C00    1   0.100   0.100   0.000
    1UNK    C01    2  -0.052   0.100   0.000
    1UNK    C02    3  -0.115   0.100   0.141
    1UNK    C03    4  -0.265   0.091   0.128
    1UNK    C04    5  -0.320  -0.039   0.072
    1UNK    C05    6  -0.433  -0.074   0.169
    1UNK    O06    7  -0.485   0.052   0.216
    1UNK    C07    8  -0.374   0.146   0.220
    1UNK    C08    9  -0.368   0.231   0.344
    1UNK    C09   10  -0.400   0.157   0.473
    1UNK    C0A   11  -0.340   0.217   0.092
    1UNK    H0B   12   0.137   0.105  -0.103
    1UNK    H0C   13   0.140   0.009   0.045
    1UNK    H0D   14   0.140   0.186   0.054
    1UNK    H0E   15  -0.085   0.012  -0.057
    1UNK    H0F   16  -0.087   0.188  -0.055
    1UNK    H0G   17  -0.085   0.190   0.196
    1UNK    H0H   18  -0.078   0.014   0.197
    1UNK    H0I   19  -0.247  -0.120   0.066
    1UNK    H0J   20  -0.361  -0.021  -0.028
    1UNK    H0K   21  -0.393  -0.129   0.256
    1UNK    H0M   22  -0.512  -0.133   0.122
    1UNK    H0N   23  -0.445   0.309   0.332
    1UNK    H0O   24  -0.272   0.282   0.353
    1UNK    H0P   25  -0.497   0.107   0.468
    1UNK    H0Q   26  -0.404   0.227   0.557
    1UNK    H0R   27  -0.324   0.081   0.494
    1UNK    H0S   28  -0.286   0.311   0.099
    1UNK    H0T   29  -0.413   0.215   0.012
   1.00000   1.00000   1.00000

