LIGPARGEN GENERATED GRO FILE
   23
    1UNK    C00    1   0.100   0.100   0.000
    1UNK    C01    2  -0.054   0.100   0.000
    1UNK    C02    3  -0.105   0.100   0.146
    1UNK    O03    4  -0.174   0.010   0.192
    1UNK    Cl0    5  -0.054   0.239   0.241
    1UNK    C05    6  -0.107   0.224  -0.075
    1UNK    C06    7  -0.244   0.182  -0.126
    1UNK    C07    8  -0.229   0.036  -0.165
    1UNK    C08    9  -0.106  -0.018  -0.090
    1UNK    C09   10  -0.133  -0.153  -0.022
    1UNK    Cl1   11  -0.156  -0.281  -0.145
    1UNK    H0B   12   0.142   0.188   0.051
    1UNK    H0C   13   0.140   0.101  -0.102
    1UNK    H0D   14   0.139   0.011   0.051
    1UNK    H0E   15  -0.042   0.249  -0.160
    1UNK    H0F   16  -0.116   0.314  -0.013
    1UNK    H0G   17  -0.277   0.244  -0.210
    1UNK    H0H   18  -0.318   0.191  -0.046
    1UNK    H0I   19  -0.210   0.028  -0.273
    1UNK    H0J   20  -0.321  -0.019  -0.144
    1UNK    H0K   21  -0.029  -0.036  -0.166
    1UNK    H0M   22  -0.225  -0.153   0.037
    1UNK    H0N   23  -0.049  -0.184   0.041
   1.00000   1.00000   1.00000

