LIGPARGEN GENERATED GRO FILE
   32
    1UNK    C00    1   0.100   0.100   0.000
    1UNK    C01    2  -0.052   0.100   0.000
    1UNK    C02    3  -0.107   0.100   0.142
    1UNK    C03    4  -0.259   0.100   0.138
    1UNK    O04    5  -0.320   0.205   0.115
    1UNK    C05    6  -0.331  -0.032   0.170
    1UNK    C06    7  -0.342  -0.027   0.321
    1UNK    N07    8  -0.350  -0.023   0.447
    1UNK    C08    9  -0.469  -0.040   0.099
    1UNK    C09   10  -0.459  -0.016  -0.054
    1UNK    C0A   11  -0.379  -0.120  -0.131
    1UNK    C0B   12  -0.540  -0.173   0.133
    1UNK    C0C   13  -0.679  -0.185   0.072
    1UNK    H0D   14   0.138   0.100  -0.103
    1UNK    H0E   15   0.139   0.011   0.051
    1UNK    H0F   16   0.139   0.189   0.051
    1UNK    H0G   17  -0.088   0.012  -0.054
    1UNK    H0H   18  -0.088   0.188  -0.055
    1UNK    H0I   19  -0.075   0.189   0.197
    1UNK    H0J   20  -0.072   0.013   0.198
    1UNK    H0K   21  -0.267  -0.116   0.140
    1UNK    H0M   22  -0.532   0.041   0.139
    1UNK    H0N   23  -0.414   0.082  -0.074
    1UNK    H0O   24  -0.559  -0.009  -0.097
    1UNK    H0P   25  -0.278  -0.131  -0.092
    1UNK    H0Q   26  -0.371  -0.090  -0.236
    1UNK    H0R   27  -0.428  -0.218  -0.128
    1UNK    H0S   28  -0.551  -0.182   0.242
    1UNK    H0T   29  -0.479  -0.258   0.100
    1UNK    H0U   30  -0.742  -0.100   0.099
    1UNK    H0V   31  -0.729  -0.276   0.109
    1UNK    H0W   32  -0.676  -0.193  -0.037
   1.00000   1.00000   1.00000

