
;
; GENERATED BY LigParGen Server
; Jorgensen Lab @ Yale University 
;
[ atomtypes ]
  opls_818  H818     1.0080     0.000    A    2.50000E-01   1.25520E-01
  opls_824  H824     1.0080     0.000    A    2.50000E-01   1.25520E-01
  opls_810  C810    12.0110     0.000    A    3.55000E-01   2.92880E-01
  opls_813  H813     1.0080     0.000    A    2.50000E-01   1.25520E-01
  opls_802  C802    12.0110     0.000    A    3.50000E-01   2.76144E-01
  opls_815  H815     1.0080     0.000    A    2.50000E-01   1.25520E-01
  opls_809  C809    12.0110     0.000    A    3.50000E-01   2.76144E-01
  opls_811  O811    15.9990     0.000    A    2.96000E-01   8.78640E-01
  opls_822  H822     1.0080     0.000    A    2.50000E-01   1.25520E-01
  opls_803  C803    12.0110     0.000    A    3.50000E-01   2.76144E-01
  opls_825  H825     1.0080     0.000    A    2.50000E-01   1.25520E-01
  opls_814  H814     1.0080     0.000    A    2.50000E-01   1.25520E-01
  opls_821  H821     1.0080     0.000    A    2.50000E-01   1.25520E-01
  opls_820  H820     1.0080     0.000    A    2.50000E-01   1.25520E-01
  opls_805  C805    12.0110     0.000    A    3.55000E-01   2.92880E-01
  opls_816  H816     1.0080     0.000    A    2.50000E-01   1.25520E-01
  opls_800  C800    12.0110     0.000    A    3.50000E-01   2.76144E-01
  opls_823  H823     1.0080     0.000    A    2.50000E-01   1.25520E-01
  opls_819  H819     1.0080     0.000    A    2.50000E-01   1.25520E-01
  opls_804  C804    12.0110     0.000    A    3.50000E-01   2.76144E-01
  opls_801  C801    12.0110     0.000    A    3.50000E-01   2.76144E-01
  opls_808  C808    12.0110     0.000    A    3.50000E-01   2.76144E-01
  opls_806  O806    15.9990     0.000    A    2.96000E-01   8.78640E-01
  opls_817  H817     1.0080     0.000    A    2.50000E-01   1.25520E-01
  opls_812  H812     1.0080     0.000    A    2.50000E-01   1.25520E-01
  opls_807  O807    15.9990     0.000    A    2.90000E-01   5.85760E-01
[ moleculetype ]
; Name               nrexcl
UNK                   3
[ atoms ]
;   nr       type  resnr residue  atom   cgnr     charge       mass  
     1   opls_800      1    UNK   C00      1    -0.2387    12.0110 
     2   opls_801      1    UNK   C01      1    -0.1592    12.0110 
     3   opls_802      1    UNK   C02      1    -0.1754    12.0110 
     4   opls_803      1    UNK   C03      1    -0.1707    12.0110 
     5   opls_804      1    UNK   C04      1    -0.1318    12.0110 
     6   opls_805      1    UNK   C05      1     0.4372    12.0110 
     7   opls_806      1    UNK   O06      1    -0.4418    15.9990 
     8   opls_807      1    UNK   O07      1    -0.3526    15.9990 
     9   opls_808      1    UNK   C08      1    -0.0589    12.0110 
    10   opls_809      1    UNK   C09      1    -0.2317    12.0110 
    11   opls_810      1    UNK   C0A      1     0.3591    12.0110 
    12   opls_811      1    UNK   O0B      1    -0.4383    15.9990 
    13   opls_812      1    UNK   H0C      1     0.0849     1.0080 
    14   opls_813      1    UNK   H0D      1     0.0849     1.0080 
    15   opls_814      1    UNK   H0E      1     0.0849     1.0080 
    16   opls_815      1    UNK   H0F      1     0.1018     1.0080 
    17   opls_816      1    UNK   H0G      1     0.1018     1.0080 
    18   opls_817      1    UNK   H0H      1     0.1559     1.0080 
    19   opls_818      1    UNK   H0I      1     0.1177     1.0080 
    20   opls_819      1    UNK   H0J      1     0.1177     1.0080 
    21   opls_820      1    UNK   H0K      1     0.1435     1.0080 
    22   opls_821      1    UNK   H0M      1     0.1044     1.0080 
    23   opls_822      1    UNK   H0N      1     0.1044     1.0080 
    24   opls_823      1    UNK   H0O      1     0.1044     1.0080 
    25   opls_824      1    UNK   H0P      1     0.1485     1.0080 
    26   opls_825      1    UNK   H0Q      1     0.1485     1.0080 
[ bonds ]
    2     1     1      0.1529 224262.400
    3     2     1      0.1529 224262.400
    4     3     1      0.1529 224262.400
    5     4     1      0.1529 224262.400
    6     5     1      0.1522 265265.600
    7     6     1      0.1229 476976.000
    8     6     1      0.1327 179075.200
    9     8     1      0.1410 267776.000
   10     5     1      0.1529 224262.400
   11     3     1      0.1522 265265.600
   12    11     1      0.1229 476976.000
   13     1     1      0.1090 284512.000
   14     1     1      0.1090 284512.000
   15     1     1      0.1090 284512.000
   16     2     1      0.1090 284512.000
   17     2     1      0.1090 284512.000
   18     3     1      0.1090 284512.000
   19     4     1      0.1090 284512.000
   20     4     1      0.1090 284512.000
   21     5     1      0.1090 284512.000
   22     9     1      0.1090 284512.000
   23     9     1      0.1090 284512.000
   24     9     1      0.1090 284512.000
   25    10     1      0.1090 284512.000
   26    10     1      0.1090 284512.000
   11    10     1      0.1522 265265.600

[ angles ]
;  ai    aj    ak funct            c0            c1            c2            c3 
    1     2     3     1    112.700    488.273
    2     3     4     1    112.700    488.273
    3     4     5     1    112.700    488.273
    4     5     6     1    111.100    527.184
    5     6     7     1    120.400    669.440
    5     6     8     1    111.400    677.808
    6     8     9     1    116.900    694.544
    4     5    10     1    112.700    488.273
    2     3    11     1    111.100    527.184
    3    11    12     1    120.400    669.440
    2     1    13     1    110.700    313.800
    2     1    14     1    110.700    313.800
    2     1    15     1    110.700    313.800
    1     2    16     1    110.700    313.800
    1     2    17     1    110.700    313.800
    2     3    18     1    110.700    313.800
    3     4    19     1    110.700    313.800
    3     4    20     1    110.700    313.800
    4     5    21     1    110.700    313.800
    8     9    22     1    109.500    292.880
    8     9    23     1    109.500    292.880
    8     9    24     1    109.500    292.880
    5    10    25     1    110.700    313.800
    5    10    26     1    110.700    313.800
    4     3    11     1    111.100    527.184
   23     9    24     1    107.800    276.144
   13     1    14     1    107.800    276.144
   25    10    26     1    107.800    276.144
    3     2    17     1    110.700    313.800
   10     5    21     1    110.700    313.800
   19     4    20     1    107.800    276.144
   22     9    23     1    107.800    276.144
    3     2    16     1    110.700    313.800
    4     3    18     1    110.700    313.800
   22     9    24     1    107.800    276.144
   16     2    17     1    107.800    276.144
   14     1    15     1    107.800    276.144
   10    11    12     1    120.400    669.440
    5     4    19     1    110.700    313.800
    7     6     8     1    123.400    694.544
   11    10    25     1    109.500    292.880
   11    10    26     1    109.500    292.880
    6     5    21     1    109.500    292.880
    5     4    20     1    110.700    313.800
   11     3    18     1    109.500    292.880
   13     1    15     1    107.800    276.144
    5    10    11     1    111.100    527.184
    3    11    10     1    116.000    585.760
    6     5    10     1    111.100    527.184

[ dihedrals ]
; IMPROPER DIHEDRAL ANGLES 
;  ai    aj    ak    al funct            c0            c1            c2            c3            c4            c5
    12    11     3    10    4        180.000     43.932     2  
     8     6     5     7    4        180.000     43.932     2  

[ dihedrals ]
; PROPER DIHEDRAL ANGLES
;  ai    aj    ak    al funct            c0            c1            c2            c3            c4            c5
   11   10    5    6        3       0.941   7.427   0.000  -8.368  -0.000   0.000
    6    5    4    3        3      -4.960   6.286   1.310  -2.636  -0.000   0.000
   11   10    5    4        3      -4.960   6.286   1.310  -2.636  -0.000   0.000
   11    3    4    5        3      -4.960   6.286   1.310  -2.636  -0.000   0.000
   11    3    2    1        3      -4.960   6.286   1.310  -2.636  -0.000   0.000
   10   11    3    2        3       0.818  -7.906   0.602   6.485  -0.000   0.000
   10   11    3    4        3       0.818  -7.906   0.602   6.485  -0.000   0.000
    5   10   11    3        3       0.818  -7.906   0.602   6.485  -0.000   0.000
   10    5    6    7        3       0.000   0.000   0.000  -0.000  -0.000   0.000
   10    5    6    8        3      -1.157  -3.471   0.000   4.628  -0.000   0.000
   10    5    4    3        3       2.301  -1.464   0.837  -1.674  -0.000   0.000
    4    3    2    1        3       2.301  -1.464   0.837  -1.674  -0.000   0.000
    5    4    3    2        3       2.301  -1.464   0.837  -1.674  -0.000   0.000
    9    8    6    5        3      31.206  -9.768  -21.439  -0.000  -0.000   0.000
    9    8    6    7        3      21.439   0.000  -21.439  -0.000  -0.000   0.000
   26   10   11    3        3       0.575   1.726   0.000  -2.301  -0.000   0.000
   25   10   11    3        3       0.575   1.726   0.000  -2.301  -0.000   0.000
   18    3   11   10        3       0.575   1.726   0.000  -2.301  -0.000   0.000
   25   10   11   12        3       0.000   0.000   0.000  -0.000  -0.000   0.000
   18    3   11   12        3       0.000   0.000   0.000  -0.000  -0.000   0.000
   21    5    6    7        3       0.000   0.000   0.000  -0.000  -0.000   0.000
   26   10   11   12        3       0.000   0.000   0.000  -0.000  -0.000   0.000
   21    5    6    8        3       0.276   0.828   0.000  -1.105  -0.000   0.000
   20    4    5    6        3      -0.209  -0.628   0.000   0.837  -0.000   0.000
   20    4    3   11        3      -0.209  -0.628   0.000   0.837  -0.000   0.000
   26   10    5    6        3      -0.209  -0.628   0.000   0.837  -0.000   0.000
   21    5   10   11        3      -0.209  -0.628   0.000   0.837  -0.000   0.000
   19    4    5    6        3      -0.209  -0.628   0.000   0.837  -0.000   0.000
   19    4    3   11        3      -0.209  -0.628   0.000   0.837  -0.000   0.000
   17    2    3   11        3      -0.209  -0.628   0.000   0.837  -0.000   0.000
   25   10    5    6        3      -0.209  -0.628   0.000   0.837  -0.000   0.000
   16    2    3   11        3      -0.209  -0.628   0.000   0.837  -0.000   0.000
   20    4    3    2        3       0.628   1.883   0.000  -2.510  -0.000   0.000
   14    1    2    3        3       0.628   1.883   0.000  -2.510  -0.000   0.000
   15    1    2    3        3       0.628   1.883   0.000  -2.510  -0.000   0.000
   20    4    5   10        3       0.628   1.883   0.000  -2.510  -0.000   0.000
   17    2    3    4        3       0.628   1.883   0.000  -2.510  -0.000   0.000
   19    4    3    2        3       0.628   1.883   0.000  -2.510  -0.000   0.000
   13    1    2    3        3       0.628   1.883   0.000  -2.510  -0.000   0.000
   19    4    5   10        3       0.628   1.883   0.000  -2.510  -0.000   0.000
   21    5    4    3        3       0.628   1.883   0.000  -2.510  -0.000   0.000
   25   10    5    4        3       0.628   1.883   0.000  -2.510  -0.000   0.000
   26   10    5    4        3       0.628   1.883   0.000  -2.510  -0.000   0.000
   18    3    2    1        3       0.628   1.883   0.000  -2.510  -0.000   0.000
   16    2    3    4        3       0.628   1.883   0.000  -2.510  -0.000   0.000
   18    3    4    5        3       0.628   1.883   0.000  -2.510  -0.000   0.000
   18    3    2   16        3       0.628   1.883   0.000  -2.510  -0.000   0.000
   18    3    2   17        3       0.628   1.883   0.000  -2.510  -0.000   0.000
   17    2    1   14        3       0.628   1.883   0.000  -2.510  -0.000   0.000
   17    2    1   13        3       0.628   1.883   0.000  -2.510  -0.000   0.000
   16    2    1   14        3       0.628   1.883   0.000  -2.510  -0.000   0.000
   16    2    1   15        3       0.628   1.883   0.000  -2.510  -0.000   0.000
   25   10    5   21        3       0.628   1.883   0.000  -2.510  -0.000   0.000
   21    5    4   19        3       0.628   1.883   0.000  -2.510  -0.000   0.000
   21    5    4   20        3       0.628   1.883   0.000  -2.510  -0.000   0.000
   26   10    5   21        3       0.628   1.883   0.000  -2.510  -0.000   0.000
   16    2    1   13        3       0.628   1.883   0.000  -2.510  -0.000   0.000
   19    4    3   18        3       0.628   1.883   0.000  -2.510  -0.000   0.000
   17    2    1   15        3       0.628   1.883   0.000  -2.510  -0.000   0.000
   20    4    3   18        3       0.628   1.883   0.000  -2.510  -0.000   0.000
   24    9    8    6        3       0.414   1.243   0.000  -1.657  -0.000   0.000
   22    9    8    6        3       0.414   1.243   0.000  -1.657  -0.000   0.000
   23    9    8    6        3       0.414   1.243   0.000  -1.657  -0.000   0.000
   12   11    3    2        3       0.000   0.000   0.000  -0.000  -0.000   0.000
   12   11   10    5        3       0.000   0.000   0.000  -0.000  -0.000   0.000
    7    6    5    4        3       0.000   0.000   0.000  -0.000  -0.000   0.000
   12   11    3    4        3       0.000   0.000   0.000  -0.000  -0.000   0.000
    8    6    5    4        3      -1.157  -3.471   0.000   4.628  -0.000   0.000

[ pairs ]
     1     4    1
     2     5    1
     3     6    1
     4     7    1
     4     8    1
     2    10    1
     1    11    1
     5     9    1
     2    12    1
     7     9    1
     4    12    1
     3    13    1
     7    10    1
     6    11    1
     5    12    1
     3    14    1
     8    10    1
     3    15    1
     1    18    1
     4    16    1
     4    17    1
     2    19    1
     2    20    1
     5    18    1
     3    21    1
     6    19    1
     6    20    1
    11    16    1
    11    17    1
    10    18    1
     7    21    1
     6    22    1
     3    25    1
    13    16    1
    10    19    1
     8    21    1
     6    23    1
     4    25    1
     3    26    1
    14    16    1
    13    17    1
    12    18    1
    11    19    1
    10    20    1
     6    24    1
     4    26    1
    15    16    1
    14    17    1
    11    20    1
     6    25    1
    15    17    1
    11    21    1
     6    26    1
    16    18    1
    17    18    1
    18    19    1
    12    25    1
    18    20    1
    12    26    1
    19    21    1
    20    21    1
    21    25    1
    21    26    1

