
;
; GENERATED BY LigParGen Server
; Jorgensen Lab @ Yale University 
;
[ atomtypes ]
  opls_807  O807    15.9990     0.000    A    2.96000E-01   8.78640E-01
  opls_818  H818     1.0080     0.000    A    2.50000E-01   1.25520E-01
  opls_824  H824     1.0080     0.000    A    2.50000E-01   1.25520E-01
  opls_805  C805    12.0110     0.000    A    3.50000E-01   2.76144E-01
  opls_804  O804    15.9990     0.000    A    2.96000E-01   8.78640E-01
  opls_802  P802    30.9738     0.000    A    3.74000E-01   8.36800E-01
  opls_828  H828     1.0080     0.000    A    2.50000E-01   1.25520E-01
  opls_813  H813     1.0080     0.000    A    2.50000E-01   1.25520E-01
  opls_801  O801    15.9990     0.000    A    2.90000E-01   5.85760E-01
  opls_811  C811    12.0110     0.000    A    3.50000E-01   2.76144E-01
  opls_815  H815     1.0080     0.000    A    2.50000E-01   1.25520E-01
  opls_809  C809    12.0110     0.000    A    3.50000E-01   2.76144E-01
  opls_822  H822     1.0080     0.000    A    2.50000E-01   1.25520E-01
  opls_803  C803    12.0110     0.000    A    3.50000E-01   2.76144E-01
  opls_825  H825     1.0080     0.000    A    2.50000E-01   1.25520E-01
  opls_814  H814     1.0080     0.000    A    2.50000E-01   1.25520E-01
  opls_821  H821     1.0080     0.000    A    2.50000E-01   1.25520E-01
  opls_820  H820     1.0080     0.000    A    2.50000E-01   1.25520E-01
  opls_816  H816     1.0080     0.000    A    2.50000E-01   1.25520E-01
  opls_800  C800    12.0110     0.000    A    3.50000E-01   2.76144E-01
  opls_823  H823     1.0080     0.000    A    2.50000E-01   1.25520E-01
  opls_806  C806    12.0110     0.000    A    3.55000E-01   2.92880E-01
  opls_826  H826     1.0080     0.000    A    2.50000E-01   1.25520E-01
  opls_819  H819     1.0080     0.000    A    2.50000E-01   1.25520E-01
  opls_810  C810    12.0110     0.000    A    3.50000E-01   2.76144E-01
  opls_827  H827     1.0080     0.000    A    2.50000E-01   1.25520E-01
  opls_808  C808    12.0110     0.000    A    3.50000E-01   2.76144E-01
  opls_817  H817     1.0080     0.000    A    2.50000E-01   1.25520E-01
  opls_812  H812     1.0080     0.000    A    2.50000E-01   1.25520E-01
[ moleculetype ]
; Name               nrexcl
UNK                   3
[ atoms ]
;   nr       type  resnr residue  atom   cgnr     charge       mass  
     1   opls_800      1    UNK   C00      1    -0.0644    12.0110 
     2   opls_801      1    UNK   O01      1    -0.6959    15.9990 
     3   opls_802      1    UNK   P02      1     2.4149    30.9738 
     4   opls_803      1    UNK   C03      1    -0.7872    12.0110 
     5   opls_804      1    UNK   O04      1    -1.0354    15.9990 
     6   opls_805      1    UNK   C05      1    -0.7589    12.0110 
     7   opls_806      1    UNK   C06      1     0.4119    12.0110 
     8   opls_807      1    UNK   O07      1    -0.4721    15.9990 
     9   opls_808      1    UNK   C08      1     -0.222    12.0110 
    10   opls_809      1    UNK   C09      1    -0.1063    12.0110 
    11   opls_810      1    UNK   C0A      1    -0.2417    12.0110 
    12   opls_811      1    UNK   C0B      1     -0.235    12.0110 
    13   opls_812      1    UNK   H0C      1     0.0786     1.0080 
    14   opls_813      1    UNK   H0D      1     0.0786     1.0080 
    15   opls_814      1    UNK   H0E      1     0.0786     1.0080 
    16   opls_815      1    UNK   H0F      1     0.1221     1.0080 
    17   opls_816      1    UNK   H0G      1     0.1221     1.0080 
    18   opls_817      1    UNK   H0H      1     0.1221     1.0080 
    19   opls_818      1    UNK   H0I      1     0.1545     1.0080 
    20   opls_819      1    UNK   H0J      1     0.1545     1.0080 
    21   opls_820      1    UNK   H0K      1     0.1275     1.0080 
    22   opls_821      1    UNK   H0M      1     0.1275     1.0080 
    23   opls_822      1    UNK   H0N      1     0.0967     1.0080 
    24   opls_823      1    UNK   H0O      1     0.0887     1.0080 
    25   opls_824      1    UNK   H0P      1     0.0887     1.0080 
    26   opls_825      1    UNK   H0Q      1     0.0887     1.0080 
    27   opls_826      1    UNK   H0R      1     0.0877     1.0080 
    28   opls_827      1    UNK   H0S      1     0.0877     1.0080 
    29   opls_828      1    UNK   H0T      1     0.0877     1.0080 
[ bonds ]
    2     1     1      0.1410 267776.000
    3     2     1      0.1610 192464.000
    4     3     1      0.1843 177401.600
    5     3     1      0.1480 439320.000
    6     3     1      0.1843 177401.600
    7     6     1      0.1522 265265.600
    8     7     1      0.1229 476976.000
    9     7     1      0.1522 265265.600
   10     9     1      0.1529 224262.400
   11    10     1      0.1529 224262.400
   12    10     1      0.1529 224262.400
   13     1     1      0.1090 284512.000
   14     1     1      0.1090 284512.000
   15     1     1      0.1090 284512.000
   16     4     1      0.1090 284512.000
   17     4     1      0.1090 284512.000
   18     4     1      0.1090 284512.000
   19     6     1      0.1090 284512.000
   20     6     1      0.1090 284512.000
   21     9     1      0.1090 284512.000
   22     9     1      0.1090 284512.000
   23    10     1      0.1090 284512.000
   24    11     1      0.1090 284512.000
   25    11     1      0.1090 284512.000
   26    11     1      0.1090 284512.000
   27    12     1      0.1090 284512.000
   28    12     1      0.1090 284512.000
   29    12     1      0.1090 284512.000

[ angles ]
;  ai    aj    ak funct            c0            c1            c2            c3 
    1     2     3     1    120.500    836.800
    2     3     4     1    109.500    376.560
    2     3     5     1    108.230    836.800
    2     3     6     1    109.500    376.560
    3     6     7     1    110.580    432.207
    6     7     8     1    120.400    669.440
    6     7     9     1    116.000    585.760
    7     9    10     1    111.100    527.184
    9    10    11     1    112.700    488.273
    9    10    12     1    112.700    488.273
    2     1    13     1    109.500    292.880
    2     1    14     1    109.500    292.880
    2     1    15     1    109.500    292.880
    3     4    16     1    109.500    343.088
    3     4    17     1    109.500    343.088
    3     4    18     1    109.500    343.088
    3     6    19     1    109.500    343.088
    3     6    20     1    109.500    343.088
    7     9    21     1    109.500    292.880
    7     9    22     1    109.500    292.880
    9    10    23     1    110.700    313.800
   10    11    24     1    110.700    313.800
   10    11    25     1    110.700    313.800
   10    11    26     1    110.700    313.800
   10    12    27     1    110.700    313.800
   10    12    28     1    110.700    313.800
   10    12    29     1    110.700    313.800
   17     4    18     1    107.800    276.144
   13     1    14     1    107.800    276.144
   28    12    29     1    107.800    276.144
   24    11    25     1    107.800    276.144
   16     4    17     1    107.800    276.144
    8     7     9     1    120.400    669.440
    7     6    19     1    109.500    292.880
   27    12    28     1    107.800    276.144
    4     3     5     1    109.500    376.560
   10     9    21     1    110.700    313.800
   14     1    15     1    107.800    276.144
   12    10    23     1    110.700    313.800
   21     9    22     1    107.800    276.144
   24    11    26     1    107.800    276.144
   11    10    23     1    110.700    313.800
   10     9    22     1    110.700    313.800
    4     3     6     1     98.900    518.816
   19     6    20     1    107.800    276.144
   25    11    26     1    107.800    276.144
    5     3     6     1    109.500    376.560
   27    12    29     1    107.800    276.144
   13     1    15     1    107.800    276.144
   11    10    12     1    112.700    488.273
   16     4    18     1    107.800    276.144
    7     6    20     1    109.500    292.880

[ dihedrals ]
; IMPROPER DIHEDRAL ANGLES 
;  ai    aj    ak    al funct            c0            c1            c2            c3            c4            c5
     9     7     6     8    4        180.000     43.932     2  

[ dihedrals ]
; PROPER DIHEDRAL ANGLES
;  ai    aj    ak    al funct            c0            c1            c2            c3            c4            c5
    7    6    3    4        3      -5.724  -18.338  -5.234  29.296  -0.000   0.000
    7    6    3    5        3       4.707  -4.707   0.000  -0.000  -0.000   0.000
    7    6    3    2        3       4.707  -4.707   0.000  -0.000  -0.000   0.000
    9    7    6    3        3       0.575   1.726   0.000  -2.301  -0.000   0.000
   10    9    7    6        3       0.818  -7.906   0.602   6.485  -0.000   0.000
   10    9    7    8        3       0.000   0.000   0.000  -0.000  -0.000   0.000
   12   10    9    7        3      -4.960   6.286   1.310  -2.636  -0.000   0.000
   11   10    9    7        3      -4.960   6.286   1.310  -2.636  -0.000   0.000
    6    3    2    1        3      -3.347   2.092  13.807  -12.552  -0.000   0.000
    4    3    2    1        3      -3.347   2.092  13.807  -12.552  -0.000   0.000
   22    9    7    6        3       0.575   1.726   0.000  -2.301  -0.000   0.000
   20    6    7    9        3       0.575   1.726   0.000  -2.301  -0.000   0.000
   19    6    7    9        3       0.575   1.726   0.000  -2.301  -0.000   0.000
   21    9    7    6        3       0.575   1.726   0.000  -2.301  -0.000   0.000
   22    9    7    8        3       0.000   0.000   0.000  -0.000  -0.000   0.000
   20    6    7    8        3       0.000   0.000   0.000  -0.000  -0.000   0.000
   21    9    7    8        3       0.000   0.000   0.000  -0.000  -0.000   0.000
   19    6    7    8        3       0.000   0.000   0.000  -0.000  -0.000   0.000
   23   10    9    7        3      -0.209  -0.628   0.000   0.837  -0.000   0.000
   21    9   10   11        3       0.628   1.883   0.000  -2.510  -0.000   0.000
   28   12   10    9        3       0.628   1.883   0.000  -2.510  -0.000   0.000
   22    9   10   11        3       0.628   1.883   0.000  -2.510  -0.000   0.000
   21    9   10   12        3       0.628   1.883   0.000  -2.510  -0.000   0.000
   29   12   10    9        3       0.628   1.883   0.000  -2.510  -0.000   0.000
   27   12   10   11        3       0.628   1.883   0.000  -2.510  -0.000   0.000
   26   11   10    9        3       0.628   1.883   0.000  -2.510  -0.000   0.000
   25   11   10   12        3       0.628   1.883   0.000  -2.510  -0.000   0.000
   26   11   10   12        3       0.628   1.883   0.000  -2.510  -0.000   0.000
   22    9   10   12        3       0.628   1.883   0.000  -2.510  -0.000   0.000
   25   11   10    9        3       0.628   1.883   0.000  -2.510  -0.000   0.000
   24   11   10   12        3       0.628   1.883   0.000  -2.510  -0.000   0.000
   29   12   10   11        3       0.628   1.883   0.000  -2.510  -0.000   0.000
   28   12   10   11        3       0.628   1.883   0.000  -2.510  -0.000   0.000
   24   11   10    9        3       0.628   1.883   0.000  -2.510  -0.000   0.000
   27   12   10    9        3       0.628   1.883   0.000  -2.510  -0.000   0.000
   23   10    9   21        3       0.628   1.883   0.000  -2.510  -0.000   0.000
   29   12   10   23        3       0.628   1.883   0.000  -2.510  -0.000   0.000
   25   11   10   23        3       0.628   1.883   0.000  -2.510  -0.000   0.000
   28   12   10   23        3       0.628   1.883   0.000  -2.510  -0.000   0.000
   26   11   10   23        3       0.628   1.883   0.000  -2.510  -0.000   0.000
   27   12   10   23        3       0.628   1.883   0.000  -2.510  -0.000   0.000
   24   11   10   23        3       0.628   1.883   0.000  -2.510  -0.000   0.000
   23   10    9   22        3       0.628   1.883   0.000  -2.510  -0.000   0.000
   15    1    2    3        3       0.628   1.883   0.000  -2.510  -0.000   0.000
   14    1    2    3        3       0.628   1.883   0.000  -2.510  -0.000   0.000
   13    1    2    3        3       0.628   1.883   0.000  -2.510  -0.000   0.000
   18    4    3    6        3       0.628   1.883   0.000  -2.510  -0.000   0.000
   17    4    3    6        3       0.628   1.883   0.000  -2.510  -0.000   0.000
   16    4    3    6        3       0.628   1.883   0.000  -2.510  -0.000   0.000
   20    6    3    4        3       0.628   1.883   0.000  -2.510  -0.000   0.000
   19    6    3    4        3       0.628   1.883   0.000  -2.510  -0.000   0.000
   16    4    3    5        3       0.523   1.569   0.000  -2.092  -0.000   0.000
   18    4    3    5        3       0.523   1.569   0.000  -2.092  -0.000   0.000
   17    4    3    5        3       0.523   1.569   0.000  -2.092  -0.000   0.000
   19    6    3    5        3       0.523   1.569   0.000  -2.092  -0.000   0.000
   20    6    3    5        3       0.523   1.569   0.000  -2.092  -0.000   0.000
   18    4    3    2        3       0.523   1.569   0.000  -2.092  -0.000   0.000
   17    4    3    2        3       0.523   1.569   0.000  -2.092  -0.000   0.000
   19    6    3    2        3       0.523   1.569   0.000  -2.092  -0.000   0.000
   20    6    3    2        3       0.523   1.569   0.000  -2.092  -0.000   0.000
   16    4    3    2        3       0.523   1.569   0.000  -2.092  -0.000   0.000
    8    7    6    3        3       0.000   0.000   0.000  -0.000  -0.000   0.000
    5    3    2    1        3       0.000   0.000   0.000  -0.000  -0.000   0.000

[ pairs ]
     1     4    1
     1     5    1
     1     6    1
     2     7    1
     4     7    1
     3     8    1
     5     7    1
     3     9    1
     6    10    1
     3    13    1
     3    14    1
     8    10    1
     7    11    1
     3    15    1
     2    16    1
     7    12    1
     2    17    1
     2    18    1
     5    16    1
     2    19    1
     6    16    1
     5    17    1
     2    20    1
     6    17    1
     5    18    1
     4    19    1
     6    18    1
     5    19    1
     4    20    1
     5    20    1
     8    19    1
     6    21    1
     9    19    1
     8    20    1
     6    22    1
     9    20    1
     8    21    1
     8    22    1
     7    23    1
    11    21    1
    12    21    1
    11    22    1
     9    24    1
    12    22    1
     9    25    1
     9    26    1
    12    24    1
     9    27    1
    12    25    1
     9    28    1
    12    26    1
    11    27    1
     9    29    1
    11    28    1
    11    29    1
    21    23    1
    22    23    1
    23    24    1
    23    25    1
    23    26    1
    23    27    1
    23    28    1
    23    29    1

