LIGPARGEN GENERATED GRO FILE
   25
    1UNK    C00    1   0.100   0.100   0.000
    1UNK    C01    2  -0.052   0.100   0.000
    1UNK    C02    3  -0.110   0.100   0.141
    1UNK    O03    4  -0.037   0.095   0.239
    1UNK    N04    5  -0.249   0.106   0.152
    1UNK    C05    6  -0.308   0.116   0.285
    1UNK    C06    7  -0.401   0.236   0.293
    1UNK    C07    8  -0.507   0.232   0.183
    1UNK    C08    9  -0.442   0.217   0.046
    1UNK    C09   10  -0.342   0.102   0.039
    1UNK    Cl0   11  -0.424  -0.057   0.040
    1UNK    H0B   12   0.138   0.108  -0.102
    1UNK    H0C   13   0.139   0.008   0.044
    1UNK    H0D   14   0.139   0.184   0.058
    1UNK    H0E   15  -0.088   0.011  -0.054
    1UNK    H0F   16  -0.086   0.190  -0.052
    1UNK    H0G   17  -0.231   0.125   0.363
    1UNK    H0H   18  -0.363   0.023   0.306
    1UNK    H0I   19  -0.343   0.328   0.283
    1UNK    H0J   20  -0.450   0.240   0.392
    1UNK    H0K   21  -0.567   0.324   0.186
    1UNK    H0M   22  -0.576   0.149   0.202
    1UNK    H0N   23  -0.389   0.310   0.023
    1UNK    H0O   24  -0.519   0.205  -0.031
    1UNK    H0P   25  -0.290   0.107  -0.056
   1.00000   1.00000   1.00000

