LIGPARGEN GENERATED GRO FILE
   25
    1UNK    C00    1   0.100   0.100   0.000
    1UNK    C01    2  -0.052   0.100   0.000
    1UNK    C02    3  -0.108   0.100   0.143
    1UNK    C03    4  -0.262   0.089   0.149
    1UNK    O04    5  -0.307  -0.017   0.063
    1UNK    C05    6  -0.287  -0.150   0.111
    1UNK    C06    7  -0.313   0.078   0.293
    1UNK    O07    8  -0.262   0.181   0.376
    1UNK    C08    9  -0.364   0.232   0.450
    1UNK    O09   10  -0.349   0.308   0.543
    1UNK    O0A   11  -0.483   0.185   0.405
    1UNK    C0B   12  -0.460   0.098   0.305
    1UNK    O0C   13  -0.549   0.042   0.243
    1UNK    H0D   14   0.138   0.100  -0.103
    1UNK    H0E   15   0.139   0.011   0.050
    1UNK    H0F   16   0.139   0.189   0.051
    1UNK    H0G   17  -0.086   0.011  -0.055
    1UNK    H0H   18  -0.089   0.188  -0.054
    1UNK    H0I   19  -0.076   0.192   0.194
    1UNK    H0J   20  -0.063   0.016   0.198
    1UNK    H0K   21  -0.302   0.181   0.104
    1UNK    H0M   22  -0.291  -0.218   0.026
    1UNK    H0N   23  -0.368  -0.177   0.180
    1UNK    H0O   24  -0.191  -0.162   0.161
    1UNK    H0P   25  -0.286  -0.018   0.339
   1.00000   1.00000   1.00000

