
;
; GENERATED BY LigParGen Server
; Jorgensen Lab @ Yale University 
;
[ atomtypes ]
  opls_818  H818     1.0080     0.000    A    2.50000E-01   1.25520E-01
  opls_824  H824     1.0080     0.000    A    2.50000E-01   1.25520E-01
  opls_805  C805    12.0110     0.000    A    3.50000E-01   2.76144E-01
  opls_810  C810    12.0110     0.000    A    3.50000E-01   2.76144E-01
  opls_828  H828     1.0080     0.000    A    2.50000E-01   1.25520E-01
  opls_803  C803    12.0110     0.000    A    3.45000E-01   3.47272E-01
  opls_806  C806    12.0110     0.000    A    3.50000E-01   2.76144E-01
  opls_815  H815     1.0080     0.000    A    2.50000E-01   1.25520E-01
  opls_809  C809    12.0110     0.000    A    3.50000E-01   2.76144E-01
  opls_830  H830     1.0080     0.000    A    2.50000E-01   1.25520E-01
  opls_822  H822     1.0080     0.000    A    2.50000E-01   1.25520E-01
  opls_807  C807    12.0110     0.000    A    3.50000E-01   2.76144E-01
  opls_825  H825     1.0080     0.000    A    2.50000E-01   1.25520E-01
  opls_826  H826     1.0080     0.000    A    2.50000E-01   1.25520E-01
  opls_814  H814     1.0080     0.000    A    2.50000E-01   1.25520E-01
  opls_821  H821     1.0080     0.000    A    2.50000E-01   1.25520E-01
  opls_820  H820     1.0080     0.000    A    2.50000E-01   1.25520E-01
  opls_829  H829     1.0080     0.000    A    2.50000E-01   1.25520E-01
  opls_831  H831     1.0080     0.000    A    2.50000E-01   1.25520E-01
  opls_832  H832     1.0080     0.000    A    2.50000E-01   1.25520E-01
  opls_812  O812    15.9990     0.000    A    2.96000E-01   8.78640E-01
  opls_816  H816     1.0080     0.000    A    2.50000E-01   1.25520E-01
  opls_800  C800    12.0110     0.000    A    3.50000E-01   2.76144E-01
  opls_813  C813    12.0110     0.000    A    3.45000E-01   3.47272E-01
  opls_823  H823     1.0080     0.000    A    2.50000E-01   1.25520E-01
  opls_811  C811    12.0110     0.000    A    3.55000E-01   2.92880E-01
  opls_833  H833     1.0080     0.000    A    2.50000E-01   1.25520E-01
  opls_802  C802    12.0110     0.000    A    3.45000E-01   3.47272E-01
  opls_819  H819     1.0080     0.000    A    2.50000E-01   1.25520E-01
  opls_804  C804    12.0110     0.000    A    3.50000E-01   2.76144E-01
  opls_827  H827     1.0080     0.000    A    2.50000E-01   1.25520E-01
  opls_808  C808    12.0110     0.000    A    3.50000E-01   2.76144E-01
  opls_817  H817     1.0080     0.000    A    2.50000E-01   1.25520E-01
  opls_801  C801    12.0110     0.000    A    3.45000E-01   3.47272E-01
[ moleculetype ]
; Name               nrexcl
UNK                   3
[ atoms ]
;   nr       type  resnr residue  atom   cgnr     charge       mass  
     1   opls_800      1    UNK   C00      1    -0.2313    12.0110 
     2   opls_801      1    UNK   C01      1    -0.1163    12.0110 
     3   opls_802      1    UNK   C02      1    -0.2086    12.0110 
     4   opls_803      1    UNK   C03      1    -0.1327    12.0110 
     5   opls_804      1    UNK   C04      1     -0.149    12.0110 
     6   opls_805      1    UNK   C05      1    -0.1794    12.0110 
     7   opls_806      1    UNK   C06      1    -0.1486    12.0110 
     8   opls_807      1    UNK   C07      1    -0.0831    12.0110 
     9   opls_808      1    UNK   C08      1    -0.1808    12.0110 
    10   opls_809      1    UNK   C09      1     -0.189    12.0110 
    11   opls_810      1    UNK   C0A      1    -0.2418    12.0110 
    12   opls_811      1    UNK   C0B      1     0.3781    12.0110 
    13   opls_812      1    UNK   O0C      1    -0.4441    15.9990 
    14   opls_813      1    UNK   C0D      1    -0.1046    12.0110 
    15   opls_814      1    UNK   H0E      1     0.0831     1.0080 
    16   opls_815      1    UNK   H0F      1     0.0831     1.0080 
    17   opls_816      1    UNK   H0G      1     0.0831     1.0080 
    18   opls_817      1    UNK   H0H      1     0.1172     1.0080 
    19   opls_818      1    UNK   H0I      1     0.1016     1.0080 
    20   opls_819      1    UNK   H0J      1     0.1016     1.0080 
    21   opls_820      1    UNK   H0K      1      0.123     1.0080 
    22   opls_821      1    UNK   H0M      1      0.089     1.0080 
    23   opls_822      1    UNK   H0N      1      0.089     1.0080 
    24   opls_823      1    UNK   H0O      1      0.097     1.0080 
    25   opls_824      1    UNK   H0P      1      0.097     1.0080 
    26   opls_825      1    UNK   H0Q      1     0.0927     1.0080 
    27   opls_826      1    UNK   H0R      1     0.0927     1.0080 
    28   opls_827      1    UNK   H0S      1     0.1017     1.0080 
    29   opls_828      1    UNK   H0T      1     0.1017     1.0080 
    30   opls_829      1    UNK   H0U      1     0.0977     1.0080 
    31   opls_830      1    UNK   H0V      1     0.0977     1.0080 
    32   opls_831      1    UNK   H0W      1     0.1354     1.0080 
    33   opls_832      1    UNK   H0X      2     0.1354     1.0080 
    34   opls_833      1    UNK   H0Y      2     0.1117     1.0080 
[ bonds ]
    2     1     1      0.1510 234304.000
    3     2     1      0.1520 217568.000
    4     3     1      0.1520 217568.000
    5     4     1      0.1510 234304.000
    6     5     1      0.1529 224262.400
    7     6     1      0.1529 224262.400
    8     7     1      0.1529 224262.400
    9     8     1      0.1529 224262.400
   10     9     1      0.1529 224262.400
   11    10     1      0.1529 224262.400
   12     8     1      0.1522 265265.600
   13    12     1      0.1229 476976.000
   14     2     1      0.1520 217568.000
   15     1     1      0.1090 284512.000
   16     1     1      0.1090 284512.000
   17     1     1      0.1090 284512.000
   18     2     1      0.1088 284512.000
   19     3     1      0.1088 284512.000
   20     3     1      0.1088 284512.000
   21     4     1      0.1088 284512.000
   22     5     1      0.1090 284512.000
   23     5     1      0.1090 284512.000
   24     6     1      0.1090 284512.000
   25     6     1      0.1090 284512.000
   26     7     1      0.1090 284512.000
   27     7     1      0.1090 284512.000
   28     9     1      0.1090 284512.000
   29     9     1      0.1090 284512.000
   30    10     1      0.1090 284512.000
   31    10     1      0.1090 284512.000
   32    11     1      0.1090 284512.000
   33    11     1      0.1090 284512.000
   34    14     1      0.1088 284512.000
   14     4     1      0.1520 217568.000
   14     8     1      0.1510 234304.000
   12    11     1      0.1522 265265.600

[ angles ]
;  ai    aj    ak funct            c0            c1            c2            c3 
    1     2     3     1    117.200    313.800
    2     3     4     1     83.000    251.040
    3     4     5     1    117.200    313.800
    4     5     6     1    112.700    488.273
    5     6     7     1    112.700    488.273
    6     7     8     1    112.700    488.273
    7     8     9     1    112.700    488.273
    8     9    10     1    112.700    488.273
    9    10    11     1    112.700    488.273
    7     8    12     1    111.100    527.184
    8    12    13     1    120.400    669.440
    1     2    14     1    117.200    313.800
    2     1    15     1    110.700    313.800
    2     1    16     1    110.700    313.800
    2     1    17     1    110.700    313.800
    1     2    18     1    114.300    292.880
    2     3    19     1    117.200    313.800
    2     3    20     1    117.200    313.800
    3     4    21     1    117.200    313.800
    4     5    22     1    110.700    313.800
    4     5    23     1    110.700    313.800
    5     6    24     1    110.700    313.800
    5     6    25     1    110.700    313.800
    6     7    26     1    110.700    313.800
    6     7    27     1    110.700    313.800
    8     9    28     1    110.700    313.800
    8     9    29     1    110.700    313.800
    9    10    30     1    110.700    313.800
    9    10    31     1    110.700    313.800
   10    11    32     1    110.700    313.800
   10    11    33     1    110.700    313.800
    2    14    34     1    117.200    313.800
   11    10    30     1    110.700    313.800
    9     8    14     1    112.700    488.273
    8     7    27     1    110.700    313.800
   12     8    14     1    111.100    527.184
    3     2    14     1     83.000    251.040
    5     4    14     1    117.200    313.800
    7     8    14     1    112.700    488.273
    8     7    26     1    110.700    313.800
   10     9    28     1    110.700    313.800
    3     2    18     1    117.200    313.800
   14     4    21     1    117.200    313.800
   10     9    29     1    110.700    313.800
    6     5    22     1    110.700    313.800
    3     4    14     1     83.000    251.040
   30    10    31     1    107.800    276.144
    8    12    11     1    116.000    585.760
    7     6    25     1    110.700    313.800
    4     3    19     1    117.200    313.800
    9     8    12     1    111.100    527.184
   32    11    33     1    107.800    276.144
   24     6    25     1    107.800    276.144
    7     6    24     1    110.700    313.800
   14     2    18     1    117.200    313.800
    4    14    34     1    117.200    313.800
   15     1    16     1    107.800    276.144
   10    11    12     1    111.100    527.184
   12    11    32     1    109.500    292.880
   26     7    27     1    107.800    276.144
   11    10    31     1    110.700    313.800
   19     3    20     1    114.300    292.880
   15     1    17     1    107.800    276.144
   16     1    17     1    107.800    276.144
    6     5    23     1    110.700    313.800
    2    14     4     1     83.000    251.040
    5     4    21     1    114.300    292.880
    8    14    34     1    114.300    292.880
    4     3    20     1    117.200    313.800
   11    12    13     1    120.400    669.440
   22     5    23     1    107.800    276.144
    4    14     8     1    117.200    313.800
   12    11    33     1    109.500    292.880
    2    14     8     1    117.200    313.800
   28     9    29     1    107.800    276.144

[ dihedrals ]
; IMPROPER DIHEDRAL ANGLES 
;  ai    aj    ak    al funct            c0            c1            c2            c3            c4            c5
    13    12     8    11    4        180.000     43.932     2  

[ dihedrals ]
; PROPER DIHEDRAL ANGLES
;  ai    aj    ak    al funct            c0            c1            c2            c3            c4            c5
   12    8    7    6        3      -4.960   6.286   1.310  -2.636  -0.000   0.000
   12   11   10    9        3      -4.960   6.286   1.310  -2.636  -0.000   0.000
   12    8    9   10        3      -4.960   6.286   1.310  -2.636  -0.000   0.000
   12    8   14    2        3      -4.960   6.286   1.310  -2.636  -0.000   0.000
   12    8   14    4        3      -4.960   6.286   1.310  -2.636  -0.000   0.000
   11   12    8    7        3       0.818  -7.906   0.602   6.485  -0.000   0.000
   11   12    8    9        3       0.818  -7.906   0.602   6.485  -0.000   0.000
   10   11   12    8        3       0.818  -7.906   0.602   6.485  -0.000   0.000
    8    7    6    5        3       2.301  -1.464   0.837  -1.674  -0.000   0.000
    9    8    7    6        3       2.301  -1.464   0.837  -1.674  -0.000   0.000
   10    9    8    7        3       2.301  -1.464   0.837  -1.674  -0.000   0.000
   11   10    9    8        3       2.301  -1.464   0.837  -1.674  -0.000   0.000
    7    6    5    4        3       2.301  -1.464   0.837  -1.674  -0.000   0.000
    9    8   14    4        3       0.000   0.000   0.000  -0.000  -0.000   0.000
    7    8   14    2        3       0.000   0.000   0.000  -0.000  -0.000   0.000
    7    8   14    4        3       0.000   0.000   0.000  -0.000  -0.000   0.000
    9    8   14    2        3       0.000   0.000   0.000  -0.000  -0.000   0.000
    6    5    4    3        3       0.000   0.000   0.000  -0.000  -0.000   0.000
    8   14    4    5        3       0.000   0.000   0.000  -0.000  -0.000   0.000
    8   14    2    1        3       0.000   0.000   0.000  -0.000  -0.000   0.000
    5    4   14    2        3       0.000   0.000   0.000  -0.000  -0.000   0.000
    8   14    2    3        3       0.000   0.000   0.000  -0.000  -0.000   0.000
    5    4    3    2        3       0.000   0.000   0.000  -0.000  -0.000   0.000
    8   14    4    3        3       0.000   0.000   0.000  -0.000  -0.000   0.000
   14    8   12   11        3       0.818  -7.906   0.602   6.485  -0.000   0.000
   14    8   12   13        3       0.000   0.000   0.000  -0.000  -0.000   0.000
   14    8    9   10        3       2.301  -1.464   0.837  -1.674  -0.000   0.000
   14    8    7    6        3       2.301  -1.464   0.837  -1.674  -0.000   0.000
   14    4    5    6        3       0.000   0.000   0.000  -0.000  -0.000   0.000
    4   14    2    1        3       0.000   0.000   0.000  -0.000  -0.000   0.000
    4    3    2    1        3       0.000   0.000   0.000  -0.000  -0.000   0.000
   33   11   12    8        3       0.575   1.726   0.000  -2.301  -0.000   0.000
   32   11   12    8        3       0.575   1.726   0.000  -2.301  -0.000   0.000
   33   11   12   13        3       0.000   0.000   0.000  -0.000  -0.000   0.000
   32   11   12   13        3       0.000   0.000   0.000  -0.000  -0.000   0.000
   26    7    8   12        3      -0.209  -0.628   0.000   0.837  -0.000   0.000
   30   10   11   12        3      -0.209  -0.628   0.000   0.837  -0.000   0.000
   27    7    8   12        3      -0.209  -0.628   0.000   0.837  -0.000   0.000
   28    9    8   12        3      -0.209  -0.628   0.000   0.837  -0.000   0.000
   29    9    8   12        3      -0.209  -0.628   0.000   0.837  -0.000   0.000
   31   10   11   12        3      -0.209  -0.628   0.000   0.837  -0.000   0.000
   28    9    8    7        3       0.628   1.883   0.000  -2.510  -0.000   0.000
   22    5    6    7        3       0.628   1.883   0.000  -2.510  -0.000   0.000
   32   11   10    9        3       0.628   1.883   0.000  -2.510  -0.000   0.000
   33   11   10    9        3       0.628   1.883   0.000  -2.510  -0.000   0.000
   29    9   10   11        3       0.628   1.883   0.000  -2.510  -0.000   0.000
   27    7    6    5        3       0.628   1.883   0.000  -2.510  -0.000   0.000
   24    6    7    8        3       0.628   1.883   0.000  -2.510  -0.000   0.000
   28    9   10   11        3       0.628   1.883   0.000  -2.510  -0.000   0.000
   25    6    7    8        3       0.628   1.883   0.000  -2.510  -0.000   0.000
   29    9    8    7        3       0.628   1.883   0.000  -2.510  -0.000   0.000
   23    5    6    7        3       0.628   1.883   0.000  -2.510  -0.000   0.000
   30   10    9    8        3       0.628   1.883   0.000  -2.510  -0.000   0.000
   26    7    6    5        3       0.628   1.883   0.000  -2.510  -0.000   0.000
   31   10    9    8        3       0.628   1.883   0.000  -2.510  -0.000   0.000
   27    7    8    9        3       0.628   1.883   0.000  -2.510  -0.000   0.000
   26    7    8    9        3       0.628   1.883   0.000  -2.510  -0.000   0.000
   26    7    8   14        3       0.628   1.883   0.000  -2.510  -0.000   0.000
   28    9    8   14        3       0.628   1.883   0.000  -2.510  -0.000   0.000
   29    9    8   14        3       0.628   1.883   0.000  -2.510  -0.000   0.000
   25    6    5    4        3       0.628   1.883   0.000  -2.510  -0.000   0.000
   24    6    5    4        3       0.628   1.883   0.000  -2.510  -0.000   0.000
   27    7    8   14        3       0.628   1.883   0.000  -2.510  -0.000   0.000
   25    6    5   22        3       0.628   1.883   0.000  -2.510  -0.000   0.000
   27    7    6   25        3       0.628   1.883   0.000  -2.510  -0.000   0.000
   32   11   10   30        3       0.628   1.883   0.000  -2.510  -0.000   0.000
   31   10    9   29        3       0.628   1.883   0.000  -2.510  -0.000   0.000
   33   11   10   30        3       0.628   1.883   0.000  -2.510  -0.000   0.000
   32   11   10   31        3       0.628   1.883   0.000  -2.510  -0.000   0.000
   33   11   10   31        3       0.628   1.883   0.000  -2.510  -0.000   0.000
   30   10    9   29        3       0.628   1.883   0.000  -2.510  -0.000   0.000
   24    6    5   23        3       0.628   1.883   0.000  -2.510  -0.000   0.000
   24    6    5   22        3       0.628   1.883   0.000  -2.510  -0.000   0.000
   26    7    6   25        3       0.628   1.883   0.000  -2.510  -0.000   0.000
   31   10    9   28        3       0.628   1.883   0.000  -2.510  -0.000   0.000
   27    7    6   24        3       0.628   1.883   0.000  -2.510  -0.000   0.000
   25    6    5   23        3       0.628   1.883   0.000  -2.510  -0.000   0.000
   30   10    9   28        3       0.628   1.883   0.000  -2.510  -0.000   0.000
   26    7    6   24        3       0.628   1.883   0.000  -2.510  -0.000   0.000
   23    5    4   14        3       0.628   1.883   0.000  -2.510  -0.000   0.000
   23    5    4    3        3       0.628   1.883   0.000  -2.510  -0.000   0.000
   22    5    4   14        3       0.628   1.883   0.000  -2.510  -0.000   0.000
   16    1    2    3        3       0.628   1.883   0.000  -2.510  -0.000   0.000
   17    1    2   14        3       0.628   1.883   0.000  -2.510  -0.000   0.000
   15    1    2   14        3       0.628   1.883   0.000  -2.510  -0.000   0.000
   17    1    2    3        3       0.628   1.883   0.000  -2.510  -0.000   0.000
   15    1    2    3        3       0.628   1.883   0.000  -2.510  -0.000   0.000
   22    5    4    3        3       0.628   1.883   0.000  -2.510  -0.000   0.000
   16    1    2   14        3       0.628   1.883   0.000  -2.510  -0.000   0.000
   23    5    4   21        3       0.628   1.883   0.000  -2.510  -0.000   0.000
   22    5    4   21        3       0.628   1.883   0.000  -2.510  -0.000   0.000
   34   14    8   12        3      -0.209  -0.628   0.000   0.837  -0.000   0.000
   34   14    8    7        3       0.628   1.883   0.000  -2.510  -0.000   0.000
   21    4    5    6        3       0.628   1.883   0.000  -2.510  -0.000   0.000
   34   14    8    9        3       0.628   1.883   0.000  -2.510  -0.000   0.000
   18    2    1   16        3       0.628   1.883   0.000  -2.510  -0.000   0.000
   18    2    1   15        3       0.628   1.883   0.000  -2.510  -0.000   0.000
   18    2    1   17        3       0.628   1.883   0.000  -2.510  -0.000   0.000
   19    3    4    5        3       0.000   0.000   0.000  -0.000  -0.000   0.000
   21    4   14    8        3       0.000   0.000   0.000  -0.000  -0.000   0.000
   34   14    2    1        3       0.000   0.000   0.000  -0.000  -0.000   0.000
   20    3    4    5        3       0.000   0.000   0.000  -0.000  -0.000   0.000
   19    3    2    1        3       0.000   0.000   0.000  -0.000  -0.000   0.000
   18    2   14    8        3       0.000   0.000   0.000  -0.000  -0.000   0.000
   20    3    2    1        3       0.000   0.000   0.000  -0.000  -0.000   0.000
   34   14    4    5        3       0.000   0.000   0.000  -0.000  -0.000   0.000
   34   14    4    3        3       0.000   0.000   0.000  -0.000  -0.000   0.000
   18    2   14    4        3       0.000   0.000   0.000  -0.000  -0.000   0.000
   21    4   14    2        3       0.000   0.000   0.000  -0.000  -0.000   0.000
   20    3    2   14        3       0.000   0.000   0.000  -0.000  -0.000   0.000
   18    2    3    4        3       0.000   0.000   0.000  -0.000  -0.000   0.000
   21    4    3    2        3       0.000   0.000   0.000  -0.000  -0.000   0.000
   20    3    4   14        3       0.000   0.000   0.000  -0.000  -0.000   0.000
   34   14    2    3        3       0.000   0.000   0.000  -0.000  -0.000   0.000
   19    3    2   14        3       0.000   0.000   0.000  -0.000  -0.000   0.000
   19    3    4   14        3       0.000   0.000   0.000  -0.000  -0.000   0.000
   21    4    3   19        3       0.000   0.000   0.000  -0.000  -0.000   0.000
   20    3    2   18        3       0.000   0.000   0.000  -0.000  -0.000   0.000
   19    3    2   18        3       0.000   0.000   0.000  -0.000  -0.000   0.000
   34   14    4   21        3       0.000   0.000   0.000  -0.000  -0.000   0.000
   34   14    2   18        3       0.000   0.000   0.000  -0.000  -0.000   0.000
   21    4    3   20        3       0.000   0.000   0.000  -0.000  -0.000   0.000
   13   12   11   10        3       0.000   0.000   0.000  -0.000  -0.000   0.000
   13   12    8    9        3       0.000   0.000   0.000  -0.000  -0.000   0.000
   13   12    8    7        3       0.000   0.000   0.000  -0.000  -0.000   0.000

[ pairs ]
     1     4    1
     2     5    1
     3     6    1
     2     7    1
     1     8    1
     4     7    1
     3     8    1
     2     9    1
     5     8    1
     4     9    1
     2    12    1
     6     9    1
     4    12    1
     7    10    1
     7    11    1
     6    12    1
     3    15    1
     3    16    1
     7    13    1
     6    14    1
     3    17    1
     1    19    1
     1    20    1
     9    13    1
     4    18    1
    10    13    1
     2    21    1
    10    14    1
     5    19    1
    11    14    1
     5    20    1
     3    22    1
     8    18    1
     3    23    1
    13    14    1
     6    21    1
     4    24    1
    14    15    1
     8    21    1
     7    22    1
     4    25    1
    14    16    1
     7    23    1
    14    17    1
     5    26    1
     8    24    1
     5    27    1
    15    18    1
    14    19    1
     8    25    1
    16    18    1
    14    20    1
    17    18    1
     9    26    1
     7    28    1
     1    34    1
    14    22    1
     9    27    1
     7    29    1
    18    19    1
    14    23    1
     3    34    1
    18    20    1
    12    26    1
     8    30    1
    12    27    1
    11    28    1
     8    31    1
     5    34    1
    19    21    1
    14    26    1
    12    28    1
    11    29    1
     8    32    1
    20    21    1
    14    27    1
    12    29    1
     9    32    1
     8    33    1
     7    34    1
    14    28    1
    12    30    1
     9    33    1
    21    22    1
    14    29    1
    12    31    1
     9    34    1
    21    23    1
    13    32    1
    22    24    1
    13    33    1
    12    34    1
    23    24    1
    22    25    1
    23    25    1
    24    26    1
    25    26    1
    24    27    1
    25    27    1
    18    34    1
    21    34    1
    28    30    1
    29    30    1
    28    31    1
    29    31    1
    30    32    1
    31    32    1
    30    33    1
    31    33    1

