LIGPARGEN GENERATED GRO FILE
   37
    1UNK    C00    1   0.100   0.100   0.000
    1UNK    C01    2  -0.052   0.100   0.000
    1UNK    C02    3  -0.119   0.100   0.141
    1UNK    C03    4  -0.080  -0.028   0.215
    1UNK    C04    5  -0.094   0.234   0.217
    1UNK    O05    6  -0.150   0.335   0.130
    1UNK    O06    7  -0.088   0.462   0.164
    1UNK    C07    8  -0.168   0.560   0.098
    1UNK    C08    9  -0.158   0.252   0.359
    1UNK    C09   10  -0.311   0.246   0.350
    1UNK    C0A   11  -0.099   0.164   0.473
    1UNK    C0B   12   0.053   0.178   0.485
    1UNK    C0C   13  -0.161   0.195   0.610
    1UNK    H0D   14   0.137   0.091  -0.103
    1UNK    H0E   15   0.141   0.016   0.057
    1UNK    H0F   16   0.140   0.193   0.041
    1UNK    H0G   17  -0.086   0.011  -0.054
    1UNK    H0H   18  -0.088   0.186  -0.058
    1UNK    H0I   19  -0.226   0.094   0.120
    1UNK    H0J   20   0.018  -0.020   0.262
    1UNK    H0K   21  -0.076  -0.113   0.146
    1UNK    H0M   22  -0.155  -0.054   0.290
    1UNK    H0N   23   0.014   0.252   0.223
    1UNK    H0O   24  -0.118   0.656   0.103
    1UNK    H0P   25  -0.266   0.567   0.146
    1UNK    H0Q   26  -0.181   0.533  -0.008
    1UNK    H0R   27  -0.136   0.356   0.389
    1UNK    H0S   28  -0.346   0.150   0.312
    1UNK    H0T   29  -0.349   0.325   0.284
    1UNK    H0U   30  -0.359   0.264   0.448
    1UNK    H0V   31  -0.122   0.059   0.455
    1UNK    H0W   32   0.081   0.283   0.502
    1UNK    H0X   33   0.105   0.143   0.396
    1UNK    H0Y   34   0.091   0.119   0.570
    1UNK    H0Z   35  -0.154   0.302   0.634
    1UNK    H10   36  -0.110   0.139   0.690
    1UNK    H11   37  -0.266   0.166   0.614
   1.00000   1.00000   1.00000

