
;
; GENERATED BY LigParGen Server
; Jorgensen Lab @ Yale University 
;
[ atomtypes ]
  opls_810  H810     1.0080     0.000    A    2.50000E-01   1.25520E-01
  opls_802  S802    32.0600     0.000    A    3.55000E-01   1.04600E+00
  opls_818  H818     1.0080     0.000    A    2.50000E-01   1.25520E-01
  opls_801  C801    12.0110     0.000    A    3.50000E-01   2.76144E-01
  opls_804  O804    15.9990     0.000    A    2.96000E-01   7.11280E-01
  opls_814  H814     1.0080     0.000    A    2.50000E-01   1.25520E-01
  opls_817  H817     1.0080     0.000    A    2.50000E-01   1.25520E-01
  opls_808  C808    12.0110     0.000    A    3.45000E-01   3.47272E-01
  opls_820  H820     1.0080     0.000    A    2.50000E-01   1.25520E-01
  opls_812  H812     1.0080     0.000    A    2.50000E-01   1.25520E-01
  opls_819  H819     1.0080     0.000    A    2.50000E-01   1.25520E-01
  opls_809  H809     1.0080     0.000    A    2.50000E-01   1.25520E-01
  opls_803  O803    15.9990     0.000    A    2.96000E-01   7.11280E-01
  opls_805  C805    12.0110     0.000    A    3.45000E-01   3.47272E-01
  opls_815  H815     1.0080     0.000    A    2.50000E-01   1.25520E-01
  opls_806  C806    12.0110     0.000    A    3.45000E-01   3.47272E-01
  opls_813  H813     1.0080     0.000    A    2.50000E-01   1.25520E-01
  opls_800  C800    12.0110     0.000    A    3.50000E-01   2.76144E-01
  opls_811  H811     1.0080     0.000    A    2.50000E-01   1.25520E-01
  opls_816  H816     1.0080     0.000    A    2.50000E-01   1.25520E-01
  opls_807  C807    12.0110     0.000    A    3.45000E-01   3.47272E-01
[ moleculetype ]
; Name               nrexcl
UNK                   3
[ atoms ]
;   nr       type  resnr residue  atom   cgnr     charge       mass  
     1   opls_800      1    UNK   C00      1    -0.2095    12.0110 
     2   opls_801      1    UNK   C01      1    -0.5014    12.0110 
     3   opls_802      1    UNK   S02      1     1.2962    32.0600 
     4   opls_803      1    UNK   O03      1    -0.5645    15.9990 
     5   opls_804      1    UNK   O04      1    -0.5645    15.9990 
     6   opls_805      1    UNK   C05      1    -0.4778    12.0110 
     7   opls_806      1    UNK   C06      1    -0.1451    12.0110 
     8   opls_807      1    UNK   C07      1    -0.1849    12.0110 
     9   opls_808      1    UNK   C08      1    -0.1574    12.0110 
    10   opls_809      1    UNK   H09      1     0.1056     1.0080 
    11   opls_810      1    UNK   H0A      1     0.1056     1.0080 
    12   opls_811      1    UNK   H0B      1     0.1056     1.0080 
    13   opls_812      1    UNK   H0C      1     0.1545     1.0080 
    14   opls_813      1    UNK   H0D      1     0.1545     1.0080 
    15   opls_814      1    UNK   H0E      1     0.1764     1.0080 
    16   opls_815      1    UNK   H0F      1      0.122     1.0080 
    17   opls_816      1    UNK   H0G      1      0.122     1.0080 
    18   opls_817      1    UNK   H0H      1     0.1102     1.0080 
    19   opls_818      1    UNK   H0I      1     0.1102     1.0080 
    20   opls_819      1    UNK   H0J      1      0.121     1.0080 
    21   opls_820      1    UNK   H0K      1      0.121     1.0080 
[ bonds ]
    2     1     1      0.1529 224262.400
    3     2     1      0.1770 284512.000
    4     3     1      0.1440 585760.000
    5     3     1      0.1440 585760.000
    6     3     1      0.1770 284512.000
    7     6     1      0.1520 217568.000
    8     7     1      0.1520 217568.000
    9     6     1      0.1520 217568.000
   10     1     1      0.1090 284512.000
   11     1     1      0.1090 284512.000
   12     1     1      0.1090 284512.000
   13     2     1      0.1090 284512.000
   14     2     1      0.1090 284512.000
   15     6     1      0.1088 284512.000
   16     7     1      0.1088 284512.000
   17     7     1      0.1088 284512.000
   18     8     1      0.1088 284512.000
   19     8     1      0.1088 284512.000
   20     9     1      0.1088 284512.000
   21     9     1      0.1088 284512.000
    9     8     1      0.1520 217568.000

[ angles ]
;  ai    aj    ak funct            c0            c1            c2            c3 
    1     2     3     1    108.600    418.400
    2     3     4     1    108.900    619.232
    2     3     5     1    108.900    619.232
    2     3     6     1    102.000    518.816
    3     6     7     1    128.000    460.240
    6     7     8     1     83.000    251.040
    3     6     9     1    128.000    460.240
    2     1    10     1    110.700    313.800
    2     1    11     1    110.700    313.800
    2     1    12     1    110.700    313.800
    1     2    13     1    110.700    313.800
    1     2    14     1    110.700    313.800
    3     6    15     1    108.000    313.800
    6     7    16     1    117.200    313.800
    6     7    17     1    117.200    313.800
    7     8    18     1    117.200    313.800
    7     8    19     1    117.200    313.800
    6     9    20     1    117.200    313.800
    6     9    21     1    117.200    313.800
    8     9    20     1    117.200    313.800
    3     2    14     1    109.500    292.880
   18     8    19     1    114.300    292.880
   13     2    14     1    107.800    276.144
    7     6     9     1     83.000    251.040
    6     9     8     1     83.000    251.040
    9     6    15     1    117.200    313.800
    9     8    18     1    117.200    313.800
   20     9    21     1    114.300    292.880
    4     3     5     1    119.000    870.272
    9     8    19     1    117.200    313.800
    7     6    15     1    117.200    313.800
   11     1    12     1    107.800    276.144
    8     9    21     1    117.200    313.800
   16     7    17     1    114.300    292.880
    4     3     6     1    108.900    619.232
   10     1    12     1    107.800    276.144
   10     1    11     1    107.800    276.144
    3     2    13     1    109.500    292.880
    8     7    17     1    117.200    313.800
    5     3     6     1    108.900    619.232
    7     8     9     1     83.000    251.040
    8     7    16     1    117.200    313.800

[ dihedrals ]
; IMPROPER DIHEDRAL ANGLES 
;  ai    aj    ak    al funct            c0            c1            c2            c3            c4            c5

[ dihedrals ]
; PROPER DIHEDRAL ANGLES
;  ai    aj    ak    al funct            c0            c1            c2            c3            c4            c5
    8    7    6    3        3       0.000   0.000   0.000  -0.000  -0.000   0.000
    8    9    6    3        3       0.000   0.000   0.000  -0.000  -0.000   0.000
    7    6    3    2        3       0.000   0.000   0.000  -0.000  -0.000   0.000
    9    6    3    2        3       0.000   0.000   0.000  -0.000  -0.000   0.000
    9    6    3    5        3       0.000   0.000   0.000  -0.000  -0.000   0.000
    7    6    3    5        3       0.000   0.000   0.000  -0.000  -0.000   0.000
    9    6    3    4        3       0.000   0.000   0.000  -0.000  -0.000   0.000
    7    6    3    4        3       0.000   0.000   0.000  -0.000  -0.000   0.000
    6    3    2    1        3       0.000   0.000   0.000  -0.000  -0.000   0.000
   13    2    1   10        3       0.628   1.883   0.000  -2.510  -0.000   0.000
   13    2    1   11        3       0.628   1.883   0.000  -2.510  -0.000   0.000
   14    2    1   10        3       0.628   1.883   0.000  -2.510  -0.000   0.000
   14    2    1   11        3       0.628   1.883   0.000  -2.510  -0.000   0.000
   14    2    1   12        3       0.628   1.883   0.000  -2.510  -0.000   0.000
   13    2    1   12        3       0.628   1.883   0.000  -2.510  -0.000   0.000
   10    1    2    3        3       0.946   2.837   0.000  -3.782  -0.000   0.000
   11    1    2    3        3       0.946   2.837   0.000  -3.782  -0.000   0.000
   12    1    2    3        3       0.946   2.837   0.000  -3.782  -0.000   0.000
   13    2    3    6        3       0.732   2.197   0.000  -2.929  -0.000   0.000
   14    2    3    6        3       0.732   2.197   0.000  -2.929  -0.000   0.000
   13    2    3    5        3       0.732   2.197   0.000  -2.929  -0.000   0.000
   14    2    3    4        3       0.732   2.197   0.000  -2.929  -0.000   0.000
   14    2    3    5        3       0.732   2.197   0.000  -2.929  -0.000   0.000
   13    2    3    4        3       0.732   2.197   0.000  -2.929  -0.000   0.000
   15    6    9    8        3       0.000   0.000   0.000  -0.000  -0.000   0.000
   18    8    9    6        3       0.000   0.000   0.000  -0.000  -0.000   0.000
   18    8    7    6        3       0.000   0.000   0.000  -0.000  -0.000   0.000
   15    6    7    8        3       0.000   0.000   0.000  -0.000  -0.000   0.000
   19    8    9    6        3       0.000   0.000   0.000  -0.000  -0.000   0.000
   17    7    6    9        3       0.000   0.000   0.000  -0.000  -0.000   0.000
   21    9    6    7        3       0.000   0.000   0.000  -0.000  -0.000   0.000
   17    7    8    9        3       0.000   0.000   0.000  -0.000  -0.000   0.000
   16    7    6    9        3       0.000   0.000   0.000  -0.000  -0.000   0.000
   20    9    6    7        3       0.000   0.000   0.000  -0.000  -0.000   0.000
   21    9    8    7        3       0.000   0.000   0.000  -0.000  -0.000   0.000
   16    7    8    9        3       0.000   0.000   0.000  -0.000  -0.000   0.000
   20    9    8    7        3       0.000   0.000   0.000  -0.000  -0.000   0.000
   19    8    7    6        3       0.000   0.000   0.000  -0.000  -0.000   0.000
   21    9    8   18        3       0.000   0.000   0.000  -0.000  -0.000   0.000
   20    9    6   15        3       0.000   0.000   0.000  -0.000  -0.000   0.000
   17    7    6   15        3       0.000   0.000   0.000  -0.000  -0.000   0.000
   16    7    6   15        3       0.000   0.000   0.000  -0.000  -0.000   0.000
   20    9    8   19        3       0.000   0.000   0.000  -0.000  -0.000   0.000
   19    8    7   17        3       0.000   0.000   0.000  -0.000  -0.000   0.000
   21    9    8   19        3       0.000   0.000   0.000  -0.000  -0.000   0.000
   19    8    7   16        3       0.000   0.000   0.000  -0.000  -0.000   0.000
   21    9    6   15        3       0.000   0.000   0.000  -0.000  -0.000   0.000
   18    8    7   16        3       0.000   0.000   0.000  -0.000  -0.000   0.000
   20    9    8   18        3       0.000   0.000   0.000  -0.000  -0.000   0.000
   18    8    7   17        3       0.000   0.000   0.000  -0.000  -0.000   0.000
   17    7    6    3        3       0.000   0.000   0.000  -0.000  -0.000   0.000
   16    7    6    3        3       0.000   0.000   0.000  -0.000  -0.000   0.000
   20    9    6    3        3       0.000   0.000   0.000  -0.000  -0.000   0.000
   21    9    6    3        3       0.000   0.000   0.000  -0.000  -0.000   0.000
   15    6    3    2        3       0.732   2.197   0.000  -2.929  -0.000   0.000
   15    6    3    4        3       0.732   2.197   0.000  -2.929  -0.000   0.000
   15    6    3    5        3       0.732   2.197   0.000  -2.929  -0.000   0.000
    5    3    2    1        3       0.000   0.000   0.000  -0.000  -0.000   0.000
    4    3    2    1        3       0.000   0.000   0.000  -0.000  -0.000   0.000

[ pairs ]
     1     4    1
     1     5    1
     1     6    1
     2     7    1
     4     7    1
     3     8    1
     2     9    1
     5     7    1
     4     9    1
     3    10    1
     5     9    1
     3    11    1
     3    12    1
     4    13    1
     2    15    1
     5    13    1
     4    14    1
     6    13    1
     5    14    1
     4    15    1
     3    16    1
     6    14    1
     5    15    1
     3    17    1
    10    13    1
     8    15    1
     3    20    1
    11    13    1
    10    14    1
     6    18    1
     3    21    1
    12    13    1
    11    14    1
     9    16    1
     6    19    1
    12    14    1
     9    17    1
     7    20    1
     7    21    1
    15    16    1
    15    17    1
    16    18    1
    17    18    1
    16    19    1
    15    20    1
    17    19    1
    15    21    1
    18    20    1
    19    20    1
    18    21    1
    19    21    1

