LIGPARGEN GENERATED GRO FILE
   21
    1UNK    C00    1   0.100   0.100   0.000
    1UNK    C01    2  -0.052   0.100   0.000
    1UNK    S02    3  -0.118   0.100   0.166
    1UNK    O03    4  -0.073  -0.023   0.230
    1UNK    O04    5  -0.086   0.229   0.225
    1UNK    C05    6  -0.294   0.087   0.136
    1UNK    C06    7  -0.381   0.085   0.264
    1UNK    C07    8  -0.485   0.167   0.184
    1UNK    C08    9  -0.368   0.217   0.098
    1UNK    H09   10   0.138   0.100  -0.103
    1UNK    H0A   11   0.139   0.011   0.051
    1UNK    H0B   12   0.140   0.188   0.051
    1UNK    H0C   13  -0.089   0.010  -0.050
    1UNK    H0D   14  -0.090   0.189  -0.051
    1UNK    H0E   15  -0.316   0.003   0.068
    1UNK    H0F   16  -0.339   0.138   0.350
    1UNK    H0G   17  -0.415  -0.014   0.296
    1UNK    H0H   18  -0.538   0.243   0.241
    1UNK    H0I   19  -0.557   0.105   0.129
    1UNK    H0J   20  -0.323   0.310   0.135
    1UNK    H0K   21  -0.390   0.229  -0.009
   1.00000   1.00000   1.00000

