LIGPARGEN GENERATED GRO FILE
   32
    1UNK    C00    1   0.100   0.100   0.000
    1UNK    C01    2  -0.052   0.100   0.000
    1UNK    C02    3  -0.106   0.100   0.143
    1UNK    C03    4  -0.259   0.100   0.144
    1UNK    C04    5  -0.312   0.100   0.286
    1UNK    O05    6  -0.254   0.157   0.378
    1UNK    C06    7  -0.445   0.030   0.309
    1UNK    C07    8  -0.548   0.128   0.367
    1UNK    C08    9  -0.686   0.065   0.394
    1UNK    C09   10  -0.678  -0.049   0.497
    1UNK    C0A   11  -0.782   0.173   0.448
    1UNK    C0B   12  -0.744   0.010   0.265
    1UNK    N0C   13  -0.791  -0.036   0.158
    1UNK    H0D   14   0.138   0.100  -0.103
    1UNK    H0E   15   0.139   0.011   0.051
    1UNK    H0F   16   0.139   0.189   0.051
    1UNK    H0G   17  -0.088   0.012  -0.054
    1UNK    H0H   18  -0.088   0.188  -0.054
    1UNK    H0I   19  -0.069   0.188   0.196
    1UNK    H0J   20  -0.070   0.012   0.196
    1UNK    H0K   21  -0.295   0.010   0.092
    1UNK    H0M   22  -0.299   0.188   0.093
    1UNK    H0N   23  -0.425  -0.053   0.377
    1UNK    H0O   24  -0.480  -0.011   0.215
    1UNK    H0P   25  -0.558   0.213   0.298
    1UNK    H0Q   26  -0.508   0.170   0.461
    1UNK    H0R   27  -0.637  -0.014   0.592
    1UNK    H0S   28  -0.615  -0.132   0.461
    1UNK    H0T   29  -0.777  -0.091   0.517
    1UNK    H0U   30  -0.747   0.213   0.543
    1UNK    H0V   31  -0.883   0.132   0.464
    1UNK    H0W   32  -0.792   0.256   0.377
   1.00000   1.00000   1.00000

