
;
; GENERATED BY LigParGen Server
; Jorgensen Lab @ Yale University 
;
[ atomtypes ]
  opls_818  H818     1.0080     0.000    A    2.50000E-01   1.25520E-01
  opls_803  O803    15.9990     0.000    A    2.90000E-01   5.85760E-01
  opls_805  O805    15.9990     0.000    A    2.96000E-01   8.78640E-01
  opls_813  H813     1.0080     0.000    A    2.50000E-01   1.25520E-01
  opls_806  O806    15.9990     0.000    A    2.90000E-01   5.85760E-01
  opls_802  C802    12.0110     0.000    A    3.50000E-01   2.76144E-01
  opls_815  H815     1.0080     0.000    A    2.50000E-01   1.25520E-01
  opls_809  C809    12.0110     0.000    A    3.50000E-01   2.76144E-01
  opls_807  C807    12.0110     0.000    A    3.50000E-01   2.76144E-01
  opls_814  H814     1.0080     0.000    A    2.50000E-01   1.25520E-01
  opls_821  H821     1.0080     0.000    A    2.50000E-01   1.25520E-01
  opls_820  H820     1.0080     0.000    A    2.50000E-01   1.25520E-01
  opls_811  H811     1.0080     0.000    A    2.50000E-01   1.25520E-01
  opls_810  H810     1.0080     0.000    A    2.50000E-01   1.25520E-01
  opls_804  C804    12.0110     0.000    A    3.55000E-01   2.92880E-01
  opls_816  H816     1.0080     0.000    A    2.50000E-01   1.25520E-01
  opls_800  C800    12.0110     0.000    A    3.50000E-01   2.76144E-01
  opls_808  O808    15.9990     0.000    A    2.90000E-01   5.85760E-01
  opls_819  H819     1.0080     0.000    A    2.50000E-01   1.25520E-01
  opls_801  C801    12.0110     0.000    A    3.50000E-01   2.76144E-01
  opls_817  H817     1.0080     0.000    A    2.50000E-01   1.25520E-01
  opls_812  H812     1.0080     0.000    A    2.50000E-01   1.25520E-01
[ moleculetype ]
; Name               nrexcl
UNK                   3
[ atoms ]
;   nr       type  resnr residue  atom   cgnr     charge       mass  
     1   opls_800      1    UNK   C00      1    -0.2366    12.0110 
     2   opls_801      1    UNK   C01      1    -0.2125    12.0110 
     3   opls_802      1    UNK   C02      1     0.0217    12.0110 
     4   opls_803      1    UNK   O03      1    -0.3238    15.9990 
     5   opls_804      1    UNK   C04      1      0.575    12.0110 
     6   opls_805      1    UNK   O05      1    -0.5015    15.9990 
     7   opls_806      1    UNK   O06      1    -0.3289    15.9990 
     8   opls_807      1    UNK   C07      1     0.1711    12.0110 
     9   opls_808      1    UNK   O08      1     -0.363    15.9990 
    10   opls_809      1    UNK   C09      1    -0.0672    12.0110 
    11   opls_810      1    UNK   H0A      1     0.0874     1.0080 
    12   opls_811      1    UNK   H0B      1     0.0874     1.0080 
    13   opls_812      1    UNK   H0C      1     0.0874     1.0080 
    14   opls_813      1    UNK   H0D      1     0.1074     1.0080 
    15   opls_814      1    UNK   H0E      1     0.1074     1.0080 
    16   opls_815      1    UNK   H0F      1     0.1204     1.0080 
    17   opls_816      1    UNK   H0G      1     0.1204     1.0080 
    18   opls_817      1    UNK   H0H      1     0.1346     1.0080 
    19   opls_818      1    UNK   H0I      1     0.1346     1.0080 
    20   opls_819      1    UNK   H0J      1     0.0928     1.0080 
    21   opls_820      1    UNK   H0K      1     0.0928     1.0080 
    22   opls_821      1    UNK   H0M      1     0.0928     1.0080 
[ bonds ]
    2     1     1      0.1529 224262.400
    3     2     1      0.1529 224262.400
    4     3     1      0.1410 267776.000
    5     4     1      0.1327 179075.200
    6     5     1      0.1229 476976.000
    7     5     1      0.1327 179075.200
    8     7     1      0.1380 267776.000
    9     8     1      0.1380 267776.000
   10     9     1      0.1410 267776.000
   11     1     1      0.1090 284512.000
   12     1     1      0.1090 284512.000
   13     1     1      0.1090 284512.000
   14     2     1      0.1090 284512.000
   15     2     1      0.1090 284512.000
   16     3     1      0.1090 284512.000
   17     3     1      0.1090 284512.000
   18     8     1      0.1090 284512.000
   19     8     1      0.1090 284512.000
   20    10     1      0.1090 284512.000
   21    10     1      0.1090 284512.000
   22    10     1      0.1090 284512.000

[ angles ]
;  ai    aj    ak funct            c0            c1            c2            c3 
    1     2     3     1    112.700    488.273
    2     3     4     1    109.500    418.400
    3     4     5     1    116.900    694.544
    4     5     6     1    123.400    694.544
    4     5     7     1    118.180    584.923
    5     7     8     1    116.900    694.544
    7     8     9     1    111.550    774.877
    8     9    10     1    109.500    502.080
    2     1    11     1    110.700    313.800
    2     1    12     1    110.700    313.800
    2     1    13     1    110.700    313.800
    1     2    14     1    110.700    313.800
    1     2    15     1    110.700    313.800
    2     3    16     1    110.700    313.800
    2     3    17     1    110.700    313.800
    7     8    18     1    109.500    292.880
    7     8    19     1    109.500    292.880
    9    10    20     1    109.500    292.880
    9    10    21     1    109.500    292.880
    9    10    22     1    109.500    292.880
   20    10    21     1    107.800    276.144
    3     2    14     1    110.700    313.800
    3     2    15     1    110.700    313.800
   11     1    13     1    107.800    276.144
   20    10    22     1    107.800    276.144
    9     8    19     1    109.500    292.880
   11     1    12     1    107.800    276.144
    6     5     7     1    123.400    694.544
   12     1    13     1    107.800    276.144
   14     2    15     1    107.800    276.144
    9     8    18     1    109.500    292.880
   18     8    19     1    109.500    276.144
   21    10    22     1    107.800    276.144
    4     3    16     1    109.500    292.880
    4     3    17     1    109.500    292.880
   16     3    17     1    107.800    276.144

[ dihedrals ]
; IMPROPER DIHEDRAL ANGLES 
;  ai    aj    ak    al funct            c0            c1            c2            c3            c4            c5
     7     5     4     6    4        180.000     43.932     2  

[ dihedrals ]
; PROPER DIHEDRAL ANGLES
;  ai    aj    ak    al funct            c0            c1            c2            c3            c4            c5
    5    4    3    2        3      -2.197   5.201   0.527  -3.531  -0.000   0.000
    8    7    5    6        3      21.439   0.000  -21.439  -0.000  -0.000   0.000
    8    7    5    4        3      31.206  -9.768  -21.439  -0.000  -0.000   0.000
   10    9    8    7        3      -6.458   0.810   5.682  -0.033  -0.000   0.000
   19    8    7    5        3       1.590   4.770   0.000  -6.360  -0.000   0.000
   18    8    7    5        3       1.590   4.770   0.000  -6.360  -0.000   0.000
   18    8    9   10        3       1.590   4.770   0.000  -6.360  -0.000   0.000
   19    8    9   10        3       1.590   4.770   0.000  -6.360  -0.000   0.000
   11    1    2    3        3       0.628   1.883   0.000  -2.510  -0.000   0.000
   12    1    2    3        3       0.628   1.883   0.000  -2.510  -0.000   0.000
   17    3    2    1        3       0.628   1.883   0.000  -2.510  -0.000   0.000
   16    3    2    1        3       0.628   1.883   0.000  -2.510  -0.000   0.000
   13    1    2    3        3       0.628   1.883   0.000  -2.510  -0.000   0.000
   14    2    1   11        3       0.628   1.883   0.000  -2.510  -0.000   0.000
   14    2    1   13        3       0.628   1.883   0.000  -2.510  -0.000   0.000
   16    3    2   14        3       0.628   1.883   0.000  -2.510  -0.000   0.000
   16    3    2   15        3       0.628   1.883   0.000  -2.510  -0.000   0.000
   15    2    1   11        3       0.628   1.883   0.000  -2.510  -0.000   0.000
   17    3    2   15        3       0.628   1.883   0.000  -2.510  -0.000   0.000
   17    3    2   14        3       0.628   1.883   0.000  -2.510  -0.000   0.000
   15    2    1   13        3       0.628   1.883   0.000  -2.510  -0.000   0.000
   14    2    1   12        3       0.628   1.883   0.000  -2.510  -0.000   0.000
   15    2    1   12        3       0.628   1.883   0.000  -2.510  -0.000   0.000
   14    2    3    4        3       0.979   2.937   0.000  -3.916  -0.000   0.000
   15    2    3    4        3       0.979   2.937   0.000  -3.916  -0.000   0.000
   17    3    4    5        3       0.414   1.243   0.000  -1.657  -0.000   0.000
   16    3    4    5        3       0.414   1.243   0.000  -1.657  -0.000   0.000
   22   10    9    8        3       1.590   4.770   0.000  -6.360  -0.000   0.000
   21   10    9    8        3       1.590   4.770   0.000  -6.360  -0.000   0.000
   20   10    9    8        3       1.590   4.770   0.000  -6.360  -0.000   0.000
    6    5    4    3        3      21.439   0.000  -21.439  -0.000  -0.000   0.000
    7    5    4    3        3      31.206  -9.768  -21.439  -0.000  -0.000   0.000
    9    8    7    5        3      -6.458   0.810   5.682  -0.033  -0.000   0.000
    4    3    2    1        3       2.874   0.582   2.092  -5.548  -0.000   0.000

[ pairs ]
     1     4    1
     2     5    1
     3     6    1
     3     7    1
     4     8    1
     6     8    1
     5     9    1
     3    11    1
     3    12    1
     3    13    1
     7    10    1
     1    16    1
     4    14    1
     1    17    1
     4    15    1
     5    16    1
     5    17    1
     5    18    1
     5    19    1
    11    14    1
    12    14    1
    11    15    1
    13    14    1
    12    15    1
    13    15    1
    10    18    1
     8    20    1
    10    19    1
     8    21    1
    14    16    1
     8    22    1
    15    16    1
    14    17    1
    15    17    1

