LIGPARGEN GENERATED GRO FILE
   25
    1UNK    C00    1   0.100   0.100   0.000
    1UNK    O01    2  -0.043   0.100   0.000
    1UNK    C02    3  -0.098   0.100   0.124
    1UNK    O03    4  -0.037   0.100   0.230
    1UNK    O04    5  -0.233   0.100   0.110
    1UNK    C05    6  -0.304   0.106   0.233
    1UNK    C06    7  -0.302   0.244   0.296
    1UNK    O07    8  -0.246   0.343   0.251
    1UNK    C08    9  -0.377   0.253   0.427
    1UNK    O09   10  -0.495   0.220   0.428
    1UNK    C0A   11  -0.296   0.298   0.547
    1UNK    C0B   12  -0.386   0.312   0.670
    1UNK    C0C   13  -0.184   0.198   0.575
    1UNK    H0D   14   0.134   0.105  -0.104
    1UNK    H0E   15   0.138   0.008   0.045
    1UNK    H0F   16   0.139   0.188   0.053
    1UNK    H0G   17  -0.265   0.032   0.304
    1UNK    H0H   18  -0.408   0.080   0.211
    1UNK    H0I   19  -0.254   0.397   0.525
    1UNK    H0J   20  -0.436   0.218   0.694
    1UNK    H0K   21  -0.464   0.387   0.653
    1UNK    H0M   22  -0.328   0.343   0.758
    1UNK    H0N   23  -0.225   0.098   0.593
    1UNK    H0O   24  -0.126   0.228   0.663
    1UNK    H0P   25  -0.116   0.191   0.490
   1.00000   1.00000   1.00000

