LIGPARGEN GENERATED GRO FILE
   40
    1UNK    C00    1   0.100   0.100   0.000
    1UNK    C01    2  -0.052   0.100   0.000
    1UNK    C02    3  -0.108   0.100   0.142
    1UNK    O03    4  -0.250   0.100   0.134
    1UNK    C04    5  -0.309   0.100   0.264
    1UNK    C05    6  -0.461   0.100   0.253
    1UNK    C06    7  -0.521  -0.021   0.176
    1UNK    C07    8  -0.486  -0.156   0.240
    1UNK    C08    9  -0.554  -0.177   0.376
    1UNK    C09   10  -0.521  -0.316   0.431
    1UNK    C0A   11  -0.706  -0.159   0.365
    1UNK    C0B   12  -0.745  -0.027   0.298
    1UNK    C0C   13  -0.675  -0.004   0.164
    1UNK    C0D   14  -0.734  -0.096   0.056
    1UNK    H0E   15   0.138   0.100  -0.103
    1UNK    H0F   16   0.139   0.011   0.051
    1UNK    H0G   17   0.139   0.189   0.051
    1UNK    H0H   18  -0.089   0.012  -0.054
    1UNK    H0I   19  -0.089   0.188  -0.054
    1UNK    H0J   20  -0.074   0.189   0.195
    1UNK    H0K   21  -0.074   0.011   0.196
    1UNK    H0M   22  -0.277   0.191   0.318
    1UNK    H0N   23  -0.274   0.013   0.321
    1UNK    H0O   24  -0.490   0.192   0.200
    1UNK    H0P   25  -0.503   0.107   0.354
    1UNK    H0Q   26  -0.479  -0.019   0.075
    1UNK    H0R   27  -0.378  -0.167   0.251
    1UNK    H0S   28  -0.516  -0.237   0.172
    1UNK    H0T   29  -0.515  -0.104   0.447
    1UNK    H0U   30  -0.559  -0.395   0.366
    1UNK    H0V   31  -0.566  -0.330   0.530
    1UNK    H0W   32  -0.413  -0.329   0.441
    1UNK    H0X   33  -0.751  -0.163   0.465
    1UNK    H0Y   34  -0.750  -0.243   0.309
    1UNK    H0Z   35  -0.721   0.055   0.367
    1UNK    H10   36  -0.854  -0.024   0.285
    1UNK    H11   37  -0.697   0.099   0.132
    1UNK    H12   38  -0.721  -0.202   0.079
    1UNK    H13   39  -0.685  -0.077  -0.041
    1UNK    H14   40  -0.841  -0.077   0.043
   1.00000   1.00000   1.00000

