
;
; GENERATED BY LigParGen Server
; Jorgensen Lab @ Yale University 
;
[ atomtypes ]
  opls_818  H818     1.0080     0.000    A    2.50000E-01   1.25520E-01
  opls_803  O803    15.9990     0.000    A    2.90000E-01   5.85760E-01
  opls_824  H824     1.0080     0.000    A    2.50000E-01   1.25520E-01
  opls_805  C805    12.0110     0.000    A    3.50000E-01   2.76144E-01
  opls_833  H833     1.0080     0.000    A    2.50000E-01   1.25520E-01
  opls_836  H836     1.0080     0.000    A    2.50000E-01   1.25520E-01
  opls_834  H834     1.0080     0.000    A    2.50000E-01   1.25520E-01
  opls_810  C810    12.0110     0.000    A    3.50000E-01   2.76144E-01
  opls_828  H828     1.0080     0.000    A    2.50000E-01   1.25520E-01
  opls_812  C812    12.0110     0.000    A    3.50000E-01   2.76144E-01
  opls_802  C802    12.0110     0.000    A    3.50000E-01   2.76144E-01
  opls_815  H815     1.0080     0.000    A    2.50000E-01   1.25520E-01
  opls_809  C809    12.0110     0.000    A    3.50000E-01   2.76144E-01
  opls_806  C806    12.0110     0.000    A    3.50000E-01   2.76144E-01
  opls_822  H822     1.0080     0.000    A    2.50000E-01   1.25520E-01
  opls_807  C807    12.0110     0.000    A    3.50000E-01   2.76144E-01
  opls_838  H838     1.0080     0.000    A    2.50000E-01   1.25520E-01
  opls_825  H825     1.0080     0.000    A    2.50000E-01   1.25520E-01
  opls_814  H814     1.0080     0.000    A    2.50000E-01   1.25520E-01
  opls_821  H821     1.0080     0.000    A    2.50000E-01   1.25520E-01
  opls_820  H820     1.0080     0.000    A    2.50000E-01   1.25520E-01
  opls_837  H837     1.0080     0.000    A    2.50000E-01   1.25520E-01
  opls_829  H829     1.0080     0.000    A    2.50000E-01   1.25520E-01
  opls_831  H831     1.0080     0.000    A    2.50000E-01   1.25520E-01
  opls_832  H832     1.0080     0.000    A    2.50000E-01   1.25520E-01
  opls_816  H816     1.0080     0.000    A    2.50000E-01   1.25520E-01
  opls_800  C800    12.0110     0.000    A    3.50000E-01   2.76144E-01
  opls_811  C811    12.0110     0.000    A    3.50000E-01   2.76144E-01
  opls_823  H823     1.0080     0.000    A    2.50000E-01   1.25520E-01
  opls_813  C813    12.0110     0.000    A    3.50000E-01   2.76144E-01
  opls_826  H826     1.0080     0.000    A    2.50000E-01   1.25520E-01
  opls_835  H835     1.0080     0.000    A    2.50000E-01   1.25520E-01
  opls_819  H819     1.0080     0.000    A    2.50000E-01   1.25520E-01
  opls_804  C804    12.0110     0.000    A    3.50000E-01   2.76144E-01
  opls_827  H827     1.0080     0.000    A    2.50000E-01   1.25520E-01
  opls_839  H839     1.0080     0.000    A    2.50000E-01   1.25520E-01
  opls_801  C801    12.0110     0.000    A    3.50000E-01   2.76144E-01
  opls_808  C808    12.0110     0.000    A    3.50000E-01   2.76144E-01
  opls_817  H817     1.0080     0.000    A    2.50000E-01   1.25520E-01
  opls_830  H830     1.0080     0.000    A    2.50000E-01   1.25520E-01
[ moleculetype ]
; Name               nrexcl
UNK                   3
[ atoms ]
;   nr       type  resnr residue  atom   cgnr     charge       mass  
     1   opls_800      1    UNK   C00      1    -0.2368    12.0110 
     2   opls_801      1    UNK   C01      1    -0.1849    12.0110 
     3   opls_802      1    UNK   C02      1     0.0084    12.0110 
     4   opls_803      1    UNK   O03      1    -0.3844    15.9990 
     5   opls_804      1    UNK   C04      1     0.0091    12.0110 
     6   opls_805      1    UNK   C05      1    -0.1737    12.0110 
     7   opls_806      1    UNK   C06      1       -0.1    12.0110 
     8   opls_807      1    UNK   C07      1     -0.165    12.0110 
     9   opls_808      1    UNK   C08      1    -0.1147    12.0110 
    10   opls_809      1    UNK   C09      1    -0.2363    12.0110 
    11   opls_810      1    UNK   C0A      1    -0.1679    12.0110 
    12   opls_811      1    UNK   C0B      1    -0.1697    12.0110 
    13   opls_812      1    UNK   C0C      1    -0.1094    12.0110 
    14   opls_813      1    UNK   C0D      1    -0.2338    12.0110 
    15   opls_814      1    UNK   H0E      1     0.0835     1.0080 
    16   opls_815      1    UNK   H0F      1     0.0835     1.0080 
    17   opls_816      1    UNK   H0G      1     0.0835     1.0080 
    18   opls_817      1    UNK   H0H      1      0.103     1.0080 
    19   opls_818      1    UNK   H0I      1      0.103     1.0080 
    20   opls_819      1    UNK   H0J      1     0.0742     1.0080 
    21   opls_820      1    UNK   H0K      1     0.0742     1.0080 
    22   opls_821      1    UNK   H0M      1     0.0734     1.0080 
    23   opls_822      1    UNK   H0N      1     0.0734     1.0080 
    24   opls_823      1    UNK   H0O      1     0.0983     1.0080 
    25   opls_824      1    UNK   H0P      1     0.0983     1.0080 
    26   opls_825      1    UNK   H0Q      1     0.1159     1.0080 
    27   opls_826      1    UNK   H0R      1     0.0898     1.0080 
    28   opls_827      1    UNK   H0S      1     0.0898     1.0080 
    29   opls_828      1    UNK   H0T      1     0.0936     1.0080 
    30   opls_829      1    UNK   H0U      1     0.0804     1.0080 
    31   opls_830      1    UNK   H0V      1     0.0804     1.0080 
    32   opls_831      1    UNK   H0W      1     0.0804     1.0080 
    33   opls_832      1    UNK   H0X      2     0.0866     1.0080 
    34   opls_833      1    UNK   H0Y      2     0.0866     1.0080 
    35   opls_834      1    UNK   H0Z      2     0.0851     1.0080 
    36   opls_835      1    UNK   H10      2     0.0851     1.0080 
    37   opls_836      1    UNK   H11      2      0.094     1.0080 
    38   opls_837      1    UNK   H12      2      0.081     1.0080 
    39   opls_838      1    UNK   H13      2      0.081     1.0080 
    40   opls_839      1    UNK   H14      2      0.081     1.0080 
[ bonds ]
    2     1     1      0.1529 224262.400
    3     2     1      0.1529 224262.400
    4     3     1      0.1410 267776.000
    5     4     1      0.1410 267776.000
    6     5     1      0.1529 224262.400
    7     6     1      0.1529 224262.400
    8     7     1      0.1529 224262.400
    9     8     1      0.1529 224262.400
   10     9     1      0.1529 224262.400
   11     9     1      0.1529 224262.400
   12    11     1      0.1529 224262.400
   13     7     1      0.1529 224262.400
   14    13     1      0.1529 224262.400
   15     1     1      0.1090 284512.000
   16     1     1      0.1090 284512.000
   17     1     1      0.1090 284512.000
   18     2     1      0.1090 284512.000
   19     2     1      0.1090 284512.000
   20     3     1      0.1090 284512.000
   21     3     1      0.1090 284512.000
   22     5     1      0.1090 284512.000
   23     5     1      0.1090 284512.000
   24     6     1      0.1090 284512.000
   25     6     1      0.1090 284512.000
   26     7     1      0.1090 284512.000
   27     8     1      0.1090 284512.000
   28     8     1      0.1090 284512.000
   29     9     1      0.1090 284512.000
   30    10     1      0.1090 284512.000
   31    10     1      0.1090 284512.000
   32    10     1      0.1090 284512.000
   33    11     1      0.1090 284512.000
   34    11     1      0.1090 284512.000
   35    12     1      0.1090 284512.000
   36    12     1      0.1090 284512.000
   37    13     1      0.1090 284512.000
   38    14     1      0.1090 284512.000
   39    14     1      0.1090 284512.000
   40    14     1      0.1090 284512.000
   13    12     1      0.1529 224262.400

[ angles ]
;  ai    aj    ak funct            c0            c1            c2            c3 
    1     2     3     1    112.700    488.273
    2     3     4     1    109.500    418.400
    3     4     5     1    109.500    502.080
    4     5     6     1    109.500    418.400
    5     6     7     1    112.700    488.273
    6     7     8     1    112.700    488.273
    7     8     9     1    112.700    488.273
    8     9    10     1    112.700    488.273
    8     9    11     1    112.700    488.273
    9    11    12     1    112.700    488.273
    6     7    13     1    112.700    488.273
    7    13    14     1    112.700    488.273
    2     1    15     1    110.700    313.800
    2     1    16     1    110.700    313.800
    2     1    17     1    110.700    313.800
    1     2    18     1    110.700    313.800
    1     2    19     1    110.700    313.800
    2     3    20     1    110.700    313.800
    2     3    21     1    110.700    313.800
    4     5    22     1    109.500    292.880
    4     5    23     1    109.500    292.880
    5     6    24     1    110.700    313.800
    5     6    25     1    110.700    313.800
    6     7    26     1    110.700    313.800
    7     8    27     1    110.700    313.800
    7     8    28     1    110.700    313.800
    8     9    29     1    110.700    313.800
    9    10    30     1    110.700    313.800
    9    10    31     1    110.700    313.800
    9    10    32     1    110.700    313.800
    9    11    33     1    110.700    313.800
    9    11    34     1    110.700    313.800
   11    12    35     1    110.700    313.800
   11    12    36     1    110.700    313.800
    7    13    37     1    110.700    313.800
   13    14    38     1    110.700    313.800
   13    14    39     1    110.700    313.800
   13    14    40     1    110.700    313.800
    7     6    24     1    110.700    313.800
    9     8    28     1    110.700    313.800
    8     7    26     1    110.700    313.800
    3     2    18     1    110.700    313.800
   11     9    29     1    110.700    313.800
   14    13    37     1    110.700    313.800
   10     9    29     1    110.700    313.800
    6     5    22     1    110.700    313.800
   24     6    25     1    107.800    276.144
    7    13    12     1    112.700    488.273
   13    12    36     1    110.700    313.800
   35    12    36     1    107.800    276.144
   12    13    14     1    112.700    488.273
    7     6    25     1    110.700    313.800
    8     7    13     1    112.700    488.273
   38    14    39     1    107.800    276.144
   10     9    11     1    112.700    488.273
   12    13    37     1    110.700    313.800
   27     8    28     1    107.800    276.144
    9     8    27     1    110.700    313.800
   33    11    34     1    107.800    276.144
   30    10    31     1    107.800    276.144
   18     2    19     1    107.800    276.144
    3     2    19     1    110.700    313.800
   15     1    16     1    107.800    276.144
   13     7    26     1    110.700    313.800
    4     3    21     1    109.500    292.880
   15     1    17     1    107.800    276.144
   16     1    17     1    107.800    276.144
   13    12    35     1    110.700    313.800
   31    10    32     1    107.800    276.144
   22     5    23     1    107.800    276.144
    6     5    23     1    110.700    313.800
   12    11    34     1    110.700    313.800
   30    10    32     1    107.800    276.144
    4     3    20     1    109.500    292.880
   11    12    13     1    112.700    488.273
   38    14    40     1    107.800    276.144
   12    11    33     1    110.700    313.800
   39    14    40     1    107.800    276.144
   20     3    21     1    107.800    276.144

[ dihedrals ]
; IMPROPER DIHEDRAL ANGLES 
;  ai    aj    ak    al funct            c0            c1            c2            c3            c4            c5

[ dihedrals ]
; PROPER DIHEDRAL ANGLES
;  ai    aj    ak    al funct            c0            c1            c2            c3            c4            c5
   11    9    8    7        3       2.301  -1.464   0.837  -1.674  -0.000   0.000
   14   13    7    8        3       2.301  -1.464   0.837  -1.674  -0.000   0.000
   14   13   12   11        3       2.301  -1.464   0.837  -1.674  -0.000   0.000
   13    7    8    9        3       2.301  -1.464   0.837  -1.674  -0.000   0.000
   11   12   13    7        3       2.301  -1.464   0.837  -1.674  -0.000   0.000
   12   13    7    8        3       2.301  -1.464   0.837  -1.674  -0.000   0.000
   14   13    7    6        3       2.301  -1.464   0.837  -1.674  -0.000   0.000
   12   11    9   10        3       2.301  -1.464   0.837  -1.674  -0.000   0.000
   13    7    6    5        3       2.301  -1.464   0.837  -1.674  -0.000   0.000
   12   13    7    6        3       2.301  -1.464   0.837  -1.674  -0.000   0.000
   13   12   11    9        3       2.301  -1.464   0.837  -1.674  -0.000   0.000
    9    8    7    6        3       2.301  -1.464   0.837  -1.674  -0.000   0.000
   10    9    8    7        3       2.301  -1.464   0.837  -1.674  -0.000   0.000
    8    7    6    5        3       2.301  -1.464   0.837  -1.674  -0.000   0.000
   12   11    9    8        3       2.301  -1.464   0.837  -1.674  -0.000   0.000
    7    6    5    4        3       2.874   0.582   2.092  -5.548  -0.000   0.000
    6    5    4    3        3       1.715   2.845   1.046  -5.607  -0.000   0.000
    5    4    3    2        3       1.715   2.845   1.046  -5.607  -0.000   0.000
   34   11   12   13        3       0.628   1.883   0.000  -2.510  -0.000   0.000
   22    5    6    7        3       0.628   1.883   0.000  -2.510  -0.000   0.000
   23    5    6    7        3       0.628   1.883   0.000  -2.510  -0.000   0.000
   36   12   13    7        3       0.628   1.883   0.000  -2.510  -0.000   0.000
   26    7   13   14        3       0.628   1.883   0.000  -2.510  -0.000   0.000
   32   10    9    8        3       0.628   1.883   0.000  -2.510  -0.000   0.000
   20    3    2    1        3       0.628   1.883   0.000  -2.510  -0.000   0.000
   37   13    7    8        3       0.628   1.883   0.000  -2.510  -0.000   0.000
   26    7   13   12        3       0.628   1.883   0.000  -2.510  -0.000   0.000
   40   14   13   12        3       0.628   1.883   0.000  -2.510  -0.000   0.000
   39   14   13    7        3       0.628   1.883   0.000  -2.510  -0.000   0.000
   38   14   13   12        3       0.628   1.883   0.000  -2.510  -0.000   0.000
   24    6    7   13        3       0.628   1.883   0.000  -2.510  -0.000   0.000
   28    8    9   11        3       0.628   1.883   0.000  -2.510  -0.000   0.000
   35   12   13   14        3       0.628   1.883   0.000  -2.510  -0.000   0.000
   31   10    9   11        3       0.628   1.883   0.000  -2.510  -0.000   0.000
   33   11    9    8        3       0.628   1.883   0.000  -2.510  -0.000   0.000
   29    9   11   12        3       0.628   1.883   0.000  -2.510  -0.000   0.000
   35   12   11    9        3       0.628   1.883   0.000  -2.510  -0.000   0.000
   39   14   13   12        3       0.628   1.883   0.000  -2.510  -0.000   0.000
   35   12   13    7        3       0.628   1.883   0.000  -2.510  -0.000   0.000
   34   11    9   10        3       0.628   1.883   0.000  -2.510  -0.000   0.000
   25    6    7   13        3       0.628   1.883   0.000  -2.510  -0.000   0.000
   33   11    9   10        3       0.628   1.883   0.000  -2.510  -0.000   0.000
   17    1    2    3        3       0.628   1.883   0.000  -2.510  -0.000   0.000
   29    9    8    7        3       0.628   1.883   0.000  -2.510  -0.000   0.000
   24    6    7    8        3       0.628   1.883   0.000  -2.510  -0.000   0.000
   27    8    9   10        3       0.628   1.883   0.000  -2.510  -0.000   0.000
   40   14   13    7        3       0.628   1.883   0.000  -2.510  -0.000   0.000
   34   11    9    8        3       0.628   1.883   0.000  -2.510  -0.000   0.000
   27    8    7    6        3       0.628   1.883   0.000  -2.510  -0.000   0.000
   37   13   12   11        3       0.628   1.883   0.000  -2.510  -0.000   0.000
   30   10    9   11        3       0.628   1.883   0.000  -2.510  -0.000   0.000
   36   12   11    9        3       0.628   1.883   0.000  -2.510  -0.000   0.000
   25    6    7    8        3       0.628   1.883   0.000  -2.510  -0.000   0.000
   33   11   12   13        3       0.628   1.883   0.000  -2.510  -0.000   0.000
   30   10    9    8        3       0.628   1.883   0.000  -2.510  -0.000   0.000
   36   12   13   14        3       0.628   1.883   0.000  -2.510  -0.000   0.000
   16    1    2    3        3       0.628   1.883   0.000  -2.510  -0.000   0.000
   28    8    7    6        3       0.628   1.883   0.000  -2.510  -0.000   0.000
   15    1    2    3        3       0.628   1.883   0.000  -2.510  -0.000   0.000
   26    7    6    5        3       0.628   1.883   0.000  -2.510  -0.000   0.000
   38   14   13    7        3       0.628   1.883   0.000  -2.510  -0.000   0.000
   21    3    2    1        3       0.628   1.883   0.000  -2.510  -0.000   0.000
   27    8    7   13        3       0.628   1.883   0.000  -2.510  -0.000   0.000
   27    8    9   11        3       0.628   1.883   0.000  -2.510  -0.000   0.000
   28    8    9   10        3       0.628   1.883   0.000  -2.510  -0.000   0.000
   37   13    7    6        3       0.628   1.883   0.000  -2.510  -0.000   0.000
   31   10    9    8        3       0.628   1.883   0.000  -2.510  -0.000   0.000
   32   10    9   11        3       0.628   1.883   0.000  -2.510  -0.000   0.000
   28    8    7   13        3       0.628   1.883   0.000  -2.510  -0.000   0.000
   26    7    8    9        3       0.628   1.883   0.000  -2.510  -0.000   0.000
   18    2    1   16        3       0.628   1.883   0.000  -2.510  -0.000   0.000
   31   10    9   29        3       0.628   1.883   0.000  -2.510  -0.000   0.000
   37   13    7   26        3       0.628   1.883   0.000  -2.510  -0.000   0.000
   25    6    5   22        3       0.628   1.883   0.000  -2.510  -0.000   0.000
   39   14   13   37        3       0.628   1.883   0.000  -2.510  -0.000   0.000
   32   10    9   29        3       0.628   1.883   0.000  -2.510  -0.000   0.000
   34   11    9   29        3       0.628   1.883   0.000  -2.510  -0.000   0.000
   29    9    8   27        3       0.628   1.883   0.000  -2.510  -0.000   0.000
   38   14   13   37        3       0.628   1.883   0.000  -2.510  -0.000   0.000
   36   12   11   34        3       0.628   1.883   0.000  -2.510  -0.000   0.000
   20    3    2   18        3       0.628   1.883   0.000  -2.510  -0.000   0.000
   19    2    1   15        3       0.628   1.883   0.000  -2.510  -0.000   0.000
   18    2    1   15        3       0.628   1.883   0.000  -2.510  -0.000   0.000
   35   12   11   34        3       0.628   1.883   0.000  -2.510  -0.000   0.000
   33   11    9   29        3       0.628   1.883   0.000  -2.510  -0.000   0.000
   24    6    5   22        3       0.628   1.883   0.000  -2.510  -0.000   0.000
   26    7    6   25        3       0.628   1.883   0.000  -2.510  -0.000   0.000
   37   13   12   35        3       0.628   1.883   0.000  -2.510  -0.000   0.000
   20    3    2   19        3       0.628   1.883   0.000  -2.510  -0.000   0.000
   21    3    2   18        3       0.628   1.883   0.000  -2.510  -0.000   0.000
   21    3    2   19        3       0.628   1.883   0.000  -2.510  -0.000   0.000
   27    8    7   26        3       0.628   1.883   0.000  -2.510  -0.000   0.000
   25    6    5   23        3       0.628   1.883   0.000  -2.510  -0.000   0.000
   28    8    7   26        3       0.628   1.883   0.000  -2.510  -0.000   0.000
   19    2    1   17        3       0.628   1.883   0.000  -2.510  -0.000   0.000
   24    6    5   23        3       0.628   1.883   0.000  -2.510  -0.000   0.000
   30   10    9   29        3       0.628   1.883   0.000  -2.510  -0.000   0.000
   35   12   11   33        3       0.628   1.883   0.000  -2.510  -0.000   0.000
   26    7    6   24        3       0.628   1.883   0.000  -2.510  -0.000   0.000
   36   12   11   33        3       0.628   1.883   0.000  -2.510  -0.000   0.000
   37   13   12   36        3       0.628   1.883   0.000  -2.510  -0.000   0.000
   40   14   13   37        3       0.628   1.883   0.000  -2.510  -0.000   0.000
   18    2    1   17        3       0.628   1.883   0.000  -2.510  -0.000   0.000
   19    2    1   16        3       0.628   1.883   0.000  -2.510  -0.000   0.000
   29    9    8   28        3       0.628   1.883   0.000  -2.510  -0.000   0.000
   24    6    5    4        3       0.979   2.937   0.000  -3.916  -0.000   0.000
   19    2    3    4        3       0.979   2.937   0.000  -3.916  -0.000   0.000
   25    6    5    4        3       0.979   2.937   0.000  -3.916  -0.000   0.000
   18    2    3    4        3       0.979   2.937   0.000  -3.916  -0.000   0.000
   22    5    4    3        3       1.590   4.770   0.000  -6.360  -0.000   0.000
   20    3    4    5        3       1.590   4.770   0.000  -6.360  -0.000   0.000
   21    3    4    5        3       1.590   4.770   0.000  -6.360  -0.000   0.000
   23    5    4    3        3       1.590   4.770   0.000  -6.360  -0.000   0.000
    4    3    2    1        3       2.874   0.582   2.092  -5.548  -0.000   0.000

[ pairs ]
     1     4    1
     2     5    1
     3     6    1
     4     7    1
     5     8    1
     6     9    1
     7    10    1
     7    11    1
     6    12    1
     5    13    1
     3    15    1
     3    16    1
     8    12    1
     6    14    1
     3    17    1
     1    20    1
    10    12    1
     9    13    1
     8    14    1
     4    18    1
     1    21    1
     4    19    1
    11    14    1
     5    20    1
     3    22    1
     5    21    1
     3    23    1
     4    24    1
     7    22    1
     4    25    1
     7    23    1
     5    26    1
     8    24    1
    15    18    1
     8    25    1
     6    27    1
    16    18    1
    15    19    1
     6    28    1
    17    18    1
    16    19    1
     9    26    1
    17    19    1
     7    29    1
    13    24    1
    10    27    1
    18    20    1
    13    25    1
    12    26    1
    11    27    1
    10    28    1
     8    30    1
    19    20    1
    18    21    1
    11    28    1
     8    31    1
    19    21    1
    14    26    1
    13    27    1
     8    32    1
    13    28    1
    12    29    1
    11    30    1
     8    33    1
    11    31    1
     8    34    1
     7    35    1
    11    32    1
    10    33    1
     7    36    1
     6    37    1
    10    34    1
     9    35    1
     9    36    1
     8    37    1
     7    38    1
    22    24    1
    13    33    1
     7    39    1
    23    24    1
    22    25    1
    13    34    1
     7    40    1
    23    25    1
    11    37    1
    14    35    1
    24    26    1
    14    36    1
    12    38    1
    25    26    1
    12    39    1
    12    40    1
    26    27    1
    26    28    1
    27    29    1
    28    29    1
    29    30    1
    29    31    1
    29    32    1
    29    33    1
    29    34    1
    26    37    1
    33    35    1
    34    35    1
    33    36    1
    34    36    1
    35    37    1
    36    37    1
    37    38    1
    37    39    1
    37    40    1

