LIGPARGEN GENERATED GRO FILE
   32
    1UNK    C00    1   0.100   0.100   0.000
    1UNK    C01    2  -0.049   0.100   0.000
    1UNK    C02    3  -0.131   0.100   0.127
    1UNK    C03    4  -0.088   0.145   0.261
    1UNK    O04    5  -0.064   0.073   0.355
    1UNK    C05    6  -0.080   0.298   0.254
    1UNK    O06    7  -0.084   0.370   0.352
    1UNK    C07    8  -0.068   0.339   0.108
    1UNK    C08    9  -0.130   0.475   0.073
    1UNK    C09   10  -0.099   0.529  -0.070
    1UNK    C0A   11  -0.165   0.445  -0.180
    1UNK    C0B   12  -0.155   0.672  -0.080
    1UNK    C0C   13   0.053   0.535  -0.097
    1UNK    C0D   14  -0.131   0.222   0.035
    1UNK    H0E   15   0.137  -0.003  -0.000
    1UNK    H0F   16   0.143   0.151   0.087
    1UNK    H0G   17   0.137   0.149  -0.091
    1UNK    H0H   18  -0.086   0.041  -0.083
    1UNK    H0I   19  -0.219   0.036   0.127
    1UNK    H0J   20   0.041   0.344   0.090
    1UNK    H0K   21  -0.092   0.548   0.146
    1UNK    H0M   22  -0.238   0.470   0.089
    1UNK    H0N   23  -0.272   0.433  -0.161
    1UNK    H0O   24  -0.119   0.347  -0.190
    1UNK    H0P   25  -0.154   0.494  -0.278
    1UNK    H0Q   26  -0.264   0.673  -0.067
    1UNK    H0R   27  -0.134   0.716  -0.178
    1UNK    H0S   28  -0.112   0.738  -0.004
    1UNK    H0T   29   0.098   0.436  -0.097
    1UNK    H0U   30   0.104   0.596  -0.021
    1UNK    H0V   31   0.073   0.580  -0.195
    1UNK    H0W   32  -0.226   0.241  -0.014
   1.00000   1.00000   1.00000

