LIGPARGEN GENERATED GRO FILE
   24
    1UNK    C00    1   0.100   0.100   0.000
    1UNK    C01    2  -0.053   0.100   0.000
    1UNK    C02    3  -0.112   0.100   0.142
    1UNK    C03    4  -0.070   0.225   0.216
    1UNK    N04    5  -0.034   0.329   0.278
    1UNK    C05    6  -0.266   0.097   0.138
    1UNK    S06    7  -0.335   0.089   0.304
    1UNK    O07    8  -0.286  -0.034   0.364
    1UNK    O08    9  -0.316   0.217   0.368
    1UNK    C09   10  -0.511   0.070   0.279
    1UNK    C0A   11  -0.584   0.068   0.412
    1UNK    H0B   12   0.138   0.093  -0.103
    1UNK    H0C   13   0.139   0.015   0.056
    1UNK    H0D   14   0.140   0.192   0.044
    1UNK    H0E   15  -0.087   0.011  -0.054
    1UNK    H0F   16  -0.088   0.187  -0.056
    1UNK    H0G   17  -0.074   0.013   0.197
    1UNK    H0H   18  -0.301   0.007   0.085
    1UNK    H0I   19  -0.308   0.186   0.090
    1UNK    H0J   20  -0.527  -0.023   0.224
    1UNK    H0K   21  -0.544   0.154   0.218
    1UNK    H0M   22  -0.549  -0.014   0.475
    1UNK    H0N   23  -0.692   0.056   0.396
    1UNK    H0O   24  -0.569   0.162   0.467
   1.00000   1.00000   1.00000

