LIGPARGEN GENERATED GRO FILE
   35
    1UNK    C00    1   0.100   0.100   0.000
    1UNK    C01    2  -0.052   0.100   0.000
    1UNK    C02    3  -0.108   0.100   0.142
    1UNK    C03    4  -0.261   0.100   0.141
    1UNK    C04    5  -0.319   0.100   0.283
    1UNK    C05    6  -0.472   0.100   0.286
    1UNK    C06    7  -0.533  -0.024   0.220
    1UNK    C07    8  -0.522   0.105   0.429
    1UNK    O08    9  -0.489   0.026   0.516
    1UNK    O09   10  -0.615   0.204   0.443
    1UNK    C0A   11  -0.700   0.194   0.558
    1UNK    C0B   12  -0.664   0.298   0.663
    1UNK    C0C   13  -0.761   0.292   0.780
    1UNK    H0D   14   0.138   0.100  -0.103
    1UNK    H0E   15   0.139   0.011   0.051
    1UNK    H0F   16   0.139   0.189   0.051
    1UNK    H0G   17  -0.088   0.012  -0.054
    1UNK    H0H   18  -0.088   0.188  -0.054
    1UNK    H0I   19  -0.072   0.188   0.196
    1UNK    H0J   20  -0.072   0.012   0.196
    1UNK    H0K   21  -0.296   0.011   0.087
    1UNK    H0M   22  -0.298   0.188   0.087
    1UNK    H0N   23  -0.282   0.188   0.337
    1UNK    H0O   24  -0.280   0.013   0.338
    1UNK    H0P   25  -0.508   0.189   0.233
    1UNK    H0Q   26  -0.494  -0.116   0.265
    1UNK    H0R   27  -0.513  -0.027   0.113
    1UNK    H0S   28  -0.642  -0.025   0.233
    1UNK    H0T   29  -0.700   0.094   0.601
    1UNK    H0U   30  -0.802   0.213   0.522
    1UNK    H0V   31  -0.665   0.399   0.619
    1UNK    H0W   32  -0.561   0.282   0.699
    1UNK    H0X   33  -0.864   0.311   0.746
    1UNK    H0Y   34  -0.736   0.368   0.855
    1UNK    H0Z   35  -0.758   0.194   0.828
   1.00000   1.00000   1.00000

