
;
; GENERATED BY LigParGen Server
; Jorgensen Lab @ Yale University 
;
[ atomtypes ]
  opls_802  O802    15.9990     0.000    A    2.90000E-01   5.85760E-01
  opls_810  H810     1.0080     0.000    A    2.50000E-01   1.25520E-01
  opls_801  C801    12.0110     0.000    A    3.50000E-01   2.76144E-01
  opls_803  C803    12.0110     0.000    A    3.55000E-01   2.92880E-01
  opls_809  H809     1.0080     0.000    A    2.50000E-01   1.25520E-01
  opls_806  H806     1.0080     0.000    A    2.50000E-01   1.25520E-01
  opls_805  O805    15.9990     0.000    A    2.96000E-01   8.78640E-01
  opls_812  H812     1.0080     0.000    A    2.50000E-01   1.25520E-01
  opls_807  H807     1.0080     0.000    A    2.50000E-01   1.25520E-01
  opls_808  H808     1.0080     0.000    A    2.50000E-01   1.25520E-01
  opls_813  H813     1.0080     0.000    A    2.50000E-01   1.25520E-01
  opls_800  C800    12.0110     0.000    A    3.50000E-01   2.76144E-01
  opls_811  H811     1.0080     0.000    A    2.50000E-01   1.25520E-01
  opls_804  C804    12.0110     0.000    A    3.50000E-01   2.76144E-01
[ moleculetype ]
; Name               nrexcl
UNK                   3
[ atoms ]
;   nr       type  resnr residue  atom   cgnr     charge       mass  
     1   opls_800      1    UNK   C00      1    -0.2756    12.0110 
     2   opls_801      1    UNK   C01      1     0.0040    12.0110 
     3   opls_802      1    UNK   O02      1    -0.3595    15.9990 
     4   opls_803      1    UNK   C03      1     0.4399    12.0110 
     5   opls_804      1    UNK   C04      1    -0.2610    12.0110 
     6   opls_805      1    UNK   O05      1    -0.4543    15.9990 
     7   opls_806      1    UNK   H06      1     0.0988     1.0080 
     8   opls_807      1    UNK   H07      1     0.0988     1.0080 
     9   opls_808      1    UNK   H08      1     0.0988     1.0080 
    10   opls_809      1    UNK   H09      1     0.1145     1.0080 
    11   opls_810      1    UNK   H0A      1     0.1145     1.0080 
    12   opls_811      1    UNK   H0B      1     0.1271     1.0080 
    13   opls_812      1    UNK   H0C      1     0.1271     1.0080 
    14   opls_813      1    UNK   H0D      1     0.1271     1.0080 
[ bonds ]
    2     1     1      0.1529 224262.400
    3     2     1      0.1410 267776.000
    4     3     1      0.1327 179075.200
    5     4     1      0.1522 265265.600
    6     4     1      0.1229 476976.000
    7     1     1      0.1090 284512.000
    8     1     1      0.1090 284512.000
    9     1     1      0.1090 284512.000
   10     2     1      0.1090 284512.000
   11     2     1      0.1090 284512.000
   12     5     1      0.1090 284512.000
   13     5     1      0.1090 284512.000
   14     5     1      0.1090 284512.000

[ angles ]
;  ai    aj    ak funct            c0            c1            c2            c3 
    1     2     3     1    109.500    418.400
    2     3     4     1    116.900    694.544
    3     4     5     1    111.400    677.808
    3     4     6     1    123.400    694.544
    2     1     7     1    110.700    313.800
    2     1     8     1    110.700    313.800
    2     1     9     1    110.700    313.800
    1     2    10     1    110.700    313.800
    1     2    11     1    110.700    313.800
    4     5    12     1    109.500    292.880
    4     5    13     1    109.500    292.880
    4     5    14     1    109.500    292.880
    5     4     6     1    120.400    669.440
   13     5    14     1    107.800    276.144
    8     1     9     1    107.800    276.144
    3     2    11     1    109.500    292.880
   10     2    11     1    107.800    276.144
   12     5    13     1    107.800    276.144
    7     1     9     1    107.800    276.144
    7     1     8     1    107.800    276.144
   12     5    14     1    107.800    276.144
    3     2    10     1    109.500    292.880

[ dihedrals ]
; IMPROPER DIHEDRAL ANGLES 
;  ai    aj    ak    al funct            c0            c1            c2            c3            c4            c5
     6     4     3     5    4        180.000     43.932     2  

[ dihedrals ]
; PROPER DIHEDRAL ANGLES
;  ai    aj    ak    al funct            c0            c1            c2            c3            c4            c5
    4    3    2    1        3      -2.197   5.201   0.527  -3.531  -0.000   0.000
    5    4    3    2        3      31.206  -9.768  -21.439  -0.000  -0.000   0.000
   14    5    4    6        3       0.000   0.000   0.000  -0.000  -0.000   0.000
   13    5    4    6        3       0.000   0.000   0.000  -0.000  -0.000   0.000
   12    5    4    6        3       0.000   0.000   0.000  -0.000  -0.000   0.000
   13    5    4    3        3       0.276   0.828   0.000  -1.105  -0.000   0.000
   14    5    4    3        3       0.276   0.828   0.000  -1.105  -0.000   0.000
   12    5    4    3        3       0.276   0.828   0.000  -1.105  -0.000   0.000
   11    2    1    9        3       0.628   1.883   0.000  -2.510  -0.000   0.000
   10    2    1    9        3       0.628   1.883   0.000  -2.510  -0.000   0.000
   11    2    1    8        3       0.628   1.883   0.000  -2.510  -0.000   0.000
   10    2    1    7        3       0.628   1.883   0.000  -2.510  -0.000   0.000
   10    2    1    8        3       0.628   1.883   0.000  -2.510  -0.000   0.000
   11    2    1    7        3       0.628   1.883   0.000  -2.510  -0.000   0.000
    8    1    2    3        3       0.979   2.937   0.000  -3.916  -0.000   0.000
    9    1    2    3        3       0.979   2.937   0.000  -3.916  -0.000   0.000
    7    1    2    3        3       0.979   2.937   0.000  -3.916  -0.000   0.000
   11    2    3    4        3       0.414   1.243   0.000  -1.657  -0.000   0.000
   10    2    3    4        3       0.414   1.243   0.000  -1.657  -0.000   0.000
    6    4    3    2        3      21.439   0.000  -21.439  -0.000  -0.000   0.000

[ pairs ]
     1     4    1
     2     5    1
     2     6    1
     3     7    1
     3     8    1
     3     9    1
     4    10    1
     4    11    1
     3    12    1
     3    13    1
     7    10    1
     3    14    1
     8    10    1
     7    11    1
     6    12    1
     9    10    1
     8    11    1
     6    13    1
     9    11    1
     6    14    1

