LIGPARGEN GENERATED GRO FILE
   14
    1UNK    C00    1   0.100   0.100   0.000
    1UNK    C01    2  -0.052   0.100   0.000
    1UNK    O02    3  -0.101   0.100   0.135
    1UNK    C03    4  -0.112  -0.022   0.194
    1UNK    C04    5  -0.165  -0.009   0.333
    1UNK    O05    6  -0.082  -0.129   0.142
    1UNK    H06    7   0.139   0.105  -0.102
    1UNK    H07    8   0.139   0.010   0.048
    1UNK    H08    9   0.138   0.186   0.056
    1UNK    H09   10  -0.092   0.015  -0.057
    1UNK    H0A   11  -0.088   0.192  -0.048
    1UNK    H0B   12  -0.188   0.095   0.357
    1UNK    H0C   13  -0.089  -0.044   0.404
    1UNK    H0D   14  -0.256  -0.068   0.343
   1.00000   1.00000   1.00000

