LIGPARGEN GENERATED GRO FILE
   31
    1UNK    C00    1   0.100   0.100   0.000
    1UNK    C01    2  -0.051   0.100   0.000
    1UNK    O02    3  -0.114   0.100   0.105
    1UNK    C03    4  -0.121   0.100  -0.135
    1UNK    C04    5  -0.145   0.242  -0.188
    1UNK    C05    6  -0.237   0.326  -0.095
    1UNK    C06    7  -0.162   0.444  -0.032
    1UNK    C07    8  -0.350   0.372  -0.190
    1UNK    C08    9  -0.438   0.250  -0.223
    1UNK    C09   10  -0.352   0.170  -0.322
    1UNK    C0A   11  -0.221   0.250  -0.324
    1UNK    C0B   12  -0.137   0.220  -0.447
    1UNK    N0C   13  -0.067   0.195  -0.549
    1UNK    C0D   14  -0.275   0.393  -0.322
    1UNK    H0E   15   0.136   0.100   0.103
    1UNK    H0F   16   0.137   0.189  -0.050
    1UNK    H0G   17   0.136   0.010  -0.050
    1UNK    H0H   18  -0.215   0.046  -0.120
    1UNK    H0I   19  -0.061   0.041  -0.205
    1UNK    H0J   20  -0.047   0.292  -0.198
    1UNK    H0K   21  -0.279   0.266  -0.014
    1UNK    H0M   22  -0.119   0.510  -0.107
    1UNK    H0N   23  -0.081   0.408   0.032
    1UNK    H0O   24  -0.230   0.504   0.030
    1UNK    H0P   25  -0.407   0.458  -0.154
    1UNK    H0Q   26  -0.532   0.281  -0.271
    1UNK    H0R   27  -0.463   0.191  -0.134
    1UNK    H0S   28  -0.400   0.171  -0.421
    1UNK    H0T   29  -0.340   0.066  -0.293
    1UNK    H0U   30  -0.342   0.416  -0.406
    1UNK    H0V   31  -0.197   0.470  -0.318
   1.00000   1.00000   1.00000

