LIGPARGEN GENERATED GRO FILE
   32
    1UNK    C00    1   0.100   0.100   0.000
    1UNK    C01    2  -0.054   0.100   0.000
    1UNK    C02    3  -0.099   0.100   0.149
    1UNK    C03    4  -0.248   0.083   0.173
    1UNK    C04    5  -0.326   0.206   0.134
    1UNK    O05    6  -0.352   0.294   0.215
    1UNK    C06    7  -0.370   0.216  -0.009
    1UNK    C07    8  -0.267   0.168  -0.107
    1UNK    O08    9  -0.300   0.090  -0.197
    1UNK    C09   10  -0.121   0.211  -0.090
    1UNK    C0A   11  -0.107   0.355  -0.036
    1UNK    C0B   12   0.015   0.414  -0.105
    1UNK    C0C   13   0.005   0.360  -0.246
    1UNK    C0D   14  -0.058   0.221  -0.233
    1UNK    H0E   15   0.138   0.017   0.061
    1UNK    H0F   16   0.141   0.192   0.042
    1UNK    H0G   17   0.142   0.085  -0.100
    1UNK    H0H   18  -0.084   0.003  -0.041
    1UNK    H0I   19  -0.063   0.191   0.199
    1UNK    H0J   20  -0.049   0.017   0.199
    1UNK    H0K   21  -0.266   0.066   0.280
    1UNK    H0M   22  -0.288  -0.005   0.121
    1UNK    H0N   23  -0.397   0.319  -0.033
    1UNK    H0O   24  -0.460   0.154  -0.020
    1UNK    H0P   25  -0.097   0.362   0.072
    1UNK    H0Q   26  -0.194   0.415  -0.064
    1UNK    H0R   27   0.107   0.381  -0.057
    1UNK    H0S   28   0.013   0.524  -0.103
    1UNK    H0T   29   0.102   0.356  -0.295
    1UNK    H0U   30  -0.061   0.424  -0.306
    1UNK    H0V   31   0.017   0.143  -0.251
    1UNK    H0W   32  -0.132   0.210  -0.313
   1.00000   1.00000   1.00000

