LIGPARGEN GENERATED GRO FILE
   18
    1UNK    C00    1   0.100   0.100   0.000
    1UNK    C01    2  -0.052   0.100   0.000
    1UNK    C02    3  -0.114   0.100   0.140
    1UNK    Cl0    4  -0.075   0.251   0.228
    1UNK    C04    5  -0.265   0.091   0.132
    1UNK    O05    6  -0.332   0.132   0.038
    1UNK    C06    7  -0.335   0.026   0.250
    1UNK    C07    8  -0.485   0.015   0.244
    1UNK    O08    9  -0.268  -0.022   0.341
    1UNK    H09   10   0.137   0.093  -0.103
    1UNK    H0A   11   0.139   0.014   0.056
    1UNK    H0B   12   0.140   0.192   0.044
    1UNK    H0C   13  -0.087   0.011  -0.054
    1UNK    H0D   14  -0.088   0.186  -0.058
    1UNK    H0E   15  -0.074   0.015   0.197
    1UNK    H0F   16  -0.528   0.085   0.172
    1UNK    H0G   17  -0.526   0.040   0.343
    1UNK    H0H   18  -0.513  -0.087   0.217
   1.00000   1.00000   1.00000

