
;
; GENERATED BY LigParGen Server
; Jorgensen Lab @ Yale University 
;
[ atomtypes ]
  opls_810  H810     1.0080     0.000    A    2.50000E-01   1.25520E-01
  opls_804  C804    12.0110     0.000    A    3.55000E-01   2.92880E-01
  opls_800  C800    12.0110     0.000    A    3.50000E-01   2.76144E-01
  opls_801  C801    12.0110     0.000    A    3.50000E-01   2.76144E-01
  opls_814  H814     1.0080     0.000    A    2.50000E-01   1.25520E-01
  opls_808  O808    15.9990     0.000    A    2.96000E-01   8.78640E-01
  opls_807  C807    12.0110     0.000    A    3.50000E-01   2.76144E-01
  opls_812  H812     1.0080     0.000    A    2.50000E-01   1.25520E-01
  opls_805  O805    15.9990     0.000    A    2.96000E-01   8.78640E-01
  opls_802  C802    12.0110     0.000    A    3.50000E-01   2.76144E-01
  opls_806  C806    12.0110     0.000    A    3.55000E-01   2.92880E-01
  opls_803 Cl803    35.4500     0.000    A    3.40000E-01   1.25520E+00
  opls_809  H809     1.0080     0.000    A    2.50000E-01   1.25520E-01
  opls_817  H817     1.0080     0.000    A    2.50000E-01   1.25520E-01
  opls_813  H813     1.0080     0.000    A    2.50000E-01   1.25520E-01
  opls_811  H811     1.0080     0.000    A    2.50000E-01   1.25520E-01
  opls_816  H816     1.0080     0.000    A    2.50000E-01   1.25520E-01
  opls_815  H815     1.0080     0.000    A    2.50000E-01   1.25520E-01
[ moleculetype ]
; Name               nrexcl
UNK                   3
[ atoms ]
;   nr       type  resnr residue  atom   cgnr     charge       mass  
     1   opls_800      1    UNK   C00      1    -0.2408    12.0110 
     2   opls_801      1    UNK   C01      1    -0.1834    12.0110 
     3   opls_802      1    UNK   C02      1     0.0292    12.0110 
     4   opls_803      1    UNK   Cl0      1    -0.2312    35.4500 
     5   opls_804      1    UNK   C04      1     0.3152    12.0110 
     6   opls_805      1    UNK   O05      1    -0.3816    15.9990 
     7   opls_806      1    UNK   C06      1     0.3257    12.0110 
     8   opls_807      1    UNK   C07      1    -0.2936    12.0110 
     9   opls_808      1    UNK   O08      1    -0.4037    15.9990 
    10   opls_809      1    UNK   H09      1     0.0918     1.0080 
    11   opls_810      1    UNK   H0A      1     0.0918     1.0080 
    12   opls_811      1    UNK   H0B      1     0.0918     1.0080 
    13   opls_812      1    UNK   H0C      1     0.1135     1.0080 
    14   opls_813      1    UNK   H0D      1     0.1135     1.0080 
    15   opls_814      1    UNK   H0E      1     0.1682     1.0080 
    16   opls_815      1    UNK   H0F      1     0.1313     1.0080 
    17   opls_816      1    UNK   H0G      1     0.1313     1.0080 
    18   opls_817      1    UNK   H0H      1     0.1313     1.0080 
[ bonds ]
    2     1     1      0.1529 224262.400
    3     2     1      0.1529 224262.400
    4     3     1      0.1781 205016.000
    5     3     1      0.1522 265265.600
    6     5     1      0.1229 476976.000
    7     5     1      0.1510 292880.000
    8     7     1      0.1522 265265.600
    9     7     1      0.1229 476976.000
   10     1     1      0.1090 284512.000
   11     1     1      0.1090 284512.000
   12     1     1      0.1090 284512.000
   13     2     1      0.1090 284512.000
   14     2     1      0.1090 284512.000
   15     3     1      0.1090 284512.000
   16     8     1      0.1090 284512.000
   17     8     1      0.1090 284512.000
   18     8     1      0.1090 284512.000

[ angles ]
;  ai    aj    ak funct            c0            c1            c2            c3 
    1     2     3     1    112.700    488.273
    2     3     4     1    109.800    577.392
    2     3     5     1    111.100    527.184
    3     5     6     1    120.400    669.440
    3     5     7     1    117.200    669.440
    5     7     8     1    117.200    669.440
    5     7     9     1    121.400    669.440
    2     1    10     1    110.700    313.800
    2     1    11     1    110.700    313.800
    2     1    12     1    110.700    313.800
    1     2    13     1    110.700    313.800
    1     2    14     1    110.700    313.800
    2     3    15     1    110.700    313.800
    7     8    16     1    109.500    292.880
    7     8    17     1    109.500    292.880
    7     8    18     1    109.500    292.880
    3     2    14     1    110.700    313.800
   13     2    14     1    107.800    276.144
    8     7     9     1    120.400    669.440
   17     8    18     1    107.800    276.144
    4     3     5     1    109.800    577.392
   16     8    18     1    107.800    276.144
   16     8    17     1    107.800    276.144
   11     1    12     1    107.800    276.144
    6     5     7     1    121.400    669.440
    5     3    15     1    109.500    292.880
   10     1    12     1    107.800    276.144
   10     1    11     1    107.800    276.144
    3     2    13     1    110.700    313.800
    4     3    15     1    107.600    426.768

[ dihedrals ]
; IMPROPER DIHEDRAL ANGLES 
;  ai    aj    ak    al funct            c0            c1            c2            c3            c4            c5
     7     5     3     6    4        180.000     43.932     2  
     9     7     5     8    4        180.000     43.932     2  

[ dihedrals ]
; PROPER DIHEDRAL ANGLES
;  ai    aj    ak    al funct            c0            c1            c2            c3            c4            c5
    7    5    3    2        3       0.000   0.000   0.000  -0.000  -0.000   0.000
    7    5    3    4        3       0.000   0.000   0.000  -0.000  -0.000   0.000
    5    3    2    1        3      -4.960   6.286   1.310  -2.636  -0.000   0.000
    8    7    5    3        3      -4.812  -1.464   6.276  -0.000  -0.000   0.000
    8    7    5    6        3       2.092   0.000  -2.092  -0.000  -0.000   0.000
    4    3    2    1        3       0.837   2.510   0.000  -3.347  -0.000   0.000
   17    8    7    5        3       0.178   0.533   0.000  -0.711  -0.000   0.000
   18    8    7    5        3       0.178   0.533   0.000  -0.711  -0.000   0.000
   16    8    7    5        3       0.178   0.533   0.000  -0.711  -0.000   0.000
   15    3    5    7        3       0.178   0.533   0.000  -0.711  -0.000   0.000
   18    8    7    9        3       0.000   0.000   0.000  -0.000  -0.000   0.000
   17    8    7    9        3       0.000   0.000   0.000  -0.000  -0.000   0.000
   16    8    7    9        3       0.000   0.000   0.000  -0.000  -0.000   0.000
   15    3    5    6        3       0.000   0.000   0.000  -0.000  -0.000   0.000
   13    2    3    5        3      -0.209  -0.628   0.000   0.837  -0.000   0.000
   14    2    3    5        3      -0.209  -0.628   0.000   0.837  -0.000   0.000
   11    1    2    3        3       0.628   1.883   0.000  -2.510  -0.000   0.000
   10    1    2    3        3       0.628   1.883   0.000  -2.510  -0.000   0.000
   12    1    2    3        3       0.628   1.883   0.000  -2.510  -0.000   0.000
   15    3    2    1        3       0.628   1.883   0.000  -2.510  -0.000   0.000
   13    2    3    4        3       0.837   2.510   0.000  -3.347  -0.000   0.000
   14    2    3    4        3       0.837   2.510   0.000  -3.347  -0.000   0.000
   15    3    2   13        3       0.628   1.883   0.000  -2.510  -0.000   0.000
   13    2    1   10        3       0.628   1.883   0.000  -2.510  -0.000   0.000
   13    2    1   11        3       0.628   1.883   0.000  -2.510  -0.000   0.000
   13    2    1   12        3       0.628   1.883   0.000  -2.510  -0.000   0.000
   15    3    2   14        3       0.628   1.883   0.000  -2.510  -0.000   0.000
   14    2    1   12        3       0.628   1.883   0.000  -2.510  -0.000   0.000
   14    2    1   10        3       0.628   1.883   0.000  -2.510  -0.000   0.000
   14    2    1   11        3       0.628   1.883   0.000  -2.510  -0.000   0.000
    9    7    5    3        3       2.092   0.000  -2.092  -0.000  -0.000   0.000
    9    7    5    6        3      16.736  -3.347  -13.389  -0.000  -0.000   0.000
    6    5    3    2        3       0.000   0.000   0.000  -0.000  -0.000   0.000
    6    5    3    4        3      -1.360   1.360   0.000  -0.000  -0.000   0.000

[ pairs ]
     1     4    1
     1     5    1
     2     6    1
     2     7    1
     4     6    1
     4     7    1
     3     8    1
     3     9    1
     3    10    1
     6     8    1
     3    11    1
     6     9    1
     3    12    1
     1    15    1
     4    13    1
     5    13    1
     4    14    1
     5    14    1
     6    15    1
     5    16    1
     7    15    1
     5    17    1
    10    13    1
     5    18    1
    11    13    1
    10    14    1
    12    13    1
    11    14    1
     9    16    1
    12    14    1
     9    17    1
     9    18    1
    13    15    1
    14    15    1

