LIGPARGEN GENERATED GRO FILE
   34
    1UNK    C00    1   0.100   0.100   0.000
    1UNK    C01    2  -0.052   0.100   0.000
    1UNK    C02    3  -0.111   0.100   0.139
    1UNK    C03    4  -0.087   0.217   0.232
    1UNK    C04    5  -0.058   0.196   0.379
    1UNK    C05    6   0.087   0.229   0.415
    1UNK    C06    7  -0.091   0.055   0.428
    1UNK    O07    8  -0.006  -0.034   0.437
    1UNK    C08    9  -0.235   0.026   0.466
    1UNK    C09   10  -0.332   0.033   0.349
    1UNK    C0A   11  -0.336   0.169   0.282
    1UNK    C0B   12  -0.227   0.192   0.177
    1UNK    O0C   13  -0.271   0.281   0.070
    1UNK    C0D   14  -0.373   0.223  -0.012
    1UNK    H0E   15   0.138   0.089  -0.102
    1UNK    H0F   16   0.140   0.018   0.061
    1UNK    H0G   17   0.139   0.194   0.039
    1UNK    H0H   18  -0.087   0.010  -0.052
    1UNK    H0I   19  -0.086   0.186  -0.059
    1UNK    H0J   20  -0.108  -0.001   0.179
    1UNK    H0K   21  -0.037   0.305   0.193
    1UNK    H0M   22  -0.119   0.266   0.437
    1UNK    H0N   23   0.158   0.163   0.365
    1UNK    H0O   24   0.103   0.220   0.523
    1UNK    H0P   25   0.112   0.332   0.387
    1UNK    H0Q   26  -0.264   0.096   0.545
    1UNK    H0R   27  -0.239  -0.075   0.509
    1UNK    H0S   28  -0.432   0.011   0.388
    1UNK    H0T   29  -0.310  -0.046   0.275
    1UNK    H0U   30  -0.332   0.249   0.357
    1UNK    H0V   31  -0.434   0.179   0.236
    1UNK    H0W   32  -0.362   0.260  -0.114
    1UNK    H0X   33  -0.471   0.254   0.025
    1UNK    H0Y   34  -0.367   0.114  -0.013
   1.00000   1.00000   1.00000

