LIGPARGEN GENERATED GRO FILE
   34
    1UNK    C00    1   0.100   0.100   0.000
    1UNK    C01    2  -0.052   0.100   0.000
    1UNK    C02    3  -0.110   0.100   0.142
    1UNK    C03    4  -0.262   0.100   0.137
    1UNK    O04    5  -0.321   0.052   0.041
    1UNK    C05    6  -0.339   0.154   0.259
    1UNK    C06    7  -0.308   0.302   0.286
    1UNK    C07    8  -0.356   0.391   0.172
    1UNK    C08    9  -0.504   0.372   0.142
    1UNK    C09   10  -0.544   0.226   0.134
    1UNK    O0A   11  -0.631   0.190   0.054
    1UNK    C0B   12  -0.491   0.132   0.241
    1UNK    C0C   13  -0.577   0.154   0.367
    1UNK    C0D   14  -0.539   0.065   0.484
    1UNK    H0E   15   0.138   0.100  -0.103
    1UNK    H0F   16   0.139   0.011   0.050
    1UNK    H0G   17   0.139   0.189   0.051
    1UNK    H0H   18  -0.087   0.012  -0.055
    1UNK    H0I   19  -0.088   0.188  -0.054
    1UNK    H0J   20  -0.074   0.189   0.194
    1UNK    H0K   21  -0.077   0.011   0.197
    1UNK    H0M   22  -0.304   0.094   0.344
    1UNK    H0N   23  -0.201   0.318   0.301
    1UNK    H0O   24  -0.356   0.333   0.380
    1UNK    H0P   25  -0.298   0.369   0.082
    1UNK    H0Q   26  -0.337   0.496   0.198
    1UNK    H0R   27  -0.528   0.421   0.047
    1UNK    H0S   28  -0.565   0.419   0.221
    1UNK    H0T   29  -0.508   0.029   0.206
    1UNK    H0U   30  -0.682   0.135   0.342
    1UNK    H0V   31  -0.573   0.258   0.400
    1UNK    H0W   32  -0.541  -0.041   0.456
    1UNK    H0X   33  -0.611   0.079   0.566
    1UNK    H0Y   34  -0.440   0.089   0.523
   1.00000   1.00000   1.00000

