LIGPARGEN GENERATED GRO FILE
   35
    1UNK    C00    1   0.100   0.100   0.000
    1UNK    C01    2  -0.052   0.100   0.000
    1UNK    C02    3  -0.107   0.100   0.143
    1UNK    C03    4  -0.260   0.100   0.146
    1UNK    C04    5  -0.319   0.100   0.290
    1UNK    C05    6  -0.282   0.229   0.364
    1UNK    C06    7  -0.472   0.087   0.284
    1UNK    O07    8  -0.535   0.147   0.196
    1UNK    C08    9  -0.547   0.006   0.392
    1UNK    C09   10  -0.697   0.001   0.361
    1UNK    C0A   11  -0.493  -0.137   0.391
    1UNK    N0B   12  -0.449  -0.255   0.390
    1UNK    C0C   13  -0.520   0.068   0.532
    1UNK    C0D   14  -0.592   0.002   0.649
    1UNK    H0E   15   0.138   0.100  -0.102
    1UNK    H0F   16   0.139   0.011   0.051
    1UNK    H0G   17   0.139   0.189   0.051
    1UNK    H0H   18  -0.089   0.012  -0.054
    1UNK    H0I   19  -0.088   0.189  -0.054
    1UNK    H0J   20  -0.068   0.189   0.194
    1UNK    H0K   21  -0.069   0.012   0.197
    1UNK    H0M   22  -0.297   0.012   0.093
    1UNK    H0N   23  -0.297   0.188   0.091
    1UNK    H0O   24  -0.277   0.014   0.343
    1UNK    H0P   25  -0.329   0.316   0.317
    1UNK    H0Q   26  -0.174   0.246   0.366
    1UNK    H0R   27  -0.314   0.227   0.468
    1UNK    H0S   28  -0.716  -0.039   0.260
    1UNK    H0T   29  -0.741   0.102   0.365
    1UNK    H0U   30  -0.752  -0.063   0.431
    1UNK    H0V   31  -0.547   0.174   0.530
    1UNK    H0W   32  -0.413   0.062   0.554
    1UNK    H0X   33  -0.701   0.012   0.641
    1UNK    H0Y   34  -0.562   0.051   0.743
    1UNK    H0Z   35  -0.567  -0.104   0.658
   1.00000   1.00000   1.00000

