LIGPARGEN GENERATED GRO FILE
   36
    1UNK    C00    1   0.100   0.100   0.000
    1UNK    C01    2  -0.053   0.100   0.000
    1UNK    C02    3  -0.103   0.100   0.142
    1UNK    C03    4  -0.255   0.114   0.163
    1UNK    C04    5  -0.274   0.111   0.320
    1UNK    C05    6  -0.327   0.243   0.112
    1UNK    C06    7  -0.458   0.157   0.129
    1UNK    O07    8  -0.572   0.182   0.162
    1UNK    C08    9  -0.373   0.024   0.081
    1UNK    C09   10  -0.389  -0.109   0.157
    1UNK    C0A   11  -0.399  -0.215   0.048
    1UNK    C0B   12  -0.487  -0.148  -0.055
    1UNK    C0C   13  -0.436  -0.003  -0.060
    1UNK    C0D   14  -0.348   0.025  -0.181
    1UNK    H0E   15   0.139   0.095  -0.102
    1UNK    H0F   16   0.139   0.014   0.055
    1UNK    H0G   17   0.140   0.191   0.047
    1UNK    H0H   18  -0.089   0.011  -0.052
    1UNK    H0I   19  -0.088   0.189  -0.054
    1UNK    H0J   20  -0.054   0.182   0.196
    1UNK    H0K   21  -0.069   0.007   0.191
    1UNK    H0M   22  -0.225   0.197   0.366
    1UNK    H0N   23  -0.230   0.020   0.363
    1UNK    H0O   24  -0.379   0.112   0.351
    1UNK    H0P   25  -0.305   0.271   0.009
    1UNK    H0Q   26  -0.319   0.331   0.176
    1UNK    H0R   27  -0.479  -0.108   0.220
    1UNK    H0S   28  -0.302  -0.133   0.219
    1UNK    H0T   29  -0.441  -0.308   0.085
    1UNK    H0U   30  -0.300  -0.235   0.005
    1UNK    H0V   31  -0.591  -0.149  -0.020
    1UNK    H0W   32  -0.485  -0.199  -0.152
    1UNK    H0X   33  -0.525   0.059  -0.074
    1UNK    H0Y   34  -0.265  -0.046  -0.189
    1UNK    H0Z   35  -0.309   0.127  -0.179
    1UNK    H10   36  -0.409   0.015  -0.272
   1.00000   1.00000   1.00000

