LIGPARGEN GENERATED GRO FILE
   22
    1UNK    C00    1   0.100   0.100   0.000
    1UNK    C01    2  -0.052   0.100   0.000
    1UNK    O02    3  -0.097   0.100   0.135
    1UNK    C03    4  -0.238   0.113   0.149
    1UNK    C04    5  -0.309  -0.012   0.098
    1UNK    O05    6  -0.272   0.124   0.287
    1UNK    C06    7  -0.265   0.248   0.339
    1UNK    O07    8  -0.238   0.351   0.278
    1UNK    O08    9  -0.294   0.240   0.471
    1UNK    C09   10  -0.291   0.366   0.539
    1UNK    H0A   11   0.139   0.091  -0.102
    1UNK    H0B   12   0.139   0.017   0.060
    1UNK    H0C   13   0.138   0.193   0.044
    1UNK    H0D   14  -0.087   0.010  -0.051
    1UNK    H0E   15  -0.089   0.188  -0.053
    1UNK    H0F   16  -0.274   0.201   0.093
    1UNK    H0G   17  -0.265  -0.102   0.142
    1UNK    H0H   18  -0.302  -0.021  -0.011
    1UNK    H0I   19  -0.415  -0.010   0.125
    1UNK    H0J   20  -0.307   0.347   0.646
    1UNK    H0K   21  -0.371   0.431   0.503
    1UNK    H0M   22  -0.193   0.414   0.527
   1.00000   1.00000   1.00000

