LIGPARGEN GENERATED GRO FILE
   34
    1UNK    C00    1   0.100   0.100   0.000
    1UNK    C01    2  -0.052   0.100   0.000
    1UNK    C02    3  -0.108   0.100   0.142
    1UNK    C03    4  -0.260   0.100   0.140
    1UNK    O04    5  -0.324   0.047   0.049
    1UNK    C05    6  -0.329   0.163   0.260
    1UNK    C06    7  -0.481   0.157   0.247
    1UNK    C07    8  -0.552   0.220   0.366
    1UNK    C08    9  -0.704   0.212   0.349
    1UNK    C09   10  -0.778   0.275   0.466
    1UNK    F0A   11  -0.743   0.406   0.474
    1UNK    C0B   12  -0.929   0.267   0.447
    1UNK    C0C   13  -1.004   0.329   0.564
    1UNK    H0D   14   0.138   0.100  -0.103
    1UNK    H0E   15   0.139   0.011   0.050
    1UNK    H0F   16   0.139   0.189   0.051
    1UNK    H0G   17  -0.088   0.012  -0.055
    1UNK    H0H   18  -0.088   0.188  -0.054
    1UNK    H0I   19  -0.074   0.189   0.195
    1UNK    H0J   20  -0.075   0.012   0.197
    1UNK    H0K   21  -0.296   0.267   0.267
    1UNK    H0M   22  -0.297   0.110   0.350
    1UNK    H0N   23  -0.513   0.053   0.237
    1UNK    H0O   24  -0.512   0.208   0.155
    1UNK    H0P   25  -0.521   0.325   0.376
    1UNK    H0Q   26  -0.522   0.169   0.458
    1UNK    H0R   27  -0.734   0.107   0.337
    1UNK    H0S   28  -0.731   0.265   0.256
    1UNK    H0T   29  -0.749   0.227   0.560
    1UNK    H0U   30  -0.960   0.162   0.436
    1UNK    H0V   31  -0.958   0.320   0.355
    1UNK    H0W   32  -0.980   0.277   0.657
    1UNK    H0X   33  -1.112   0.321   0.548
    1UNK    H0Y   34  -0.978   0.434   0.575
   1.00000   1.00000   1.00000

