LIGPARGEN GENERATED GRO FILE
   36
    1UNK    C00    1   0.100   0.100   0.000
    1UNK    C01    2  -0.053   0.100   0.000
    1UNK    C02    3  -0.101   0.100   0.145
    1UNK    O03    4  -0.054   0.020   0.227
    1UNK    C04    5  -0.206   0.198   0.190
    1UNK    C05    6  -0.140   0.325   0.242
    1UNK    C06    7  -0.092   0.421   0.134
    1UNK    C07    8  -0.185   0.428   0.014
    1UNK    C08    9  -0.238   0.292  -0.040
    1UNK    C09   10  -0.349   0.328  -0.142
    1UNK    C0A   11  -0.306   0.221   0.078
    1UNK    C0B   12  -0.122   0.200  -0.102
    1UNK    C0C   13  -0.019   0.288  -0.177
    1UNK    C0D   14  -0.182   0.108  -0.214
    1UNK    H0E   15   0.139   0.022   0.067
    1UNK    H0F   16   0.140   0.195   0.035
    1UNK    H0G   17   0.140   0.078  -0.099
    1UNK    H0H   18  -0.081  -0.002  -0.031
    1UNK    H0I   19  -0.259   0.150   0.273
    1UNK    H0J   20  -0.054   0.300   0.306
    1UNK    H0K   21  -0.212   0.377   0.306
    1UNK    H0M   22   0.008   0.393   0.101
    1UNK    H0N   23  -0.083   0.521   0.177
    1UNK    H0O   24  -0.137   0.486  -0.066
    1UNK    H0P   25  -0.272   0.490   0.044
    1UNK    H0Q   26  -0.421   0.398  -0.100
    1UNK    H0R   27  -0.407   0.240  -0.172
    1UNK    H0S   28  -0.307   0.374  -0.232
    1UNK    H0T   29  -0.350   0.126   0.046
    1UNK    H0U   30  -0.389   0.282   0.116
    1UNK    H0V   31   0.042   0.348  -0.109
    1UNK    H0W   32  -0.068   0.357  -0.247
    1UNK    H0X   33   0.050   0.228  -0.238
    1UNK    H0Y   34  -0.264   0.046  -0.175
    1UNK    H0Z   35  -0.105   0.040  -0.253
    1UNK    H10   36  -0.219   0.165  -0.300
   1.00000   1.00000   1.00000

