LIGPARGEN GENERATED GRO FILE
   18
    1UNK    C00    1   0.100   0.100   0.000
    1UNK    C01    2  -0.034   0.100   0.000
    1UNK    C02    3  -0.111   0.100   0.120
    1UNK    C03    4  -0.072   0.105   0.253
    1UNK    C04    5  -0.183   0.103   0.343
    1UNK    C05    6  -0.304   0.096   0.279
    1UNK    C06    7  -0.440   0.092   0.332
    1UNK    C07    8  -0.459   0.089   0.483
    1UNK    O08    9  -0.541   0.091   0.262
    1UNK    S09   10  -0.283   0.093   0.109
    1UNK    H0A   11   0.154   0.100  -0.094
    1UNK    H0B   12   0.160   0.100   0.091
    1UNK    H0C   13  -0.086   0.100  -0.096
    1UNK    H0D   14   0.031   0.109   0.285
    1UNK    H0E   15  -0.170   0.105   0.451
    1UNK    H0F   16  -0.365   0.095   0.538
    1UNK    H0G   17  -0.509  -0.004   0.510
    1UNK    H0H   18  -0.521   0.174   0.512
   1.00000   1.00000   1.00000

