
;
; GENERATED BY LigParGen Server
; Jorgensen Lab @ Yale University 
;
[ atomtypes ]
  opls_810  H810     1.0080     0.000    A    2.50000E-01   1.25520E-01
  opls_805  C805    12.0110     0.000    A    3.55000E-01   2.92880E-01
  opls_813  H813     1.0080     0.000    A    2.42000E-01   1.25520E-01
  opls_815  H815     1.0080     0.000    A    2.50000E-01   1.25520E-01
  opls_803  C803    12.0110     0.000    A    3.55000E-01   2.92880E-01
  opls_817  H817     1.0080     0.000    A    2.50000E-01   1.25520E-01
  opls_807  C807    12.0110     0.000    A    3.50000E-01   2.76144E-01
  opls_800  C800    12.0110     0.000    A    3.55000E-01   3.17984E-01
  opls_808  O808    15.9990     0.000    A    2.96000E-01   8.78640E-01
  opls_804  C804    12.0110     0.000    A    3.55000E-01   2.92880E-01
  opls_802  C802    12.0110     0.000    A    3.55000E-01   2.92880E-01
  opls_809  S809    32.0600     0.000    A    3.60000E-01   1.48532E+00
  opls_806  C806    12.0110     0.000    A    3.55000E-01   2.92880E-01
  opls_801  C801    12.0110     0.000    A    3.55000E-01   3.17984E-01
  opls_812  H812     1.0080     0.000    A    2.50000E-01   1.25520E-01
  opls_814  H814     1.0080     0.000    A    2.42000E-01   1.25520E-01
  opls_811  H811     1.0080     0.000    A    2.50000E-01   1.25520E-01
  opls_816  H816     1.0080     0.000    A    2.50000E-01   1.25520E-01
[ moleculetype ]
; Name               nrexcl
UNK                   3
[ atoms ]
;   nr       type  resnr residue  atom   cgnr     charge       mass  
     1   opls_800      1    UNK   C00      1    -0.2071    12.0110 
     2   opls_801      1    UNK   C01      1    -0.1299    12.0110 
     3   opls_802      1    UNK   C02      1    -0.0946    12.0110 
     4   opls_803      1    UNK   C03      1     -0.177    12.0110 
     5   opls_804      1    UNK   C04      1    -0.0894    12.0110 
     6   opls_805      1    UNK   C05      1    -0.2606    12.0110 
     7   opls_806      1    UNK   C06      1     0.4508    12.0110 
     8   opls_807      1    UNK   C07      1    -0.2896    12.0110 
     9   opls_808      1    UNK   O08      1     -0.459    15.9990 
    10   opls_809      1    UNK   S09      1     0.1331    32.0600 
    11   opls_810      1    UNK   H0A      1     0.1333     1.0080 
    12   opls_811      1    UNK   H0B      1     0.1333     1.0080 
    13   opls_812      1    UNK   H0C      1     0.1533     1.0080 
    14   opls_813      1    UNK   H0D      1     0.1785     1.0080 
    15   opls_814      1    UNK   H0E      1      0.178     1.0080 
    16   opls_815      1    UNK   H0F      1     0.1157     1.0080 
    17   opls_816      1    UNK   H0G      1     0.1157     1.0080 
    18   opls_817      1    UNK   H0H      1     0.1157     1.0080 
[ bonds ]
    2     1     1      0.1340 459403.200
    3     2     1      0.1365 459403.200
    4     3     1      0.1367 456892.800
    5     4     1      0.1424 392459.200
    6     5     1      0.1367 456892.800
    7     6     1      0.1490 334720.000
    8     7     1      0.1522 265265.600
    9     7     1      0.1229 476976.000
   10     3     1      0.1740 209200.000
   11     1     1      0.1080 284512.000
   12     1     1      0.1080 284512.000
   13     2     1      0.1080 284512.000
   14     4     1      0.1080 307105.600
   15     5     1      0.1080 307105.600
   16     8     1      0.1090 284512.000
   17     8     1      0.1090 284512.000
   18     8     1      0.1090 284512.000
   10     6     1      0.1740 209200.000

[ angles ]
;  ai    aj    ak funct            c0            c1            c2            c3 
    1     2     3     1    115.690    382.752
    2     3     4     1    111.170    585.760
    3     4     5     1    107.300    585.760
    4     5     6     1    107.300    585.760
    5     6     7     1    120.000    711.280
    6     7     8     1    118.180    584.923
    6     7     9     1    120.400    669.440
    2     3    10     1    111.170    585.760
    2     1    11     1    120.000    292.880
    2     1    12     1    120.000    292.880
    1     2    13     1    120.000    292.880
    3     4    14     1    125.700    292.880
    4     5    15     1    127.500    292.880
    7     8    16     1    109.500    292.880
    7     8    17     1    109.500    292.880
    7     8    18     1    109.500    292.880
    5     4    14     1    127.500    292.880
    8     7     9     1    120.400    669.440
   17     8    18     1    107.800    276.144
    4     3    10     1    111.170    585.760
    3    10     6     1     97.000    619.232
   16     8    18     1    107.800    276.144
    6     5    15     1    125.700    292.880
   16     8    17     1    107.800    276.144
   11     1    12     1    117.000    292.880
    5     6    10     1    111.170    585.760
    7     6    10     1    111.170    585.760
    3     2    13     1    122.000    292.880

[ dihedrals ]
; IMPROPER DIHEDRAL ANGLES 
;  ai    aj    ak    al funct            c0            c1            c2            c3            c4            c5
    14     4     3     5    4        180.000     10.460     2  
    15     5     4     6    4        180.000     10.460     2  
    13     2     1     3    4        180.000     10.460     2  
    12     1     2    11    4        180.000     10.460     2  
     9     7     6     8    4        180.000     43.932     2  
    10     3     2     4    4        180.000     10.460     2  
    10     6     5     7    4        180.000     10.460     2  

[ dihedrals ]
; PROPER DIHEDRAL ANGLES
;  ai    aj    ak    al funct            c0            c1            c2            c3            c4            c5
    7    6    5    4        3       9.079   0.000  -9.079  -0.000  -0.000   0.000
    7    6   10    3        3       0.000   0.000   0.000  -0.000  -0.000   0.000
    6    5    4    3        3       9.079   0.000  -9.079  -0.000  -0.000   0.000
    6   10    3    2        3       0.000   0.000   0.000  -0.000  -0.000   0.000
    6   10    3    4        3       0.000   0.000   0.000  -0.000  -0.000   0.000
    4    3    2    1        3      -0.778  -2.335   0.000   3.113  -0.000   0.000
    5    6   10    3        3       0.000   0.000   0.000  -0.000  -0.000   0.000
    5    4    3    2        3       9.079   0.000  -9.079  -0.000  -0.000   0.000
    8    7    6    5        3       0.818  -7.906   0.602   6.485  -0.000   0.000
   15    5    6    7        3      30.334   0.000  -30.334  -0.000  -0.000   0.000
   14    4    3    2        3      30.334   0.000  -30.334  -0.000  -0.000   0.000
   14    4    3   10        3      30.334   0.000  -30.334  -0.000  -0.000   0.000
   15    5    6   10        3      30.334   0.000  -30.334  -0.000  -0.000   0.000
   14    4    5    6        3      30.334   0.000  -30.334  -0.000  -0.000   0.000
   15    5    4    3        3      30.334   0.000  -30.334  -0.000  -0.000   0.000
   15    5    4   14        3      30.334   0.000  -30.334  -0.000  -0.000   0.000
   13    2    1   11        3      58.576   0.000  -58.576  -0.000  -0.000   0.000
   13    2    1   12        3      58.576   0.000  -58.576  -0.000  -0.000   0.000
   13    2    3    4        3       0.628   1.883   0.000  -2.510  -0.000   0.000
   13    2    3   10        3      -0.778  -2.335   0.000   3.113  -0.000   0.000
   12    1    2    3        3      58.576   0.000  -58.576  -0.000  -0.000   0.000
   11    1    2    3        3      58.576   0.000  -58.576  -0.000  -0.000   0.000
   17    8    7    6        3       0.575   1.726   0.000  -2.301  -0.000   0.000
   16    8    7    6        3       0.575   1.726   0.000  -2.301  -0.000   0.000
   18    8    7    6        3       0.575   1.726   0.000  -2.301  -0.000   0.000
   18    8    7    9        3       0.000   0.000   0.000  -0.000  -0.000   0.000
   16    8    7    9        3       0.000   0.000   0.000  -0.000  -0.000   0.000
   17    8    7    9        3       0.000   0.000   0.000  -0.000  -0.000   0.000
    9    7    6    5        3       8.786   0.000  -8.786  -0.000  -0.000   0.000
   10    6    7    8        3       0.837   0.000  -0.837  -0.000  -0.000   0.000
   10    6    7    9        3       0.000   0.000   0.000  -0.000  -0.000   0.000
   10    3    2    1        3      16.027  -4.391  -14.029   2.393  -0.000   0.000
   10    6    5    4        3       8.786   0.000  -8.786  -0.000  -0.000   0.000
   10    3    4    5        3       8.786   0.000  -8.786  -0.000  -0.000   0.000

[ pairs ]
     1     4    1
     2     5    1
     2     6    1
     3     7    1
     4     7    1
     1    10    1
     5     8    1
     5     9    1
     3    11    1
     3    12    1
     2    14    1
     4    13    1
     8    10    1
     3    15    1
     9    10    1
     6    14    1
     7    15    1
     6    16    1
    10    13    1
     6    17    1
    11    13    1
    10    14    1
     6    18    1
    12    13    1
    10    15    1
     9    16    1
     9    17    1
     9    18    1
    14    15    1

