LIGPARGEN GENERATED GRO FILE
   32
    1UNK    C00    1   0.100   0.100   0.000
    1UNK    N01    2  -0.045   0.100   0.000
    1UNK    C02    3  -0.114   0.100   0.128
    1UNK    C03    4  -0.110   0.094  -0.124
    1UNK    O04    5  -0.047   0.100  -0.229
    1UNK    C05    6  -0.262   0.081  -0.119
    1UNK    C06    7  -0.336   0.074  -0.254
    1UNK    C07    8  -0.294  -0.050  -0.335
    1UNK    C08    9  -0.331   0.206  -0.335
    1UNK    C09   10  -0.479   0.245  -0.332
    1UNK    C0A   11  -0.556   0.113  -0.365
    1UNK    C0B   12  -0.489   0.070  -0.230
    1UNK    C0C   13  -0.529   0.216  -0.187
    1UNK    H0D   14   0.140   0.106   0.102
    1UNK    H0E   15   0.136   0.185  -0.058
    1UNK    H0F   16   0.135   0.008  -0.047
    1UNK    H0G   17  -0.044   0.113   0.211
    1UNK    H0H   18  -0.168   0.005   0.140
    1UNK    H0I   19  -0.186   0.183   0.130
    1UNK    H0J   20  -0.298   0.166  -0.061
    1UNK    H0K   21  -0.286  -0.010  -0.062
    1UNK    H0M   22  -0.188  -0.047  -0.362
    1UNK    H0N   23  -0.349  -0.059  -0.429
    1UNK    H0O   24  -0.312  -0.141  -0.278
    1UNK    H0P   25  -0.297   0.190  -0.438
    1UNK    H0Q   26  -0.269   0.283  -0.289
    1UNK    H0R   27  -0.511   0.337  -0.380
    1UNK    H0S   28  -0.527   0.062  -0.457
    1UNK    H0T   29  -0.666   0.120  -0.364
    1UNK    H0U   30  -0.532  -0.014  -0.176
    1UNK    H0V   31  -0.475   0.264  -0.106
    1UNK    H0W   32  -0.636   0.232  -0.169
   1.00000   1.00000   1.00000

