
;
; GENERATED BY LigParGen Server
; Jorgensen Lab @ Yale University 
;
[ atomtypes ]
  opls_818  H818     1.0080     0.000    A    2.50000E-01   1.25520E-01
  opls_809  C809    12.0110     0.000    A    3.45000E-01   3.47272E-01
  opls_804  C804    12.0110     0.000    A    3.50000E-01   2.76144E-01
  opls_824  H824     1.0080     0.000    A    2.50000E-01   1.25520E-01
  opls_808  O808    15.9990     0.000    A    2.96000E-01   8.78640E-01
  opls_813  H813     1.0080     0.000    A    2.50000E-01   1.25520E-01
  opls_802  C802    12.0110     0.000    A    3.50000E-01   2.76144E-01
  opls_815  H815     1.0080     0.000    A    2.50000E-01   1.25520E-01
  opls_801  C801    12.0110     0.000    A    3.50000E-01   2.76144E-01
  opls_822  H822     1.0080     0.000    A    2.50000E-01   1.25520E-01
  opls_803  C803    12.0110     0.000    A    3.50000E-01   2.76144E-01
  opls_825  H825     1.0080     0.000    A    2.50000E-01   1.25520E-01
  opls_826  H826     1.0080     0.000    A    2.50000E-01   1.25520E-01
  opls_814  H814     1.0080     0.000    A    2.50000E-01   1.25520E-01
  opls_821  H821     1.0080     0.000    A    2.50000E-01   1.25520E-01
  opls_820  H820     1.0080     0.000    A    2.50000E-01   1.25520E-01
  opls_816  H816     1.0080     0.000    A    2.50000E-01   1.25520E-01
  opls_800  C800    12.0110     0.000    A    3.50000E-01   2.76144E-01
  opls_805  C805    12.0110     0.000    A    3.30000E-01   2.76144E-01
  opls_823  H823     1.0080     0.000    A    2.50000E-01   1.25520E-01
  opls_811  C811    12.0110     0.000    A    3.45000E-01   3.47272E-01
  opls_806  N806    14.0070     0.000    A    3.20000E-01   7.11280E-01
  opls_819  H819     1.0080     0.000    A    2.50000E-01   1.25520E-01
  opls_810  C810    12.0110     0.000    A    3.50000E-01   2.76144E-01
  opls_827  H827     1.0080     0.000    A    2.50000E-01   1.25520E-01
  opls_807  C807    12.0110     0.000    A    3.55000E-01   2.92880E-01
  opls_817  H817     1.0080     0.000    A    2.50000E-01   1.25520E-01
  opls_812  C812    12.0110     0.000    A    3.45000E-01   3.47272E-01
[ moleculetype ]
; Name               nrexcl
UNK                   3
[ atoms ]
;   nr       type  resnr residue  atom   cgnr     charge       mass  
     1   opls_800      1    UNK   C00      1    -0.2338    12.0110 
     2   opls_801      1    UNK   C01      1    -0.0965    12.0110 
     3   opls_802      1    UNK   C02      1    -0.1635    12.0110 
     4   opls_803      1    UNK   C03      1     0.0502    12.0110 
     5   opls_804      1    UNK   C04      1    -0.2253    12.0110 
     6   opls_805      1    UNK   C05      1     0.1462    12.0110 
     7   opls_806      1    UNK   N06      1     -0.388    14.0070 
     8   opls_807      1    UNK   C07      1     0.4274    12.0110 
     9   opls_808      1    UNK   O08      1     -0.428    15.9990 
    10   opls_809      1    UNK   C09      1    -0.2043    12.0110 
    11   opls_810      1    UNK   C0A      1    -0.1852    12.0110 
    12   opls_811      1    UNK   C0B      1    -0.2009    12.0110 
    13   opls_812      1    UNK   C0C      1    -0.1491    12.0110 
    14   opls_813      1    UNK   H0D      1     0.0901     1.0080 
    15   opls_814      1    UNK   H0E      1     0.0901     1.0080 
    16   opls_815      1    UNK   H0F      1     0.0901     1.0080 
    17   opls_816      1    UNK   H0G      1     0.1109     1.0080 
    18   opls_817      1    UNK   H0H      1     0.1156     1.0080 
    19   opls_818      1    UNK   H0I      1     0.1156     1.0080 
    20   opls_819      1    UNK   H0J      1     0.1082     1.0080 
    21   opls_820      1    UNK   H0K      1     0.1082     1.0080 
    22   opls_821      1    UNK   H0M      1     0.1082     1.0080 
    23   opls_822      1    UNK   H0N      1      0.096     1.0080 
    24   opls_823      1    UNK   H0O      1      0.096     1.0080 
    25   opls_824      1    UNK   H0P      1      0.096     1.0080 
    26   opls_825      1    UNK   H0Q      1     0.1377     1.0080 
    27   opls_826      1    UNK   H0R      1     0.1377     1.0080 
    28   opls_827      1    UNK   H0S      1     0.1501     1.0080 
[ bonds ]
    2     1     1      0.1529 224262.400
    3     2     1      0.1529 224262.400
    4     3     1      0.1529 224262.400
    5     4     1      0.1529 224262.400
    6     4     1      0.1470 326352.000
    7     6     1      0.1157 543920.000
    8     4     1      0.1522 265265.600
    9     8     1      0.1229 476976.000
   10     8     1      0.1522 265265.600
   11    10     1      0.1510 234304.000
   12    10     1      0.1520 217568.000
   13     2     1      0.1510 234304.000
   14     1     1      0.1090 284512.000
   15     1     1      0.1090 284512.000
   16     1     1      0.1090 284512.000
   17     2     1      0.1090 284512.000
   18     3     1      0.1090 284512.000
   19     3     1      0.1090 284512.000
   20     5     1      0.1090 284512.000
   21     5     1      0.1090 284512.000
   22     5     1      0.1090 284512.000
   23    11     1      0.1090 284512.000
   24    11     1      0.1090 284512.000
   25    11     1      0.1090 284512.000
   26    12     1      0.1088 284512.000
   27    12     1      0.1088 284512.000
   28    13     1      0.1088 284512.000
   13    10     1      0.1520 217568.000
   13    12     1      0.1520 217568.000

[ angles ]
;  ai    aj    ak funct            c0            c1            c2            c3 
    1     2     3     1    112.700    488.273
    2     3     4     1    112.700    488.273
    3     4     5     1    112.700    488.273
    3     4     6     1    112.700    488.273
    4     6     7     1    180.000   1255.200
    3     4     8     1    111.100    527.184
    4     8     9     1    120.400    669.440
    4     8    10     1    116.000    585.760
    8    10    11     1    111.100    527.184
    8    10    12     1    111.100    527.184
    1     2    13     1    112.700    488.273
    2     1    14     1    110.700    313.800
    2     1    15     1    110.700    313.800
    2     1    16     1    110.700    313.800
    1     2    17     1    110.700    313.800
    2     3    18     1    110.700    313.800
    2     3    19     1    110.700    313.800
    4     5    20     1    110.700    313.800
    4     5    21     1    110.700    313.800
    4     5    22     1    110.700    313.800
   10    11    23     1    110.700    313.800
   10    11    24     1    110.700    313.800
   10    11    25     1    110.700    313.800
   10    12    26     1    117.200    313.800
   10    12    27     1    117.200    313.800
    2    13    28     1    114.300    292.880
    5     4     6     1    112.700    488.273
    2    13    12     1    117.200    313.800
   13     2    17     1    110.700    313.800
   26    12    27     1    114.300    292.880
   20     5    22     1    107.800    276.144
   14     1    16     1    107.800    276.144
   11    10    12     1    117.200    313.800
   24    11    25     1    107.800    276.144
   10    13    28     1    117.200    313.800
   21     5    22     1    107.800    276.144
   12    10    13     1     83.000    251.040
    4     3    19     1    110.700    313.800
    9     8    10     1    120.400    669.440
   23    11    24     1    107.800    276.144
   10    12    13     1     83.000    251.040
    5     4     8     1    111.100    527.184
   18     3    19     1    107.800    276.144
    4     3    18     1    110.700    313.800
    3     2    17     1    110.700    313.800
   12    13    28     1    117.200    313.800
    2    13    10     1    117.200    313.800
   15     1    16     1    107.800    276.144
   14     1    15     1    107.800    276.144
    6     4     8     1    110.580    432.207
    3     2    13     1    112.700    488.273
   11    10    13     1    117.200    313.800
   10    13    12     1     83.000    251.040
   23    11    25     1    107.800    276.144
   20     5    21     1    107.800    276.144
   13    12    26     1    117.200    313.800
   13    12    27     1    117.200    313.800
    8    10    13     1    111.100    527.184

[ dihedrals ]
; IMPROPER DIHEDRAL ANGLES 
;  ai    aj    ak    al funct            c0            c1            c2            c3            c4            c5
    10     8     4     9    4        180.000     43.932     2  

[ dihedrals ]
; PROPER DIHEDRAL ANGLES
;  ai    aj    ak    al funct            c0            c1            c2            c3            c4            c5
    8    4    3    2        3      -4.960   6.286   1.310  -2.636  -0.000   0.000
    8    4    6    7        3       0.000   0.000   0.000  -0.000  -0.000   0.000
    8   10   13    2        3       0.000   0.000   0.000  -0.000  -0.000   0.000
    4    3    2    1        3       2.301  -1.464   0.837  -1.674  -0.000   0.000
    5    4    3    2        3       2.301  -1.464   0.837  -1.674  -0.000   0.000
   11   10    8    4        3       0.818  -7.906   0.602   6.485  -0.000   0.000
   11   10    8    9        3       0.000   0.000   0.000  -0.000  -0.000   0.000
   11   10   13    2        3       0.000   0.000   0.000  -0.000  -0.000   0.000
   10    8    4    3        3       0.000   0.000   0.000  -0.000  -0.000   0.000
   10    8    4    5        3       0.000   0.000   0.000  -0.000  -0.000   0.000
   10    8    4    6        3       0.000   0.000   0.000  -0.000  -0.000   0.000
   13    2    3    4        3       2.301  -1.464   0.837  -1.674  -0.000   0.000
   13   10    8    4        3       0.000   0.000   0.000  -0.000  -0.000   0.000
   12   10    8    4        3       0.000   0.000   0.000  -0.000  -0.000   0.000
   12   10    8    9        3       0.000   0.000   0.000  -0.000  -0.000   0.000
   13   10    8    9        3       0.000   0.000   0.000  -0.000  -0.000   0.000
   10   13    2    1        3       0.000   0.000   0.000  -0.000  -0.000   0.000
   12   13    2    1        3       0.000   0.000   0.000  -0.000  -0.000   0.000
   10   13    2    3        3       0.000   0.000   0.000  -0.000  -0.000   0.000
   12   13    2    3        3       0.000   0.000   0.000  -0.000  -0.000   0.000
    6    4    3    2        3      -2.720   0.000   2.720  -0.000  -0.000   0.000
   19    3    4    8        3      -0.209  -0.628   0.000   0.837  -0.000   0.000
   21    5    4    8        3      -0.209  -0.628   0.000   0.837  -0.000   0.000
   20    5    4    8        3      -0.209  -0.628   0.000   0.837  -0.000   0.000
   22    5    4    8        3      -0.209  -0.628   0.000   0.837  -0.000   0.000
   18    3    4    8        3      -0.209  -0.628   0.000   0.837  -0.000   0.000
   20    5    4    3        3       0.628   1.883   0.000  -2.510  -0.000   0.000
   18    3    2    1        3       0.628   1.883   0.000  -2.510  -0.000   0.000
   19    3    2    1        3       0.628   1.883   0.000  -2.510  -0.000   0.000
   18    3    4    5        3       0.628   1.883   0.000  -2.510  -0.000   0.000
   14    1    2    3        3       0.628   1.883   0.000  -2.510  -0.000   0.000
   15    1    2    3        3       0.628   1.883   0.000  -2.510  -0.000   0.000
   17    2    3    4        3       0.628   1.883   0.000  -2.510  -0.000   0.000
   19    3    4    5        3       0.628   1.883   0.000  -2.510  -0.000   0.000
   21    5    4    3        3       0.628   1.883   0.000  -2.510  -0.000   0.000
   16    1    2    3        3       0.628   1.883   0.000  -2.510  -0.000   0.000
   22    5    4    3        3       0.628   1.883   0.000  -2.510  -0.000   0.000
   15    1    2   13        3       0.628   1.883   0.000  -2.510  -0.000   0.000
   18    3    2   13        3       0.628   1.883   0.000  -2.510  -0.000   0.000
   16    1    2   13        3       0.628   1.883   0.000  -2.510  -0.000   0.000
   14    1    2   13        3       0.628   1.883   0.000  -2.510  -0.000   0.000
   19    3    2   13        3       0.628   1.883   0.000  -2.510  -0.000   0.000
   20    5    4    6        3       0.766   2.297   0.000  -3.063  -0.000   0.000
   21    5    4    6        3       0.766   2.297   0.000  -3.063  -0.000   0.000
   18    3    4    6        3       0.766   2.297   0.000  -3.063  -0.000   0.000
   22    5    4    6        3       0.766   2.297   0.000  -3.063  -0.000   0.000
   19    3    4    6        3       0.766   2.297   0.000  -3.063  -0.000   0.000
   17    2    1   15        3       0.628   1.883   0.000  -2.510  -0.000   0.000
   18    3    2   17        3       0.628   1.883   0.000  -2.510  -0.000   0.000
   17    2    1   16        3       0.628   1.883   0.000  -2.510  -0.000   0.000
   17    2    1   14        3       0.628   1.883   0.000  -2.510  -0.000   0.000
   19    3    2   17        3       0.628   1.883   0.000  -2.510  -0.000   0.000
   23   11   10    8        3       0.628   1.883   0.000  -2.510  -0.000   0.000
   25   11   10    8        3       0.628   1.883   0.000  -2.510  -0.000   0.000
   24   11   10    8        3       0.628   1.883   0.000  -2.510  -0.000   0.000
   25   11   10   13        3       0.628   1.883   0.000  -2.510  -0.000   0.000
   25   11   10   12        3       0.628   1.883   0.000  -2.510  -0.000   0.000
   23   11   10   13        3       0.628   1.883   0.000  -2.510  -0.000   0.000
   24   11   10   12        3       0.628   1.883   0.000  -2.510  -0.000   0.000
   17    2   13   12        3       0.628   1.883   0.000  -2.510  -0.000   0.000
   23   11   10   12        3       0.628   1.883   0.000  -2.510  -0.000   0.000
   17    2   13   10        3       0.628   1.883   0.000  -2.510  -0.000   0.000
   24   11   10   13        3       0.628   1.883   0.000  -2.510  -0.000   0.000
   28   13    2    3        3       0.628   1.883   0.000  -2.510  -0.000   0.000
   28   13    2    1        3       0.628   1.883   0.000  -2.510  -0.000   0.000
   28   13    2   17        3       0.628   1.883   0.000  -2.510  -0.000   0.000
   26   12   10    8        3       0.000   0.000   0.000  -0.000  -0.000   0.000
   27   12   10    8        3       0.000   0.000   0.000  -0.000  -0.000   0.000
   28   13   10    8        3       0.000   0.000   0.000  -0.000  -0.000   0.000
   27   12   10   11        3       0.000   0.000   0.000  -0.000  -0.000   0.000
   28   13   10   11        3       0.000   0.000   0.000  -0.000  -0.000   0.000
   26   12   13    2        3       0.000   0.000   0.000  -0.000  -0.000   0.000
   26   12   10   11        3       0.000   0.000   0.000  -0.000  -0.000   0.000
   27   12   13    2        3       0.000   0.000   0.000  -0.000  -0.000   0.000
   28   13   10   12        3       0.000   0.000   0.000  -0.000  -0.000   0.000
   26   12   13   10        3       0.000   0.000   0.000  -0.000  -0.000   0.000
   26   12   10   13        3       0.000   0.000   0.000  -0.000  -0.000   0.000
   27   12   10   13        3       0.000   0.000   0.000  -0.000  -0.000   0.000
   27   12   13   10        3       0.000   0.000   0.000  -0.000  -0.000   0.000
   28   13   12   10        3       0.000   0.000   0.000  -0.000  -0.000   0.000
   28   13   12   27        3       0.000   0.000   0.000  -0.000  -0.000   0.000
   28   13   12   26        3       0.000   0.000   0.000  -0.000  -0.000   0.000
    7    6    4    3        3       0.000   0.000   0.000  -0.000  -0.000   0.000
    7    6    4    5        3       0.000   0.000   0.000  -0.000  -0.000   0.000
    9    8    4    3        3       0.000   0.000   0.000  -0.000  -0.000   0.000
    9    8    4    5        3       0.000   0.000   0.000  -0.000  -0.000   0.000
    9    8    4    6        3       0.000   0.000   0.000  -0.000  -0.000   0.000

[ pairs ]
     1     4    1
     2     5    1
     2     6    1
     3     7    1
     2     8    1
     1    10    1
     5     7    1
     3     9    1
     3    10    1
     2    11    1
     1    12    1
     5     9    1
     7     8    1
     6     9    1
     5    10    1
     4    11    1
     3    12    1
     6    10    1
     4    12    1
     4    13    1
     3    14    1
     3    15    1
     3    16    1
     1    18    1
     9    11    1
     1    19    1
     9    12    1
     4    17    1
     9    13    1
     5    18    1
     3    20    1
     6    18    1
     5    19    1
     3    21    1
     6    19    1
     3    22    1
     8    18    1
     6    20    1
    13    14    1
    10    17    1
     8    19    1
     6    21    1
    13    15    1
     8    20    1
     6    22    1
     2    26    1
    13    16    1
    12    17    1
     8    21    1
     2    27    1
     1    28    1
     8    22    1
    14    17    1
    13    18    1
     8    23    1
     3    28    1
    15    17    1
    13    19    1
     8    24    1
    16    17    1
     8    25    1
     8    26    1
    17    18    1
    12    23    1
     8    27    1
    17    19    1
    13    23    1
    12    24    1
     8    28    1
    13    24    1
    12    25    1
    11    26    1
    13    25    1
    11    27    1
    11    28    1
    17    28    1
    26    28    1
    27    28    1

