LIGPARGEN GENERATED GRO FILE
   37
    1UNK    C00    1   0.100   0.100   0.000
    1UNK    C01    2  -0.052   0.100   0.000
    1UNK    C02    3  -0.112   0.100   0.140
    1UNK    C03    4  -0.258   0.142   0.117
    1UNK    C04    5  -0.343   0.021   0.078
    1UNK    C05    6  -0.245   0.253   0.009
    1UNK    C06    7  -0.362   0.271  -0.087
    1UNK    C07    8  -0.491   0.317  -0.018
    1UNK    C08    9  -0.608   0.326  -0.116
    1UNK    O09   10  -0.591   0.308  -0.237
    1UNK    N0A   11  -0.733   0.354  -0.062
    1UNK    C0B   12  -0.762   0.376   0.079
    1UNK    C0C   13  -0.847   0.363  -0.152
    1UNK    C0D   14  -0.113   0.224  -0.066
    1UNK    H0E   15   0.138   0.008   0.046
    1UNK    H0F   16   0.140   0.185   0.056
    1UNK    H0G   17   0.139   0.105  -0.102
    1UNK    H0H   18  -0.086   0.011  -0.054
    1UNK    H0I   19  -0.062   0.174   0.204
    1UNK    H0J   20  -0.103   0.002   0.189
    1UNK    H0K   21  -0.299   0.184   0.209
    1UNK    H0M   22  -0.311  -0.024  -0.017
    1UNK    H0N   23  -0.449   0.046   0.069
    1UNK    H0O   24  -0.335  -0.057   0.155
    1UNK    H0P   25  -0.230   0.348   0.062
    1UNK    H0Q   26  -0.380   0.179  -0.144
    1UNK    H0R   27  -0.335   0.347  -0.162
    1UNK    H0S   28  -0.476   0.416   0.026
    1UNK    H0T   29  -0.518   0.246   0.061
    1UNK    H0U   30  -0.673   0.368   0.142
    1UNK    H0V   31  -0.835   0.302   0.111
    1UNK    H0W   32  -0.804   0.476   0.090
    1UNK    H0X   33  -0.820   0.346  -0.257
    1UNK    H0Y   34  -0.890   0.464  -0.144
    1UNK    H0Z   35  -0.921   0.289  -0.122
    1UNK    H10   36  -0.046   0.310  -0.056
    1UNK    H11   37  -0.128   0.207  -0.173
   1.00000   1.00000   1.00000

