
;
; GENERATED BY LigParGen Server
; Jorgensen Lab @ Yale University 
;
[ atomtypes ]
  opls_818  H818     1.0080     0.000    A    2.50000E-01   1.25520E-01
  opls_805  C805    12.0110     0.000    A    3.45000E-01   3.47272E-01
  opls_824  H824     1.0080     0.000    A    2.50000E-01   1.25520E-01
  opls_808  O808    15.9990     0.000    A    2.96000E-01   8.78640E-01
  opls_810  C810    12.0110     0.000    A    3.45000E-01   3.47272E-01
  opls_813  H813     1.0080     0.000    A    2.50000E-01   1.25520E-01
  opls_803  O803    15.9990     0.000    A    2.96000E-01   8.78640E-01
  opls_815  H815     1.0080     0.000    A    2.50000E-01   1.25520E-01
  opls_801  C801    12.0110     0.000    A    3.50000E-01   2.76144E-01
  opls_822  H822     1.0080     0.000    A    2.50000E-01   1.25520E-01
  opls_825  H825     1.0080     0.000    A    2.50000E-01   1.25520E-01
  opls_826  H826     1.0080     0.000    A    2.50000E-01   1.25520E-01
  opls_814  H814     1.0080     0.000    A    2.50000E-01   1.25520E-01
  opls_821  H821     1.0080     0.000    A    2.50000E-01   1.25520E-01
  opls_820  H820     1.0080     0.000    A    2.50000E-01   1.25520E-01
  opls_806  O806    15.9990     0.000    A    2.90000E-01   5.85760E-01
  opls_807  C807    12.0110     0.000    A    3.75000E-01   4.39320E-01
  opls_816  H816     1.0080     0.000    A    2.50000E-01   1.25520E-01
  opls_800  C800    12.0110     0.000    A    3.50000E-01   2.76144E-01
  opls_823  H823     1.0080     0.000    A    2.50000E-01   1.25520E-01
  opls_802  C802    12.0110     0.000    A    3.55000E-01   2.92880E-01
  opls_811  C811    12.0110     0.000    A    3.45000E-01   3.47272E-01
  opls_819  H819     1.0080     0.000    A    2.50000E-01   1.25520E-01
  opls_804  C804    12.0110     0.000    A    3.50000E-01   2.76144E-01
  opls_817  H817     1.0080     0.000    A    2.50000E-01   1.25520E-01
  opls_809  C809    12.0110     0.000    A    3.45000E-01   3.47272E-01
  opls_812  C812    12.0110     0.000    A    3.45000E-01   3.47272E-01
[ moleculetype ]
; Name               nrexcl
UNK                   3
[ atoms ]
;   nr       type  resnr residue  atom   cgnr     charge       mass  
     1   opls_800      1    UNK   C00      1    -0.2327    12.0110 
     2   opls_801      1    UNK   C01      1      -0.23    12.0110 
     3   opls_802      1    UNK   C02      1     0.3736    12.0110 
     4   opls_803      1    UNK   O03      1    -0.4406    15.9990 
     5   opls_804      1    UNK   C04      1    -0.2514    12.0110 
     6   opls_805      1    UNK   C05      1     0.0731    12.0110 
     7   opls_806      1    UNK   O06      1    -0.3481    15.9990 
     8   opls_807      1    UNK   C07      1     0.4409    12.0110 
     9   opls_808      1    UNK   O08      1    -0.3619    15.9990 
    10   opls_809      1    UNK   C09      1    -0.1634    12.0110 
    11   opls_810      1    UNK   C0A      1    -0.1916    12.0110 
    12   opls_811      1    UNK   C0B      1    -0.2107    12.0110 
    13   opls_812      1    UNK   C0C      1    -0.2349    12.0110 
    14   opls_813      1    UNK   H0D      1     0.0931     1.0080 
    15   opls_814      1    UNK   H0E      1     0.0931     1.0080 
    16   opls_815      1    UNK   H0F      1     0.0931     1.0080 
    17   opls_816      1    UNK   H0G      1     0.1276     1.0080 
    18   opls_817      1    UNK   H0H      1     0.1276     1.0080 
    19   opls_818      1    UNK   H0I      1     0.1309     1.0080 
    20   opls_819      1    UNK   H0J      1     0.1309     1.0080 
    21   opls_820      1    UNK   H0K      1     0.1553     1.0080 
    22   opls_821      1    UNK   H0M      1     0.1539     1.0080 
    23   opls_822      1    UNK   H0N      1     0.1385     1.0080 
    24   opls_823      1    UNK   H0O      1     0.1372     1.0080 
    25   opls_824      1    UNK   H0P      1     0.1372     1.0080 
    26   opls_825      1    UNK   H0Q      1     0.1299     1.0080 
    27   opls_826      1    UNK   H0R      1     0.1299     1.0080 
[ bonds ]
    2     1     1      0.1529 224262.400
    3     2     1      0.1522 265265.600
    4     3     1      0.1229 476976.000
    5     3     1      0.1522 265265.600
    6     5     1      0.1510 234304.000
    7     6     1      0.1410 267776.000
    8     7     1      0.1327 179075.200
    9     8     1      0.1229 476976.000
   10     6     1      0.1520 217568.000
   11    10     1      0.1520 217568.000
   12    11     1      0.1520 217568.000
   13    11     1      0.1520 217568.000
   14     1     1      0.1090 284512.000
   15     1     1      0.1090 284512.000
   16     1     1      0.1090 284512.000
   17     2     1      0.1090 284512.000
   18     2     1      0.1090 284512.000
   19     5     1      0.1090 284512.000
   20     5     1      0.1090 284512.000
   21     6     1      0.1088 284512.000
   22    10     1      0.1088 284512.000
   23    11     1      0.1088 284512.000
   24    12     1      0.1088 284512.000
   25    12     1      0.1088 284512.000
   26    13     1      0.1088 284512.000
   27    13     1      0.1088 284512.000
   10     8     1      0.1522 265265.600
   13    12     1      0.1520 217568.000

[ angles ]
;  ai    aj    ak funct            c0            c1            c2            c3 
    1     2     3     1    111.100    527.184
    2     3     4     1    120.400    669.440
    2     3     5     1    116.000    585.760
    3     5     6     1    111.100    527.184
    5     6     7     1    117.200    313.800
    6     7     8     1    116.900    694.544
    7     8     9     1    123.400    694.544
    5     6    10     1    117.200    313.800
    6    10    11     1     83.000    251.040
   10    11    12     1     83.000    251.040
   10    11    13     1     83.000    251.040
    2     1    14     1    110.700    313.800
    2     1    15     1    110.700    313.800
    2     1    16     1    110.700    313.800
    1     2    17     1    110.700    313.800
    1     2    18     1    110.700    313.800
    3     5    19     1    109.500    292.880
    3     5    20     1    109.500    292.880
    5     6    21     1    114.300    292.880
    6    10    22     1    117.200    313.800
   10    11    23     1    117.200    313.800
   11    12    24     1    117.200    313.800
   11    12    25     1    117.200    313.800
   11    13    26     1    117.200    313.800
   11    13    27     1    117.200    313.800
   10     6    21     1    117.200    313.800
   12    13    26     1    117.200    313.800
   17     2    18     1    107.800    276.144
    3     2    18     1    109.500    292.880
    6     5    19     1    110.700    313.800
    3     2    17     1    109.500    292.880
   14     1    15     1    107.800    276.144
    6    10     8     1     85.000    527.184
    4     3     5     1    120.400    669.440
    8    10    11     1     85.000    527.184
    8    10    22     1    110.000    313.800
   19     5    20     1    107.800    276.144
   26    13    27     1    114.300    292.880
   15     1    16     1    107.800    276.144
    6     5    20     1    110.700    313.800
    7     8    10     1    111.400    677.808
   13    11    23     1    117.200    313.800
   11    10    22     1    117.200    313.800
    7     6    10     1     90.000    418.400
   24    12    25     1    114.300    292.880
   12    11    13     1     83.000    251.040
   13    12    25     1    117.200    313.800
   12    11    23     1    117.200    313.800
   14     1    16     1    107.800    276.144
   12    13    27     1    117.200    313.800
   13    12    24     1    117.200    313.800
   11    12    13     1     83.000    251.040
    9     8    10     1    134.000    669.440
    7     6    21     1    117.200    313.800
   11    13    12     1     83.000    251.040

[ dihedrals ]
; IMPROPER DIHEDRAL ANGLES 
;  ai    aj    ak    al funct            c0            c1            c2            c3            c4            c5
     5     3     2     4    4        180.000     43.932     2  
    10     8     7     6    4          0.000      4.812     1  
    10     8     7     6    4        180.000     12.738     2  
     9     8    10     7    4        180.000     10.460     2  

[ dihedrals ]
; PROPER DIHEDRAL ANGLES
;  ai    aj    ak    al funct            c0            c1            c2            c3            c4            c5
    8   10    6    5        3       0.000   0.000   0.000  -0.000  -0.000   0.000
    8    7    6    5        3       1.715   2.845   1.046  -5.607  -0.000   0.000
    5    3    2    1        3       0.818  -7.906   0.602   6.485  -0.000   0.000
    6    5    3    2        3       0.818  -7.906   0.602   6.485  -0.000   0.000
    6    5    3    4        3       0.000   0.000   0.000  -0.000  -0.000   0.000
   11   10    8    9        3       0.000   0.000   0.000  -0.000  -0.000   0.000
   11   10    8    7        3       0.000   0.000   0.000  -0.000  -0.000   0.000
   10    6    5    3        3      -4.960   6.286   1.310  -2.636  -0.000   0.000
   12   11   10    8        3       0.000   0.000   0.000  -0.000  -0.000   0.000
   13   11   10    8        3       0.000   0.000   0.000  -0.000  -0.000   0.000
   11   10    6    5        3       0.000   0.000   0.000  -0.000  -0.000   0.000
   13   11   10    6        3       0.000   0.000   0.000  -0.000  -0.000   0.000
   13   11   10   12        3       0.000   0.000   0.000  -0.000  -0.000   0.000
   12   11   10    6        3       0.000   0.000   0.000  -0.000  -0.000   0.000
   11   10    6    7        3       0.000   0.000   0.000  -0.000  -0.000   0.000
   18    2    3    5        3       0.575   1.726   0.000  -2.301  -0.000   0.000
   19    5    3    2        3       0.575   1.726   0.000  -2.301  -0.000   0.000
   20    5    3    2        3       0.575   1.726   0.000  -2.301  -0.000   0.000
   17    2    3    5        3       0.575   1.726   0.000  -2.301  -0.000   0.000
   17    2    3    4        3       0.000   0.000   0.000  -0.000  -0.000   0.000
   18    2    3    4        3       0.000   0.000   0.000  -0.000  -0.000   0.000
   20    5    3    4        3       0.000   0.000   0.000  -0.000  -0.000   0.000
   19    5    3    4        3       0.000   0.000   0.000  -0.000  -0.000   0.000
   14    1    2    3        3      -0.209  -0.628   0.000   0.837  -0.000   0.000
   16    1    2    3        3      -0.209  -0.628   0.000   0.837  -0.000   0.000
   15    1    2    3        3      -0.209  -0.628   0.000   0.837  -0.000   0.000
   17    2    1   14        3       0.628   1.883   0.000  -2.510  -0.000   0.000
   18    2    1   14        3       0.628   1.883   0.000  -2.510  -0.000   0.000
   17    2    1   16        3       0.628   1.883   0.000  -2.510  -0.000   0.000
   18    2    1   16        3       0.628   1.883   0.000  -2.510  -0.000   0.000
   18    2    1   15        3       0.628   1.883   0.000  -2.510  -0.000   0.000
   17    2    1   15        3       0.628   1.883   0.000  -2.510  -0.000   0.000
   19    5    6   10        3       0.628   1.883   0.000  -2.510  -0.000   0.000
   20    5    6   10        3       0.628   1.883   0.000  -2.510  -0.000   0.000
   19    5    6    7        3       0.979   2.937   0.000  -3.916  -0.000   0.000
   20    5    6    7        3       0.979   2.937   0.000  -3.916  -0.000   0.000
   22   10    8    9        3       0.000   0.000   0.000  -0.000  -0.000   0.000
   22   10    8    7        3       0.000   0.000   0.000  -0.000  -0.000   0.000
   21    6    5    3        3      -0.209  -0.628   0.000   0.837  -0.000   0.000
   21    6    5   20        3       0.628   1.883   0.000  -2.510  -0.000   0.000
   21    6    5   19        3       0.628   1.883   0.000  -2.510  -0.000   0.000
   23   11   10    8        3       0.000   0.000   0.000  -0.000  -0.000   0.000
   21    6   10    8        3       0.000   0.000   0.000  -0.000  -0.000   0.000
   22   10    6    5        3       0.000   0.000   0.000  -0.000  -0.000   0.000
   22   10   11   13        3       0.000   0.000   0.000  -0.000  -0.000   0.000
   26   13   12   11        3       0.000   0.000   0.000  -0.000  -0.000   0.000
   21    6   10   11        3       0.000   0.000   0.000  -0.000  -0.000   0.000
   27   13   11   12        3       0.000   0.000   0.000  -0.000  -0.000   0.000
   26   13   11   12        3       0.000   0.000   0.000  -0.000  -0.000   0.000
   25   12   11   13        3       0.000   0.000   0.000  -0.000  -0.000   0.000
   24   12   11   13        3       0.000   0.000   0.000  -0.000  -0.000   0.000
   23   11   12   13        3       0.000   0.000   0.000  -0.000  -0.000   0.000
   27   13   11   10        3       0.000   0.000   0.000  -0.000  -0.000   0.000
   24   12   11   10        3       0.000   0.000   0.000  -0.000  -0.000   0.000
   27   13   12   11        3       0.000   0.000   0.000  -0.000  -0.000   0.000
   25   12   11   10        3       0.000   0.000   0.000  -0.000  -0.000   0.000
   25   12   13   11        3       0.000   0.000   0.000  -0.000  -0.000   0.000
   23   11   13   12        3       0.000   0.000   0.000  -0.000  -0.000   0.000
   26   13   11   10        3       0.000   0.000   0.000  -0.000  -0.000   0.000
   23   11   10    6        3       0.000   0.000   0.000  -0.000  -0.000   0.000
   22   10   11   12        3       0.000   0.000   0.000  -0.000  -0.000   0.000
   24   12   13   11        3       0.000   0.000   0.000  -0.000  -0.000   0.000
   26   13   12   24        3       0.000   0.000   0.000  -0.000  -0.000   0.000
   24   12   11   23        3       0.000   0.000   0.000  -0.000  -0.000   0.000
   23   11   10   22        3       0.000   0.000   0.000  -0.000  -0.000   0.000
   27   13   12   24        3       0.000   0.000   0.000  -0.000  -0.000   0.000
   22   10    6   21        3       0.000   0.000   0.000  -0.000  -0.000   0.000
   26   13   11   23        3       0.000   0.000   0.000  -0.000  -0.000   0.000
   27   13   11   23        3       0.000   0.000   0.000  -0.000  -0.000   0.000
   25   12   11   23        3       0.000   0.000   0.000  -0.000  -0.000   0.000
   27   13   12   25        3       0.000   0.000   0.000  -0.000  -0.000   0.000
   26   13   12   25        3       0.000   0.000   0.000  -0.000  -0.000   0.000
   22   10    6    7        3       0.000   0.000   0.000  -0.000  -0.000   0.000
   21    6    7    8        3       0.000   0.000   0.000  -0.000  -0.000   0.000
    7    6    5    3        3      -12.929  12.929   0.000  -0.000  -0.000   0.000
    9    8   10    6        3       0.000   0.000   0.000  -0.000  -0.000   0.000
    9    8    7    6        3      83.680   0.000  -83.680  -0.000  -0.000   0.000
    4    3    2    1        3       0.000   0.000   0.000  -0.000  -0.000   0.000

[ pairs ]
     1     4    1
     1     5    1
     2     6    1
     4     6    1
     3     7    1
     5     8    1
     3    10    1
     6     9    1
     5    11    1
     3    14    1
     7    11    1
     6    12    1
     3    15    1
     6    13    1
     3    16    1
     9    11    1
     8    12    1
     8    13    1
     4    17    1
     2    19    1
     5    17    1
     4    18    1
     2    20    1
     5    18    1
     4    19    1
     4    20    1
     3    21    1
     7    19    1
     7    20    1
     5    22    1
    10    19    1
     8    21    1
     7    22    1
     6    23    1
    10    20    1
    14    17    1
     9    22    1
     8    23    1
    15    17    1
    14    18    1
    11    21    1
    16    17    1
    15    18    1
    16    18    1
    12    22    1
    10    24    1
    13    22    1
    10    25    1
    10    26    1
    10    27    1
    19    21    1
    20    21    1
    21    22    1
    22    23    1
    23    24    1
    23    25    1
    23    26    1
    24    26    1
    23    27    1
    25    26    1
    24    27    1
    25    27    1

