
;
; GENERATED BY LigParGen Server
; Jorgensen Lab @ Yale University 
;
[ atomtypes ]
  opls_818  H818     1.0080     0.000    A    2.50000E-01   1.25520E-01
  opls_810  C810    12.0110     0.000    A    3.45000E-01   3.47272E-01
  opls_824  H824     1.0080     0.000    A    2.50000E-01   1.25520E-01
  opls_828  H828     1.0080     0.000    A    2.50000E-01   1.25520E-01
  opls_801  O801    15.9990     0.000    A    2.90000E-01   5.85760E-01
  opls_802  C802    12.0110     0.000    A    3.50000E-01   2.76144E-01
  opls_815  H815     1.0080     0.000    A    2.50000E-01   1.25520E-01
  opls_809  C809    12.0110     0.000    A    3.50000E-01   2.76144E-01
  opls_830  H830     1.0080     0.000    A    2.50000E-01   1.25520E-01
  opls_822  H822     1.0080     0.000    A    2.50000E-01   1.25520E-01
  opls_803  C803    12.0110     0.000    A    3.50000E-01   2.76144E-01
  opls_825  H825     1.0080     0.000    A    2.50000E-01   1.25520E-01
  opls_826  H826     1.0080     0.000    A    2.50000E-01   1.25520E-01
  opls_814  H814     1.0080     0.000    A    2.50000E-01   1.25520E-01
  opls_821  H821     1.0080     0.000    A    2.50000E-01   1.25520E-01
  opls_820  H820     1.0080     0.000    A    2.50000E-01   1.25520E-01
  opls_829  H829     1.0080     0.000    A    2.50000E-01   1.25520E-01
  opls_831  H831     1.0080     0.000    A    2.50000E-01   1.25520E-01
  opls_804  C804    12.0110     0.000    A    3.55000E-01   2.92880E-01
  opls_816  H816     1.0080     0.000    A    2.50000E-01   1.25520E-01
  opls_800  C800    12.0110     0.000    A    3.50000E-01   2.76144E-01
  opls_823  H823     1.0080     0.000    A    2.50000E-01   1.25520E-01
  opls_813  C813    12.0110     0.000    A    3.50000E-01   2.76144E-01
  opls_811  C811    12.0110     0.000    A    3.45000E-01   3.47272E-01
  opls_819  H819     1.0080     0.000    A    2.50000E-01   1.25520E-01
  opls_805  C805    12.0110     0.000    A    3.50000E-01   2.76144E-01
  opls_827  H827     1.0080     0.000    A    2.50000E-01   1.25520E-01
  opls_808  C808    12.0110     0.000    A    3.50000E-01   2.76144E-01
  opls_806  O806    15.9990     0.000    A    2.96000E-01   8.78640E-01
  opls_817  H817     1.0080     0.000    A    2.50000E-01   1.25520E-01
  opls_812  C812    12.0110     0.000    A    3.45000E-01   3.47272E-01
  opls_807  C807    12.0110     0.000    A    3.50000E-01   2.76144E-01
[ moleculetype ]
; Name               nrexcl
UNK                   3
[ atoms ]
;   nr       type  resnr residue  atom   cgnr     charge       mass  
     1   opls_800      1    UNK   C00      1    -0.0525    12.0110 
     2   opls_801      1    UNK   O01      1      -0.38    15.9990 
     3   opls_802      1    UNK   C02      1     0.1302    12.0110 
     4   opls_803      1    UNK   C03      1    -0.2088    12.0110 
     5   opls_804      1    UNK   C04      1     0.3886    12.0110 
     6   opls_805      1    UNK   C05      1    -0.2917    12.0110 
     7   opls_806      1    UNK   O06      1    -0.4615    15.9990 
     8   opls_807      1    UNK   C07      1    -0.1058    12.0110 
     9   opls_808      1    UNK   C08      1    -0.1775    12.0110 
    10   opls_809      1    UNK   C09      1    -0.1256    12.0110 
    11   opls_810      1    UNK   C0A      1     -0.231    12.0110 
    12   opls_811      1    UNK   C0B      1    -0.1144    12.0110 
    13   opls_812      1    UNK   C0C      1     -0.233    12.0110 
    14   opls_813      1    UNK   C0D      1    -0.1124    12.0110 
    15   opls_814      1    UNK   H0E      1     0.0873     1.0080 
    16   opls_815      1    UNK   H0F      1     0.0873     1.0080 
    17   opls_816      1    UNK   H0G      1     0.0873     1.0080 
    18   opls_817      1    UNK   H0H      1     0.1252     1.0080 
    19   opls_818      1    UNK   H0I      1     0.1266     1.0080 
    20   opls_819      1    UNK   H0J      1     0.1174     1.0080 
    21   opls_820      1    UNK   H0K      1     0.1174     1.0080 
    22   opls_821      1    UNK   H0M      1     0.1174     1.0080 
    23   opls_822      1    UNK   H0N      1     0.1373     1.0080 
    24   opls_823      1    UNK   H0O      1     0.0943     1.0080 
    25   opls_824      1    UNK   H0P      1     0.0943     1.0080 
    26   opls_825      1    UNK   H0Q      1     0.0912     1.0080 
    27   opls_826      1    UNK   H0R      1     0.0912     1.0080 
    28   opls_827      1    UNK   H0S      1     0.1301     1.0080 
    29   opls_828      1    UNK   H0T      1     0.1323     1.0080 
    30   opls_829      1    UNK   H0U      1     0.1323     1.0080 
    31   opls_830      1    UNK   H0V      1     0.1032     1.0080 
    32   opls_831      1    UNK   H0W      1     0.1032     1.0080 
[ bonds ]
    2     1     1      0.1410 267776.000
    3     2     1      0.1410 267776.000
    4     3     1      0.1529 224262.400
    5     4     1      0.1522 265265.600
    6     5     1      0.1522 265265.600
    7     5     1      0.1229 476976.000
    8     4     1      0.1529 224262.400
    9     8     1      0.1529 224262.400
   10     9     1      0.1529 224262.400
   11    10     1      0.1510 234304.000
   12    11     1      0.1520 217568.000
   13     3     1      0.1510 234304.000
   14     8     1      0.1529 224262.400
   15     1     1      0.1090 284512.000
   16     1     1      0.1090 284512.000
   17     1     1      0.1090 284512.000
   18     3     1      0.1090 284512.000
   19     4     1      0.1090 284512.000
   20     6     1      0.1090 284512.000
   21     6     1      0.1090 284512.000
   22     6     1      0.1090 284512.000
   23     8     1      0.1090 284512.000
   24     9     1      0.1090 284512.000
   25     9     1      0.1090 284512.000
   26    10     1      0.1090 284512.000
   27    10     1      0.1090 284512.000
   28    11     1      0.1088 284512.000
   29    12     1      0.1088 284512.000
   30    12     1      0.1088 284512.000
   31    14     1      0.1090 284512.000
   32    14     1      0.1090 284512.000
   13    11     1      0.1520 217568.000
   13    12     1      0.1520 217568.000
   14    13     1      0.1510 234304.000

[ angles ]
;  ai    aj    ak funct            c0            c1            c2            c3 
    1     2     3     1    109.500    502.080
    2     3     4     1    109.500    418.400
    3     4     5     1    111.100    527.184
    4     5     6     1    116.000    585.760
    4     5     7     1    120.400    669.440
    3     4     8     1    112.700    488.273
    4     8     9     1    112.700    488.273
    8     9    10     1    112.700    488.273
    9    10    11     1    112.700    488.273
   10    11    12     1    117.200    313.800
    2     3    13     1    109.500    418.400
    4     8    14     1    112.700    488.273
    2     1    15     1    109.500    292.880
    2     1    16     1    109.500    292.880
    2     1    17     1    109.500    292.880
    2     3    18     1    109.500    292.880
    3     4    19     1    110.700    313.800
    5     6    20     1    109.500    292.880
    5     6    21     1    109.500    292.880
    5     6    22     1    109.500    292.880
    4     8    23     1    110.700    313.800
    8     9    24     1    110.700    313.800
    8     9    25     1    110.700    313.800
    9    10    26     1    110.700    313.800
    9    10    27     1    110.700    313.800
   10    11    28     1    114.300    292.880
   11    12    29     1    117.200    313.800
   11    12    30     1    117.200    313.800
    8    14    31     1    110.700    313.800
    8    14    32     1    110.700    313.800
    3    13    11     1    117.200    313.800
   26    10    27     1    107.800    276.144
   24     9    25     1    107.800    276.144
    8    14    13     1    112.700    488.273
   11    10    27     1    110.700    313.800
   12    11    28     1    117.200    313.800
   11    12    13     1     83.000    251.040
   20     6    21     1    107.800    276.144
   29    12    30     1    114.300    292.880
   21     6    22     1    107.800    276.144
   31    14    32     1    107.800    276.144
   13     3    18     1    110.700    313.800
    9     8    23     1    110.700    313.800
   13    12    29     1    117.200    313.800
   11    13    14     1    117.200    313.800
   13    14    32     1    110.700    313.800
   12    13    14     1    117.200    313.800
   14     8    23     1    110.700    313.800
   15     1    16     1    107.800    276.144
   13    11    28     1    117.200    313.800
    5     4     8     1    111.100    527.184
    4     3    18     1    110.700    313.800
    6     5     7     1    120.400    669.440
   13    12    30     1    117.200    313.800
    5     4    19     1    109.500    292.880
   10     9    25     1    110.700    313.800
   20     6    22     1    107.800    276.144
   11    13    12     1     83.000    251.040
    9     8    14     1    112.700    488.273
   11    10    26     1    110.700    313.800
   15     1    17     1    107.800    276.144
   16     1    17     1    107.800    276.144
   12    11    13     1     83.000    251.040
   10     9    24     1    110.700    313.800
    3    13    14     1    114.300    292.880
   13    14    31     1    110.700    313.800
    8     4    19     1    110.700    313.800
   10    11    13     1    117.200    313.800
    4     3    13     1    112.700    488.273
    3    13    12     1    117.200    313.800

[ dihedrals ]
; IMPROPER DIHEDRAL ANGLES 
;  ai    aj    ak    al funct            c0            c1            c2            c3            c4            c5
     7     5     4     6    4        180.000     43.932     2  

[ dihedrals ]
; PROPER DIHEDRAL ANGLES
;  ai    aj    ak    al funct            c0            c1            c2            c3            c4            c5
    5    4    3    2        3      -12.929  12.929   0.000  -0.000  -0.000   0.000
    6    5    4    3        3       0.818  -7.906   0.602   6.485  -0.000   0.000
    8    4    5    6        3       0.818  -7.906   0.602   6.485  -0.000   0.000
    8    4    5    7        3       0.000   0.000   0.000  -0.000  -0.000   0.000
    9    8    4    5        3      -4.960   6.286   1.310  -2.636  -0.000   0.000
   14    8    4    5        3      -4.960   6.286   1.310  -2.636  -0.000   0.000
    9    8    4    3        3       2.301  -1.464   0.837  -1.674  -0.000   0.000
   10    9    8    4        3       2.301  -1.464   0.837  -1.674  -0.000   0.000
   14    8    4    3        3       2.301  -1.464   0.837  -1.674  -0.000   0.000
   14    8    9   10        3       2.301  -1.464   0.837  -1.674  -0.000   0.000
    8    4    3    2        3       2.874   0.582   2.092  -5.548  -0.000   0.000
    8   14   13    3        3       2.301  -1.464   0.837  -1.674  -0.000   0.000
    4    3    2    1        3       1.715   2.845   1.046  -5.607  -0.000   0.000
   14   13    3    4        3       2.301  -1.464   0.837  -1.674  -0.000   0.000
   14   13    3    2        3       2.874   0.582   2.092  -5.548  -0.000   0.000
   10   11   13    3        3       0.000   0.000   0.000  -0.000  -0.000   0.000
   14   13   11   10        3       0.000   0.000   0.000  -0.000  -0.000   0.000
   14   13   11   12        3       0.000   0.000   0.000  -0.000  -0.000   0.000
   14   13   12   11        3       0.000   0.000   0.000  -0.000  -0.000   0.000
   13    3    4    5        3      -4.960   6.286   1.310  -2.636  -0.000   0.000
   13   14    8    9        3       2.301  -1.464   0.837  -1.674  -0.000   0.000
   11   10    9    8        3       2.301  -1.464   0.837  -1.674  -0.000   0.000
   13    3    4    8        3       2.301  -1.464   0.837  -1.674  -0.000   0.000
   13   14    8    4        3       2.301  -1.464   0.837  -1.674  -0.000   0.000
   13    3    2    1        3       1.715   2.845   1.046  -5.607  -0.000   0.000
   12   13    3    4        3       0.000   0.000   0.000  -0.000  -0.000   0.000
   13   11   10    9        3       0.000   0.000   0.000  -0.000  -0.000   0.000
   12   13   14    8        3       0.000   0.000   0.000  -0.000  -0.000   0.000
   12   11   10    9        3       0.000   0.000   0.000  -0.000  -0.000   0.000
   11   13   14    8        3       0.000   0.000   0.000  -0.000  -0.000   0.000
   11   13    3    4        3       0.000   0.000   0.000  -0.000  -0.000   0.000
   11   13    3    2        3       0.000   0.000   0.000  -0.000  -0.000   0.000
   12   13    3    2        3       0.000   0.000   0.000  -0.000  -0.000   0.000
   20    6    5    4        3       0.575   1.726   0.000  -2.301  -0.000   0.000
   21    6    5    4        3       0.575   1.726   0.000  -2.301  -0.000   0.000
   22    6    5    4        3       0.575   1.726   0.000  -2.301  -0.000   0.000
   19    4    5    6        3       0.575   1.726   0.000  -2.301  -0.000   0.000
   19    4    5    7        3       0.000   0.000   0.000  -0.000  -0.000   0.000
   21    6    5    7        3       0.000   0.000   0.000  -0.000  -0.000   0.000
   20    6    5    7        3       0.000   0.000   0.000  -0.000  -0.000   0.000
   22    6    5    7        3       0.000   0.000   0.000  -0.000  -0.000   0.000
   18    3    4    5        3      -0.209  -0.628   0.000   0.837  -0.000   0.000
   23    8    4    5        3      -0.209  -0.628   0.000   0.837  -0.000   0.000
   18    3    4    8        3       0.628   1.883   0.000  -2.510  -0.000   0.000
   19    4    8   14        3       0.628   1.883   0.000  -2.510  -0.000   0.000
   25    9    8   14        3       0.628   1.883   0.000  -2.510  -0.000   0.000
   27   10    9    8        3       0.628   1.883   0.000  -2.510  -0.000   0.000
   25    9    8    4        3       0.628   1.883   0.000  -2.510  -0.000   0.000
   32   14    8    9        3       0.628   1.883   0.000  -2.510  -0.000   0.000
   24    9    8    4        3       0.628   1.883   0.000  -2.510  -0.000   0.000
   24    9    8   14        3       0.628   1.883   0.000  -2.510  -0.000   0.000
   23    8    9   10        3       0.628   1.883   0.000  -2.510  -0.000   0.000
   31   14    8    4        3       0.628   1.883   0.000  -2.510  -0.000   0.000
   31   14    8    9        3       0.628   1.883   0.000  -2.510  -0.000   0.000
   23    8    4    3        3       0.628   1.883   0.000  -2.510  -0.000   0.000
   26   10    9    8        3       0.628   1.883   0.000  -2.510  -0.000   0.000
   19    4    8    9        3       0.628   1.883   0.000  -2.510  -0.000   0.000
   32   14    8    4        3       0.628   1.883   0.000  -2.510  -0.000   0.000
   23    8   14   13        3       0.628   1.883   0.000  -2.510  -0.000   0.000
   24    9   10   11        3       0.628   1.883   0.000  -2.510  -0.000   0.000
   19    4    3   13        3       0.628   1.883   0.000  -2.510  -0.000   0.000
   25    9   10   11        3       0.628   1.883   0.000  -2.510  -0.000   0.000
   19    4    3   18        3       0.628   1.883   0.000  -2.510  -0.000   0.000
   24    9    8   23        3       0.628   1.883   0.000  -2.510  -0.000   0.000
   25    9    8   23        3       0.628   1.883   0.000  -2.510  -0.000   0.000
   31   14    8   23        3       0.628   1.883   0.000  -2.510  -0.000   0.000
   32   14    8   23        3       0.628   1.883   0.000  -2.510  -0.000   0.000
   27   10    9   25        3       0.628   1.883   0.000  -2.510  -0.000   0.000
   26   10    9   25        3       0.628   1.883   0.000  -2.510  -0.000   0.000
   27   10    9   24        3       0.628   1.883   0.000  -2.510  -0.000   0.000
   23    8    4   19        3       0.628   1.883   0.000  -2.510  -0.000   0.000
   26   10    9   24        3       0.628   1.883   0.000  -2.510  -0.000   0.000
   19    4    3    2        3       0.979   2.937   0.000  -3.916  -0.000   0.000
   32   14   13    3        3       0.628   1.883   0.000  -2.510  -0.000   0.000
   31   14   13    3        3       0.628   1.883   0.000  -2.510  -0.000   0.000
   18    3   13   14        3       0.628   1.883   0.000  -2.510  -0.000   0.000
   27   10   11   13        3       0.628   1.883   0.000  -2.510  -0.000   0.000
   31   14   13   12        3       0.628   1.883   0.000  -2.510  -0.000   0.000
   32   14   13   11        3       0.628   1.883   0.000  -2.510  -0.000   0.000
   26   10   11   12        3       0.628   1.883   0.000  -2.510  -0.000   0.000
   18    3   13   11        3       0.628   1.883   0.000  -2.510  -0.000   0.000
   27   10   11   12        3       0.628   1.883   0.000  -2.510  -0.000   0.000
   31   14   13   11        3       0.628   1.883   0.000  -2.510  -0.000   0.000
   26   10   11   13        3       0.628   1.883   0.000  -2.510  -0.000   0.000
   32   14   13   12        3       0.628   1.883   0.000  -2.510  -0.000   0.000
   18    3   13   12        3       0.628   1.883   0.000  -2.510  -0.000   0.000
   17    1    2    3        3       1.590   4.770   0.000  -6.360  -0.000   0.000
   16    1    2    3        3       1.590   4.770   0.000  -6.360  -0.000   0.000
   18    3    2    1        3       1.590   4.770   0.000  -6.360  -0.000   0.000
   15    1    2    3        3       1.590   4.770   0.000  -6.360  -0.000   0.000
   28   11   10    9        3       0.628   1.883   0.000  -2.510  -0.000   0.000
   28   11   10   26        3       0.628   1.883   0.000  -2.510  -0.000   0.000
   28   11   10   27        3       0.628   1.883   0.000  -2.510  -0.000   0.000
   29   12   13   14        3       0.000   0.000   0.000  -0.000  -0.000   0.000
   29   12   13    3        3       0.000   0.000   0.000  -0.000  -0.000   0.000
   30   12   11   10        3       0.000   0.000   0.000  -0.000  -0.000   0.000
   28   11   13   14        3       0.000   0.000   0.000  -0.000  -0.000   0.000
   30   12   13    3        3       0.000   0.000   0.000  -0.000  -0.000   0.000
   29   12   11   10        3       0.000   0.000   0.000  -0.000  -0.000   0.000
   30   12   13   14        3       0.000   0.000   0.000  -0.000  -0.000   0.000
   28   11   13    3        3       0.000   0.000   0.000  -0.000  -0.000   0.000
   28   11   12   13        3       0.000   0.000   0.000  -0.000  -0.000   0.000
   28   11   13   12        3       0.000   0.000   0.000  -0.000  -0.000   0.000
   29   12   13   11        3       0.000   0.000   0.000  -0.000  -0.000   0.000
   30   12   11   13        3       0.000   0.000   0.000  -0.000  -0.000   0.000
   29   12   11   13        3       0.000   0.000   0.000  -0.000  -0.000   0.000
   30   12   13   11        3       0.000   0.000   0.000  -0.000  -0.000   0.000
   30   12   11   28        3       0.000   0.000   0.000  -0.000  -0.000   0.000
   29   12   11   28        3       0.000   0.000   0.000  -0.000  -0.000   0.000
    7    5    4    3        3       0.000   0.000   0.000  -0.000  -0.000   0.000

[ pairs ]
     1     4    1
     2     5    1
     3     6    1
     3     7    1
     2     8    1
     3     9    1
     3    10    1
     2    11    1
     6     8    1
     5     9    1
     4    10    1
     2    12    1
     1    13    1
     7     8    1
     4    11    1
     4    12    1
     2    14    1
     5    13    1
     3    15    1
     8    11    1
     5    14    1
     3    16    1
     1    18    1
     8    12    1
     3    17    1
     9    12    1
     2    19    1
     9    13    1
     5    18    1
    10    14    1
     4    20    1
     6    19    1
     4    21    1
     8    18    1
     7    19    1
     4    22    1
     3    23    1
     7    20    1
     9    19    1
     7    21    1
     5    23    1
     4    24    1
    11    18    1
     7    22    1
     4    25    1
    12    18    1
     3    28    1
    14    18    1
    13    19    1
     3    29    1
    14    19    1
    10    23    1
     3    30    1
     8    26    1
     3    31    1
    11    24    1
     8    27    1
     4    31    1
     3    32    1
    13    23    1
    11    25    1
     4    32    1
    18    19    1
     9    28    1
    14    24    1
    12    26    1
    14    25    1
    13    26    1
    12    27    1
    10    29    1
    13    27    1
    10    30    1
     9    31    1
     9    32    1
    19    23    1
    14    28    1
    11    31    1
    14    29    1
    12    31    1
    11    32    1
    14    30    1
    12    32    1
    23    24    1
    23    25    1
    24    26    1
    25    26    1
    24    27    1
    25    27    1
    26    28    1
    23    31    1
    27    28    1
    23    32    1
    28    29    1
    28    30    1

