LIGPARGEN GENERATED GRO FILE
   22
    1UNK    C00    1   0.100   0.100   0.000
    1UNK    C01    2  -0.052   0.100   0.000
    1UNK    C02    3  -0.107   0.100   0.143
    1UNK    C03    4  -0.259   0.106   0.146
    1UNK    F04    5  -0.309  -0.003   0.082
    1UNK    C05    6  -0.312   0.115   0.289
    1UNK    O06    7  -0.238   0.123   0.387
    1UNK    C07    8  -0.464   0.120   0.302
    1UNK    C08    9  -0.508   0.128   0.447
    1UNK    H09   10   0.138   0.100  -0.103
    1UNK    H0A   11   0.139   0.011   0.051
    1UNK    H0B   12   0.139   0.189   0.051
    1UNK    H0C   13  -0.088   0.012  -0.054
    1UNK    H0D   14  -0.088   0.188  -0.054
    1UNK    H0E   15  -0.065   0.185   0.198
    1UNK    H0F   16  -0.073   0.009   0.194
    1UNK    H0G   17  -0.294   0.195   0.092
    1UNK    H0H   18  -0.505   0.030   0.256
    1UNK    H0I   19  -0.499   0.208   0.248
    1UNK    H0J   20  -0.477   0.039   0.503
    1UNK    H0K   21  -0.617   0.136   0.453
    1UNK    H0M   22  -0.465   0.215   0.497
   1.00000   1.00000   1.00000

