LIGPARGEN GENERATED GRO FILE
   31
    1UNK    C00    1   0.100   0.100   0.000
    1UNK    C01    2  -0.052   0.100   0.000
    1UNK    C02    3  -0.119   0.100   0.138
    1UNK    C03    4  -0.082  -0.020   0.228
    1UNK    C04    5  -0.128   0.014   0.370
    1UNK    C05    6  -0.039   0.131   0.418
    1UNK    C06    7  -0.109   0.258   0.370
    1UNK    C07    8  -0.230   0.275   0.466
    1UNK    O08    9  -0.300   0.148   0.481
    1UNK    C09   10  -0.276   0.065   0.367
    1UNK    C0A   11  -0.296   0.154   0.243
    1UNK    C0B   12  -0.272   0.091   0.106
    1UNK    C0C   13  -0.162   0.232   0.226
    1UNK    H0D   14   0.136   0.079  -0.102
    1UNK    H0E   15   0.143   0.024   0.065
    1UNK    H0F   16   0.139   0.197   0.030
    1UNK    H0G   17  -0.084   0.011  -0.055
    1UNK    H0H   18  -0.086   0.186  -0.059
    1UNK    H0I   19   0.026  -0.038   0.229
    1UNK    H0J   20  -0.129  -0.112   0.193
    1UNK    H0K   21  -0.116  -0.071   0.438
    1UNK    H0M   22   0.063   0.125   0.377
    1UNK    H0N   23  -0.029   0.130   0.527
    1UNK    H0O   24  -0.044   0.346   0.375
    1UNK    H0P   25  -0.302   0.349   0.430
    1UNK    H0Q   26  -0.198   0.304   0.566
    1UNK    H0R   27  -0.347  -0.020   0.367
    1UNK    H0S   28  -0.387   0.214   0.247
    1UNK    H0T   29  -0.306   0.156   0.024
    1UNK    H0U   30  -0.314  -0.008   0.091
    1UNK    H0V   31  -0.171   0.324   0.167
   1.00000   1.00000   1.00000

