
;
; GENERATED BY LigParGen Server
; Jorgensen Lab @ Yale University 
;
[ atomtypes ]
  opls_818  H818     1.0080     0.000    A    2.50000E-01   1.25520E-01
  opls_824  H824     1.0080     0.000    A    2.50000E-01   1.25520E-01
  opls_805  C805    12.0110     0.000    A    3.50000E-01   2.76144E-01
  opls_813  H813     1.0080     0.000    A    2.50000E-01   1.25520E-01
  opls_802  C802    12.0110     0.000    A    3.50000E-01   2.76144E-01
  opls_815  H815     1.0080     0.000    A    2.50000E-01   1.25520E-01
  opls_809  C809    12.0110     0.000    A    3.50000E-01   2.76144E-01
  opls_822  H822     1.0080     0.000    A    2.50000E-01   1.25520E-01
  opls_807  C807    12.0110     0.000    A    3.50000E-01   2.76144E-01
  opls_825  H825     1.0080     0.000    A    2.50000E-01   1.25520E-01
  opls_814  H814     1.0080     0.000    A    2.50000E-01   1.25520E-01
  opls_810  O810    15.9990     0.000    A    2.96000E-01   8.78640E-01
  opls_821  H821     1.0080     0.000    A    2.50000E-01   1.25520E-01
  opls_820  H820     1.0080     0.000    A    2.50000E-01   1.25520E-01
  opls_811  H811     1.0080     0.000    A    2.50000E-01   1.25520E-01
  opls_816  H816     1.0080     0.000    A    2.50000E-01   1.25520E-01
  opls_800  C800    12.0110     0.000    A    3.50000E-01   2.76144E-01
  opls_823  H823     1.0080     0.000    A    2.50000E-01   1.25520E-01
  opls_819  H819     1.0080     0.000    A    2.50000E-01   1.25520E-01
  opls_804  C804    12.0110     0.000    A    3.50000E-01   2.76144E-01
  opls_801  C801    12.0110     0.000    A    3.50000E-01   2.76144E-01
  opls_817  H817     1.0080     0.000    A    2.50000E-01   1.25520E-01
  opls_812  H812     1.0080     0.000    A    2.50000E-01   1.25520E-01
  opls_806 Cl806    35.4500     0.000    A    3.40000E-01   1.25520E+00
  opls_808  C808    12.0110     0.000    A    3.55000E-01   2.92880E-01
  opls_803  C803    12.0110     0.000    A    3.50000E-01   2.76144E-01
[ moleculetype ]
; Name               nrexcl
UNK                   3
[ atoms ]
;   nr       type  resnr residue  atom   cgnr     charge       mass  
     1   opls_800      1    UNK   C00      1     -0.238    12.0110 
     2   opls_801      1    UNK   C01      1    -0.1764    12.0110 
     3   opls_802      1    UNK   C02      1    -0.1063    12.0110 
     4   opls_803      1    UNK   C03      1    -0.1843    12.0110 
     5   opls_804      1    UNK   C04      1    -0.1928    12.0110 
     6   opls_805      1    UNK   C05      1     0.0786    12.0110 
     7   opls_806      1    UNK   Cl0      1    -0.2627    35.4500 
     8   opls_807      1    UNK   C07      1    -0.1782    12.0110 
     9   opls_808      1    UNK   C08      1     0.3832    12.0110 
    10   opls_809      1    UNK   C09      1    -0.2921    12.0110 
    11   opls_810      1    UNK   O0A      1    -0.4521    15.9990 
    12   opls_811      1    UNK   H0B      1     0.0837     1.0080 
    13   opls_812      1    UNK   H0C      1     0.0837     1.0080 
    14   opls_813      1    UNK   H0D      1     0.0837     1.0080 
    15   opls_814      1    UNK   H0E      1     0.0991     1.0080 
    16   opls_815      1    UNK   H0F      1     0.0991     1.0080 
    17   opls_816      1    UNK   H0G      1     0.1088     1.0080 
    18   opls_817      1    UNK   H0H      1     0.1052     1.0080 
    19   opls_818      1    UNK   H0I      1     0.1052     1.0080 
    20   opls_819      1    UNK   H0J      1     0.1128     1.0080 
    21   opls_820      1    UNK   H0K      1     0.1128     1.0080 
    22   opls_821      1    UNK   H0M      1     0.1294     1.0080 
    23   opls_822      1    UNK   H0N      1     0.1386     1.0080 
    24   opls_823      1    UNK   H0O      1     0.1196     1.0080 
    25   opls_824      1    UNK   H0P      1     0.1196     1.0080 
    26   opls_825      1    UNK   H0Q      1     0.1196     1.0080 
[ bonds ]
    2     1     1      0.1529 224262.400
    3     2     1      0.1529 224262.400
    4     3     1      0.1529 224262.400
    5     4     1      0.1529 224262.400
    6     5     1      0.1529 224262.400
    7     6     1      0.1781 205016.000
    8     3     1      0.1529 224262.400
    9     8     1      0.1522 265265.600
   10     9     1      0.1522 265265.600
   11     9     1      0.1229 476976.000
   12     1     1      0.1090 284512.000
   13     1     1      0.1090 284512.000
   14     1     1      0.1090 284512.000
   15     2     1      0.1090 284512.000
   16     2     1      0.1090 284512.000
   17     3     1      0.1090 284512.000
   18     4     1      0.1090 284512.000
   19     4     1      0.1090 284512.000
   20     5     1      0.1090 284512.000
   21     5     1      0.1090 284512.000
   22     6     1      0.1090 284512.000
   23     8     1      0.1090 284512.000
   24    10     1      0.1090 284512.000
   25    10     1      0.1090 284512.000
   26    10     1      0.1090 284512.000
    8     6     1      0.1529 224262.400

[ angles ]
;  ai    aj    ak funct            c0            c1            c2            c3 
    1     2     3     1    112.700    488.273
    2     3     4     1    112.700    488.273
    3     4     5     1    112.700    488.273
    4     5     6     1    112.700    488.273
    5     6     7     1    109.800    577.392
    2     3     8     1    112.700    488.273
    3     8     9     1    111.100    527.184
    8     9    10     1    116.000    585.760
    8     9    11     1    120.400    669.440
    2     1    12     1    110.700    313.800
    2     1    13     1    110.700    313.800
    2     1    14     1    110.700    313.800
    1     2    15     1    110.700    313.800
    1     2    16     1    110.700    313.800
    2     3    17     1    110.700    313.800
    3     4    18     1    110.700    313.800
    3     4    19     1    110.700    313.800
    4     5    20     1    110.700    313.800
    4     5    21     1    110.700    313.800
    5     6    22     1    110.700    313.800
    3     8    23     1    110.700    313.800
    9    10    24     1    109.500    292.880
    9    10    25     1    109.500    292.880
    9    10    26     1    109.500    292.880
    3     2    15     1    110.700    313.800
   13     1    14     1    107.800    276.144
   15     2    16     1    107.800    276.144
    7     6    22     1    107.600    426.768
    3     8     6     1    112.700    488.273
    8     3    17     1    110.700    313.800
    9     8    23     1    109.500    292.880
    5     6     8     1    112.700    488.273
    4     3     8     1    112.700    488.273
   12     1    14     1    107.800    276.144
   24    10    25     1    107.800    276.144
    3     2    16     1    110.700    313.800
    6     8     9     1    111.100    527.184
   12     1    13     1    107.800    276.144
    6     5    20     1    110.700    313.800
    5     4    19     1    110.700    313.800
    7     6     8     1    109.800    577.392
   24    10    26     1    107.800    276.144
    6     5    21     1    110.700    313.800
   10     9    11     1    120.400    669.440
   25    10    26     1    107.800    276.144
    8     6    22     1    110.700    313.800
    6     8    23     1    110.700    313.800
    4     3    17     1    110.700    313.800
    5     4    18     1    110.700    313.800
   18     4    19     1    107.800    276.144
   20     5    21     1    107.800    276.144

[ dihedrals ]
; IMPROPER DIHEDRAL ANGLES 
;  ai    aj    ak    al funct            c0            c1            c2            c3            c4            c5
    11     9     8    10    4        180.000     43.932     2  

[ dihedrals ]
; PROPER DIHEDRAL ANGLES
;  ai    aj    ak    al funct            c0            c1            c2            c3            c4            c5
    9    8    3    2        3      -4.960   6.286   1.310  -2.636  -0.000   0.000
    9    8    6    5        3      -4.960   6.286   1.310  -2.636  -0.000   0.000
    9    8    3    4        3      -4.960   6.286   1.310  -2.636  -0.000   0.000
    9    8    6    7        3      -4.960   6.286   1.310  -2.636  -0.000   0.000
   10    9    8    3        3       0.818  -7.906   0.602   6.485  -0.000   0.000
   10    9    8    6        3       0.818  -7.906   0.602   6.485  -0.000   0.000
    8    6    5    4        3       2.301  -1.464   0.837  -1.674  -0.000   0.000
    8    3    4    5        3       2.301  -1.464   0.837  -1.674  -0.000   0.000
    6    8    3    2        3       2.301  -1.464   0.837  -1.674  -0.000   0.000
    4    3    2    1        3       2.301  -1.464   0.837  -1.674  -0.000   0.000
    5    6    8    3        3       2.301  -1.464   0.837  -1.674  -0.000   0.000
    6    5    4    3        3       2.301  -1.464   0.837  -1.674  -0.000   0.000
    5    4    3    2        3       2.301  -1.464   0.837  -1.674  -0.000   0.000
    6    8    3    4        3       2.301  -1.464   0.837  -1.674  -0.000   0.000
    8    3    2    1        3       2.301  -1.464   0.837  -1.674  -0.000   0.000
    7    6    8    3        3       0.837   2.510   0.000  -3.347  -0.000   0.000
    7    6    5    4        3       0.837   2.510   0.000  -3.347  -0.000   0.000
   25   10    9    8        3       0.575   1.726   0.000  -2.301  -0.000   0.000
   23    8    9   10        3       0.575   1.726   0.000  -2.301  -0.000   0.000
   26   10    9    8        3       0.575   1.726   0.000  -2.301  -0.000   0.000
   24   10    9    8        3       0.575   1.726   0.000  -2.301  -0.000   0.000
   23    8    9   11        3       0.000   0.000   0.000  -0.000  -0.000   0.000
   24   10    9   11        3       0.000   0.000   0.000  -0.000  -0.000   0.000
   25   10    9   11        3       0.000   0.000   0.000  -0.000  -0.000   0.000
   26   10    9   11        3       0.000   0.000   0.000  -0.000  -0.000   0.000
   17    3    8    9        3      -0.209  -0.628   0.000   0.837  -0.000   0.000
   22    6    8    9        3      -0.209  -0.628   0.000   0.837  -0.000   0.000
   23    8    6    5        3       0.628   1.883   0.000  -2.510  -0.000   0.000
   22    6    8    3        3       0.628   1.883   0.000  -2.510  -0.000   0.000
   21    5    6    8        3       0.628   1.883   0.000  -2.510  -0.000   0.000
   17    3    4    5        3       0.628   1.883   0.000  -2.510  -0.000   0.000
   17    3    2    1        3       0.628   1.883   0.000  -2.510  -0.000   0.000
   16    2    3    8        3       0.628   1.883   0.000  -2.510  -0.000   0.000
   19    4    5    6        3       0.628   1.883   0.000  -2.510  -0.000   0.000
   13    1    2    3        3       0.628   1.883   0.000  -2.510  -0.000   0.000
   19    4    3    2        3       0.628   1.883   0.000  -2.510  -0.000   0.000
   23    8    3    4        3       0.628   1.883   0.000  -2.510  -0.000   0.000
   15    2    3    4        3       0.628   1.883   0.000  -2.510  -0.000   0.000
   18    4    3    2        3       0.628   1.883   0.000  -2.510  -0.000   0.000
   17    3    8    6        3       0.628   1.883   0.000  -2.510  -0.000   0.000
   23    8    3    2        3       0.628   1.883   0.000  -2.510  -0.000   0.000
   14    1    2    3        3       0.628   1.883   0.000  -2.510  -0.000   0.000
   22    6    5    4        3       0.628   1.883   0.000  -2.510  -0.000   0.000
   15    2    3    8        3       0.628   1.883   0.000  -2.510  -0.000   0.000
   20    5    4    3        3       0.628   1.883   0.000  -2.510  -0.000   0.000
   18    4    3    8        3       0.628   1.883   0.000  -2.510  -0.000   0.000
   21    5    4    3        3       0.628   1.883   0.000  -2.510  -0.000   0.000
   12    1    2    3        3       0.628   1.883   0.000  -2.510  -0.000   0.000
   19    4    3    8        3       0.628   1.883   0.000  -2.510  -0.000   0.000
   18    4    5    6        3       0.628   1.883   0.000  -2.510  -0.000   0.000
   16    2    3    4        3       0.628   1.883   0.000  -2.510  -0.000   0.000
   20    5    6    8        3       0.628   1.883   0.000  -2.510  -0.000   0.000
   23    8    6    7        3       0.837   2.510   0.000  -3.347  -0.000   0.000
   20    5    6    7        3       0.837   2.510   0.000  -3.347  -0.000   0.000
   21    5    6    7        3       0.837   2.510   0.000  -3.347  -0.000   0.000
   21    5    4   18        3       0.628   1.883   0.000  -2.510  -0.000   0.000
   15    2    1   13        3       0.628   1.883   0.000  -2.510  -0.000   0.000
   15    2    1   12        3       0.628   1.883   0.000  -2.510  -0.000   0.000
   19    4    3   17        3       0.628   1.883   0.000  -2.510  -0.000   0.000
   17    3    2   15        3       0.628   1.883   0.000  -2.510  -0.000   0.000
   23    8    3   17        3       0.628   1.883   0.000  -2.510  -0.000   0.000
   17    3    2   16        3       0.628   1.883   0.000  -2.510  -0.000   0.000
   16    2    1   14        3       0.628   1.883   0.000  -2.510  -0.000   0.000
   22    6    5   20        3       0.628   1.883   0.000  -2.510  -0.000   0.000
   18    4    3   17        3       0.628   1.883   0.000  -2.510  -0.000   0.000
   23    8    6   22        3       0.628   1.883   0.000  -2.510  -0.000   0.000
   22    6    5   21        3       0.628   1.883   0.000  -2.510  -0.000   0.000
   20    5    4   19        3       0.628   1.883   0.000  -2.510  -0.000   0.000
   16    2    1   13        3       0.628   1.883   0.000  -2.510  -0.000   0.000
   15    2    1   14        3       0.628   1.883   0.000  -2.510  -0.000   0.000
   21    5    4   19        3       0.628   1.883   0.000  -2.510  -0.000   0.000
   20    5    4   18        3       0.628   1.883   0.000  -2.510  -0.000   0.000
   16    2    1   12        3       0.628   1.883   0.000  -2.510  -0.000   0.000
   11    9    8    6        3       0.000   0.000   0.000  -0.000  -0.000   0.000
   11    9    8    3        3       0.000   0.000   0.000  -0.000  -0.000   0.000

[ pairs ]
     1     4    1
     2     5    1
     2     6    1
     1     8    1
     3     7    1
     4     7    1
     2     9    1
     4     9    1
     3    10    1
     5     9    1
     3    11    1
     3    12    1
     7     9    1
     6    10    1
     3    13    1
     6    11    1
     3    14    1
     1    17    1
     4    15    1
     4    16    1
     2    18    1
     2    19    1
     5    17    1
     8    15    1
     6    17    1
     3    20    1
     8    16    1
     6    18    1
     3    21    1
     6    19    1
     3    22    1
     2    23    1
     9    17    1
     8    18    1
     4    22    1
    12    15    1
     8    19    1
     7    20    1
     4    23    1
    13    15    1
    12    16    1
     8    20    1
     7    21    1
     5    23    1
    14    15    1
    13    16    1
     8    21    1
    14    16    1
     7    23    1
     9    22    1
    15    17    1
     8    24    1
    16    17    1
    10    23    1
     8    25    1
    11    23    1
     8    26    1
    17    18    1
    11    24    1
    17    19    1
    11    25    1
    11    26    1
    18    20    1
    19    20    1
    18    21    1
    19    21    1
    17    23    1
    20    22    1
    21    22    1
    22    23    1

