LIGPARGEN GENERATED GRO FILE
   26
    1UNK    C00    1   0.100   0.100   0.000
    1UNK    C01    2  -0.052   0.100   0.000
    1UNK    C02    3  -0.112   0.100   0.141
    1UNK    C03    4  -0.075   0.223   0.224
    1UNK    C04    5  -0.187   0.232   0.327
    1UNK    C05    6  -0.310   0.204   0.241
    1UNK    Cl0    7  -0.454   0.169   0.338
    1UNK    C07    8  -0.268   0.099   0.138
    1UNK    C08    9  -0.319  -0.044   0.149
    1UNK    C09   10  -0.321  -0.115   0.281
    1UNK    O0A   11  -0.354  -0.104   0.047
    1UNK    H0B   12   0.138   0.088  -0.102
    1UNK    H0C   13   0.139   0.018   0.061
    1UNK    H0D   14   0.140   0.194   0.039
    1UNK    H0E   15  -0.087   0.011  -0.054
    1UNK    H0F   16  -0.088   0.187  -0.057
    1UNK    H0G   17  -0.076   0.011   0.194
    1UNK    H0H   18  -0.074   0.314   0.162
    1UNK    H0I   19   0.023   0.213   0.272
    1UNK    H0J   20  -0.191   0.330   0.375
    1UNK    H0K   21  -0.173   0.155   0.404
    1UNK    H0M   22  -0.334   0.297   0.187
    1UNK    H0N   23  -0.303   0.136   0.040
    1UNK    H0O   24  -0.260  -0.063   0.356
    1UNK    H0P   25  -0.279  -0.215   0.268
    1UNK    H0Q   26  -0.424  -0.123   0.317
   1.00000   1.00000   1.00000

