
;
; GENERATED BY LigParGen Server
; Jorgensen Lab @ Yale University 
;
[ atomtypes ]
  opls_818  H818     1.0080     0.000    A    2.50000E-01   1.25520E-01
  opls_824  H824     1.0080     0.000    A    2.50000E-01   1.25520E-01
  opls_805  C805    12.0110     0.000    A    3.50000E-01   2.76144E-01
  opls_828  H828     1.0080     0.000    A    2.50000E-01   1.25520E-01
  opls_813  H813     1.0080     0.000    A    2.50000E-01   1.25520E-01
  opls_806  C806    12.0110     0.000    A    3.50000E-01   2.76144E-01
  opls_815  H815     1.0080     0.000    A    2.50000E-01   1.25520E-01
  opls_809  C809    12.0110     0.000    A    3.50000E-01   2.76144E-01
  opls_830  H830     1.0080     0.000    A    2.50000E-01   1.25520E-01
  opls_802  O802    15.9990     0.000    A    2.96000E-01   8.78640E-01
  opls_822  H822     1.0080     0.000    A    2.50000E-01   1.25520E-01
  opls_803  C803    12.0110     0.000    A    3.50000E-01   2.76144E-01
  opls_825  H825     1.0080     0.000    A    2.50000E-01   1.25520E-01
  opls_814  H814     1.0080     0.000    A    2.50000E-01   1.25520E-01
  opls_810  C810    12.0110     0.000    A    3.50000E-01   2.76144E-01
  opls_820  H820     1.0080     0.000    A    2.50000E-01   1.25520E-01
  opls_801  C801    12.0110     0.000    A    3.55000E-01   2.92880E-01
  opls_821  H821     1.0080     0.000    A    2.50000E-01   1.25520E-01
  opls_831  H831     1.0080     0.000    A    2.50000E-01   1.25520E-01
  opls_816  H816     1.0080     0.000    A    2.50000E-01   1.25520E-01
  opls_800  C800    12.0110     0.000    A    3.50000E-01   2.76144E-01
  opls_811  C811    12.0110     0.000    A    3.50000E-01   2.76144E-01
  opls_823  H823     1.0080     0.000    A    2.50000E-01   1.25520E-01
  opls_826  H826     1.0080     0.000    A    2.50000E-01   1.25520E-01
  opls_819  H819     1.0080     0.000    A    2.50000E-01   1.25520E-01
  opls_804  C804    12.0110     0.000    A    3.50000E-01   2.76144E-01
  opls_827  H827     1.0080     0.000    A    2.50000E-01   1.25520E-01
  opls_808  C808    12.0110     0.000    A    3.50000E-01   2.76144E-01
  opls_817  H817     1.0080     0.000    A    2.50000E-01   1.25520E-01
  opls_812  H812     1.0080     0.000    A    2.50000E-01   1.25520E-01
  opls_829  H829     1.0080     0.000    A    2.50000E-01   1.25520E-01
  opls_807  C807    12.0110     0.000    A    3.50000E-01   2.76144E-01
[ moleculetype ]
; Name               nrexcl
UNK                   3
[ atoms ]
;   nr       type  resnr residue  atom   cgnr     charge       mass  
     1   opls_800      1    UNK   C00      1    -0.3033    12.0110 
     2   opls_801      1    UNK   C01      1     0.3655    12.0110 
     3   opls_802      1    UNK   O02      1    -0.4481    15.9990 
     4   opls_803      1    UNK   C03      1    -0.1546    12.0110 
     5   opls_804      1    UNK   C04      1      -0.23    12.0110 
     6   opls_805      1    UNK   C05      1    -0.1133    12.0110 
     7   opls_806      1    UNK   C06      1    -0.1802    12.0110 
     8   opls_807      1    UNK   C07      1    -0.1121    12.0110 
     9   opls_808      1    UNK   C08      1    -0.2284    12.0110 
    10   opls_809      1    UNK   C09      1    -0.1154    12.0110 
    11   opls_810      1    UNK   C0A      1    -0.2273    12.0110 
    12   opls_811      1    UNK   C0B      1    -0.1739    12.0110 
    13   opls_812      1    UNK   H0C      1     0.1164     1.0080 
    14   opls_813      1    UNK   H0D      1     0.1164     1.0080 
    15   opls_814      1    UNK   H0E      1     0.1164     1.0080 
    16   opls_815      1    UNK   H0F      1     0.1121     1.0080 
    17   opls_816      1    UNK   H0G      1     0.0911     1.0080 
    18   opls_817      1    UNK   H0H      1     0.0911     1.0080 
    19   opls_818      1    UNK   H0I      1     0.0911     1.0080 
    20   opls_819      1    UNK   H0J      1     0.1249     1.0080 
    21   opls_820      1    UNK   H0K      1     0.0963     1.0080 
    22   opls_821      1    UNK   H0M      1     0.0963     1.0080 
    23   opls_822      1    UNK   H0N      1     0.0977     1.0080 
    24   opls_823      1    UNK   H0O      1     0.0834     1.0080 
    25   opls_824      1    UNK   H0P      1     0.0834     1.0080 
    26   opls_825      1    UNK   H0Q      1     0.0834     1.0080 
    27   opls_826      1    UNK   H0R      1     0.0915     1.0080 
    28   opls_827      1    UNK   H0S      1     0.0825     1.0080 
    29   opls_828      1    UNK   H0T      1     0.0825     1.0080 
    30   opls_829      1    UNK   H0U      1     0.0825     1.0080 
    31   opls_830      1    UNK   H0V      1     0.0909     1.0080 
    32   opls_831      1    UNK   H0W      1     0.0909     1.0080 
[ bonds ]
    2     1     1      0.1522 265265.600
    3     2     1      0.1229 476976.000
    4     2     1      0.1522 265265.600
    5     4     1      0.1529 224262.400
    6     4     1      0.1529 224262.400
    7     6     1      0.1529 224262.400
    8     7     1      0.1529 224262.400
    9     8     1      0.1529 224262.400
   10     8     1      0.1529 224262.400
   11    10     1      0.1529 224262.400
   12     6     1      0.1529 224262.400
   13     1     1      0.1090 284512.000
   14     1     1      0.1090 284512.000
   15     1     1      0.1090 284512.000
   16     4     1      0.1090 284512.000
   17     5     1      0.1090 284512.000
   18     5     1      0.1090 284512.000
   19     5     1      0.1090 284512.000
   20     6     1      0.1090 284512.000
   21     7     1      0.1090 284512.000
   22     7     1      0.1090 284512.000
   23     8     1      0.1090 284512.000
   24     9     1      0.1090 284512.000
   25     9     1      0.1090 284512.000
   26     9     1      0.1090 284512.000
   27    10     1      0.1090 284512.000
   28    11     1      0.1090 284512.000
   29    11     1      0.1090 284512.000
   30    11     1      0.1090 284512.000
   31    12     1      0.1090 284512.000
   32    12     1      0.1090 284512.000
   12    10     1      0.1529 224262.400

[ angles ]
;  ai    aj    ak funct            c0            c1            c2            c3 
    1     2     3     1    120.400    669.440
    1     2     4     1    116.000    585.760
    2     4     5     1    111.100    527.184
    2     4     6     1    111.100    527.184
    4     6     7     1    112.700    488.273
    6     7     8     1    112.700    488.273
    7     8     9     1    112.700    488.273
    7     8    10     1    112.700    488.273
    8    10    11     1    112.700    488.273
    4     6    12     1    112.700    488.273
    2     1    13     1    109.500    292.880
    2     1    14     1    109.500    292.880
    2     1    15     1    109.500    292.880
    2     4    16     1    109.500    292.880
    4     5    17     1    110.700    313.800
    4     5    18     1    110.700    313.800
    4     5    19     1    110.700    313.800
    4     6    20     1    110.700    313.800
    6     7    21     1    110.700    313.800
    6     7    22     1    110.700    313.800
    7     8    23     1    110.700    313.800
    8     9    24     1    110.700    313.800
    8     9    25     1    110.700    313.800
    8     9    26     1    110.700    313.800
    8    10    27     1    110.700    313.800
   10    11    28     1    110.700    313.800
   10    11    29     1    110.700    313.800
   10    11    30     1    110.700    313.800
    6    12    31     1    110.700    313.800
    6    12    32     1    110.700    313.800
    5     4     6     1    112.700    488.273
   11    10    27     1    110.700    313.800
   13     1    14     1    107.800    276.144
   10     8    23     1    110.700    313.800
   10    12    31     1    110.700    313.800
   17     5    19     1    107.800    276.144
   11    10    12     1    112.700    488.273
   25     9    26     1    107.800    276.144
   10    12    32     1    110.700    313.800
   21     7    22     1    107.800    276.144
   12     6    20     1    110.700    313.800
    9     8    23     1    110.700    313.800
   24     9    25     1    107.800    276.144
   28    11    30     1    107.800    276.144
    9     8    10     1    112.700    488.273
   13     1    15     1    107.800    276.144
   17     5    18     1    107.800    276.144
    5     4    16     1    110.700    313.800
   14     1    15     1    107.800    276.144
   24     9    26     1    107.800    276.144
    3     2     4     1    120.400    669.440
    6     4    16     1    110.700    313.800
    8     7    22     1    110.700    313.800
   31    12    32     1    107.800    276.144
    8     7    21     1    110.700    313.800
   18     5    19     1    107.800    276.144
   28    11    29     1    107.800    276.144
    6    12    10     1    112.700    488.273
    8    10    12     1    112.700    488.273
   12    10    27     1    110.700    313.800
   29    11    30     1    107.800    276.144
    7     6    20     1    110.700    313.800
    7     6    12     1    112.700    488.273

[ dihedrals ]
; IMPROPER DIHEDRAL ANGLES 
;  ai    aj    ak    al funct            c0            c1            c2            c3            c4            c5
     4     2     1     3    4        180.000     43.932     2  

[ dihedrals ]
; PROPER DIHEDRAL ANGLES
;  ai    aj    ak    al funct            c0            c1            c2            c3            c4            c5
    5    4    2    1        3       0.818  -7.906   0.602   6.485  -0.000   0.000
    6    4    2    1        3       0.818  -7.906   0.602   6.485  -0.000   0.000
    5    4    2    3        3       0.000   0.000   0.000  -0.000  -0.000   0.000
    6    4    2    3        3       0.000   0.000   0.000  -0.000  -0.000   0.000
    7    6    4    2        3      -4.960   6.286   1.310  -2.636  -0.000   0.000
   12    6    4    2        3      -4.960   6.286   1.310  -2.636  -0.000   0.000
   12   10    8    7        3       2.301  -1.464   0.837  -1.674  -0.000   0.000
   11   10   12    6        3       2.301  -1.464   0.837  -1.674  -0.000   0.000
   10   12    6    7        3       2.301  -1.464   0.837  -1.674  -0.000   0.000
   12   10    8    9        3       2.301  -1.464   0.837  -1.674  -0.000   0.000
   12    6    4    5        3       2.301  -1.464   0.837  -1.674  -0.000   0.000
   12    6    7    8        3       2.301  -1.464   0.837  -1.674  -0.000   0.000
   10    8    7    6        3       2.301  -1.464   0.837  -1.674  -0.000   0.000
   11   10    8    9        3       2.301  -1.464   0.837  -1.674  -0.000   0.000
    8   10   12    6        3       2.301  -1.464   0.837  -1.674  -0.000   0.000
   10   12    6    4        3       2.301  -1.464   0.837  -1.674  -0.000   0.000
    7    6    4    5        3       2.301  -1.464   0.837  -1.674  -0.000   0.000
    8    7    6    4        3       2.301  -1.464   0.837  -1.674  -0.000   0.000
    9    8    7    6        3       2.301  -1.464   0.837  -1.674  -0.000   0.000
   11   10    8    7        3       2.301  -1.464   0.837  -1.674  -0.000   0.000
   15    1    2    4        3       0.575   1.726   0.000  -2.301  -0.000   0.000
   13    1    2    4        3       0.575   1.726   0.000  -2.301  -0.000   0.000
   14    1    2    4        3       0.575   1.726   0.000  -2.301  -0.000   0.000
   16    4    2    1        3       0.575   1.726   0.000  -2.301  -0.000   0.000
   16    4    2    3        3       0.000   0.000   0.000  -0.000  -0.000   0.000
   15    1    2    3        3       0.000   0.000   0.000  -0.000  -0.000   0.000
   13    1    2    3        3       0.000   0.000   0.000  -0.000  -0.000   0.000
   14    1    2    3        3       0.000   0.000   0.000  -0.000  -0.000   0.000
   19    5    4    2        3      -0.209  -0.628   0.000   0.837  -0.000   0.000
   18    5    4    2        3      -0.209  -0.628   0.000   0.837  -0.000   0.000
   20    6    4    2        3      -0.209  -0.628   0.000   0.837  -0.000   0.000
   17    5    4    2        3      -0.209  -0.628   0.000   0.837  -0.000   0.000
   19    5    4    6        3       0.628   1.883   0.000  -2.510  -0.000   0.000
   21    7    6    4        3       0.628   1.883   0.000  -2.510  -0.000   0.000
   32   12   10    8        3       0.628   1.883   0.000  -2.510  -0.000   0.000
   16    4    6   12        3       0.628   1.883   0.000  -2.510  -0.000   0.000
   23    8   10   12        3       0.628   1.883   0.000  -2.510  -0.000   0.000
   29   11   10   12        3       0.628   1.883   0.000  -2.510  -0.000   0.000
   20    6    7    8        3       0.628   1.883   0.000  -2.510  -0.000   0.000
   20    6   12   10        3       0.628   1.883   0.000  -2.510  -0.000   0.000
   21    7    8    9        3       0.628   1.883   0.000  -2.510  -0.000   0.000
   31   12    6    7        3       0.628   1.883   0.000  -2.510  -0.000   0.000
   22    7    6    4        3       0.628   1.883   0.000  -2.510  -0.000   0.000
   28   11   10   12        3       0.628   1.883   0.000  -2.510  -0.000   0.000
   16    4    6    7        3       0.628   1.883   0.000  -2.510  -0.000   0.000
   22    7    8   10        3       0.628   1.883   0.000  -2.510  -0.000   0.000
   31   12    6    4        3       0.628   1.883   0.000  -2.510  -0.000   0.000
   18    5    4    6        3       0.628   1.883   0.000  -2.510  -0.000   0.000
   27   10   12    6        3       0.628   1.883   0.000  -2.510  -0.000   0.000
   27   10    8    7        3       0.628   1.883   0.000  -2.510  -0.000   0.000
   29   11   10    8        3       0.628   1.883   0.000  -2.510  -0.000   0.000
   30   11   10   12        3       0.628   1.883   0.000  -2.510  -0.000   0.000
   32   12    6    7        3       0.628   1.883   0.000  -2.510  -0.000   0.000
   22    7    8    9        3       0.628   1.883   0.000  -2.510  -0.000   0.000
   30   11   10    8        3       0.628   1.883   0.000  -2.510  -0.000   0.000
   32   12   10   11        3       0.628   1.883   0.000  -2.510  -0.000   0.000
   32   12    6    4        3       0.628   1.883   0.000  -2.510  -0.000   0.000
   20    6    4    5        3       0.628   1.883   0.000  -2.510  -0.000   0.000
   23    8   10   11        3       0.628   1.883   0.000  -2.510  -0.000   0.000
   26    9    8    7        3       0.628   1.883   0.000  -2.510  -0.000   0.000
   31   12   10    8        3       0.628   1.883   0.000  -2.510  -0.000   0.000
   27   10    8    9        3       0.628   1.883   0.000  -2.510  -0.000   0.000
   28   11   10    8        3       0.628   1.883   0.000  -2.510  -0.000   0.000
   24    9    8    7        3       0.628   1.883   0.000  -2.510  -0.000   0.000
   24    9    8   10        3       0.628   1.883   0.000  -2.510  -0.000   0.000
   25    9    8   10        3       0.628   1.883   0.000  -2.510  -0.000   0.000
   17    5    4    6        3       0.628   1.883   0.000  -2.510  -0.000   0.000
   25    9    8    7        3       0.628   1.883   0.000  -2.510  -0.000   0.000
   31   12   10   11        3       0.628   1.883   0.000  -2.510  -0.000   0.000
   21    7    8   10        3       0.628   1.883   0.000  -2.510  -0.000   0.000
   23    8    7    6        3       0.628   1.883   0.000  -2.510  -0.000   0.000
   26    9    8   10        3       0.628   1.883   0.000  -2.510  -0.000   0.000
   21    7    6   12        3       0.628   1.883   0.000  -2.510  -0.000   0.000
   22    7    6   12        3       0.628   1.883   0.000  -2.510  -0.000   0.000
   31   12   10   27        3       0.628   1.883   0.000  -2.510  -0.000   0.000
   22    7    6   20        3       0.628   1.883   0.000  -2.510  -0.000   0.000
   25    9    8   23        3       0.628   1.883   0.000  -2.510  -0.000   0.000
   31   12    6   20        3       0.628   1.883   0.000  -2.510  -0.000   0.000
   18    5    4   16        3       0.628   1.883   0.000  -2.510  -0.000   0.000
   28   11   10   27        3       0.628   1.883   0.000  -2.510  -0.000   0.000
   29   11   10   27        3       0.628   1.883   0.000  -2.510  -0.000   0.000
   26    9    8   23        3       0.628   1.883   0.000  -2.510  -0.000   0.000
   27   10    8   23        3       0.628   1.883   0.000  -2.510  -0.000   0.000
   20    6    4   16        3       0.628   1.883   0.000  -2.510  -0.000   0.000
   32   12   10   27        3       0.628   1.883   0.000  -2.510  -0.000   0.000
   32   12    6   20        3       0.628   1.883   0.000  -2.510  -0.000   0.000
   23    8    7   22        3       0.628   1.883   0.000  -2.510  -0.000   0.000
   23    8    7   21        3       0.628   1.883   0.000  -2.510  -0.000   0.000
   30   11   10   27        3       0.628   1.883   0.000  -2.510  -0.000   0.000
   17    5    4   16        3       0.628   1.883   0.000  -2.510  -0.000   0.000
   21    7    6   20        3       0.628   1.883   0.000  -2.510  -0.000   0.000
   24    9    8   23        3       0.628   1.883   0.000  -2.510  -0.000   0.000
   19    5    4   16        3       0.628   1.883   0.000  -2.510  -0.000   0.000

[ pairs ]
     1     5    1
     1     6    1
     3     5    1
     3     6    1
     2     7    1
     5     7    1
     4     8    1
     4    10    1
     2    12    1
     6     9    1
     3    13    1
     6    11    1
     5    12    1
     4    13    1
     3    14    1
     1    16    1
     7    11    1
     4    14    1
     3    15    1
     4    15    1
     3    16    1
     2    17    1
     9    11    1
     2    18    1
     9    12    1
     2    19    1
     2    20    1
     7    16    1
     6    17    1
     6    18    1
     6    19    1
     5    20    1
     4    21    1
     4    22    1
    12    16    1
     8    20    1
     6    23    1
    10    20    1
     9    21    1
    10    21    1
     9    22    1
     7    24    1
    10    22    1
     7    25    1
    16    17    1
    12    21    1
     7    26    1
     6    27    1
    16    18    1
    12    22    1
    11    23    1
    10    24    1
     7    27    1
    16    19    1
    12    23    1
    10    25    1
     4    31    1
    16    20    1
    10    26    1
     9    27    1
     8    28    1
     4    32    1
     8    29    1
     8    30    1
     7    31    1
     8    31    1
     7    32    1
    12    28    1
     8    32    1
    20    21    1
    12    29    1
    20    22    1
    12    30    1
    11    31    1
    11    32    1
    21    23    1
    22    23    1
    23    24    1
    23    25    1
    23    26    1
    23    27    1
    20    31    1
    20    32    1
    27    28    1
    27    29    1
    27    30    1
    27    31    1
    27    32    1

