LIGPARGEN GENERATED GRO FILE
   32
    1UNK    C00    1   0.100   0.100   0.000
    1UNK    C01    2  -0.051   0.100   0.000
    1UNK    O02    3  -0.114   0.100   0.106
    1UNK    C03    4  -0.120   0.094  -0.136
    1UNK    C04    5  -0.143  -0.053  -0.171
    1UNK    C05    6  -0.250   0.176  -0.135
    1UNK    C06    7  -0.227   0.325  -0.111
    1UNK    C07    8  -0.357   0.391  -0.157
    1UNK    C08    9  -0.463   0.389  -0.047
    1UNK    C09   10  -0.392   0.312  -0.284
    1UNK    C0A   11  -0.540   0.305  -0.320
    1UNK    C0B   12  -0.329   0.172  -0.267
    1UNK    H0C   13   0.137   0.120   0.101
    1UNK    H0D   14   0.137   0.179  -0.066
    1UNK    H0E   15   0.137   0.003  -0.033
    1UNK    H0F   16  -0.052   0.137  -0.211
    1UNK    H0G   17  -0.204  -0.103  -0.094
    1UNK    H0H   18  -0.047  -0.107  -0.176
    1UNK    H0I   19  -0.192  -0.065  -0.267
    1UNK    H0J   20  -0.316   0.137  -0.055
    1UNK    H0K   21  -0.143   0.361  -0.172
    1UNK    H0M   22  -0.203   0.347  -0.006
    1UNK    H0N   23  -0.338   0.496  -0.182
    1UNK    H0O   24  -0.492   0.287  -0.019
    1UNK    H0P   25  -0.553   0.442  -0.079
    1UNK    H0Q   26  -0.426   0.439   0.043
    1UNK    H0R   27  -0.340   0.360  -0.368
    1UNK    H0S   28  -0.598   0.251  -0.245
    1UNK    H0T   29  -0.554   0.254  -0.416
    1UNK    H0U   30  -0.582   0.406  -0.330
    1UNK    H0V   31  -0.263   0.152  -0.352
    1UNK    H0W   32  -0.404   0.093  -0.264
   1.00000   1.00000   1.00000

