LIGPARGEN GENERATED GRO FILE
   24
    1UNK    C00    1   0.100   0.100   0.000
    1UNK    C01    2  -0.052   0.100   0.000
    1UNK    C02    3  -0.113   0.100   0.141
    1UNK    C03    4  -0.079   0.226   0.219
    1UNK    O04    5  -0.257   0.097   0.128
    1UNK    C05    6  -0.313  -0.026   0.110
    1UNK    O06    7  -0.251  -0.132   0.107
    1UNK    C07    8  -0.463  -0.015   0.092
    1UNK    S08    9  -0.508   0.017  -0.082
    1UNK    C09   10  -0.441  -0.132  -0.159
    1UNK    H0A   11   0.138   0.090  -0.102
    1UNK    H0B   12   0.139   0.017   0.059
    1UNK    H0C   13   0.140   0.193   0.041
    1UNK    H0D   14  -0.087   0.012  -0.055
    1UNK    H0E   15  -0.089   0.186  -0.057
    1UNK    H0F   16  -0.079   0.013   0.198
    1UNK    H0G   17  -0.109   0.316   0.165
    1UNK    H0H   18   0.028   0.232   0.241
    1UNK    H0I   19  -0.133   0.228   0.315
    1UNK    H0J   20  -0.501   0.065   0.155
    1UNK    H0K   21  -0.509  -0.108   0.126
    1UNK    H0M   22  -0.471  -0.134  -0.264
    1UNK    H0N   23  -0.480  -0.222  -0.110
    1UNK    H0O   24  -0.331  -0.132  -0.155
   1.00000   1.00000   1.00000

