
;
; GENERATED BY LigParGen Server
; Jorgensen Lab @ Yale University 
;
[ atomtypes ]
  opls_818  H818     1.0080     0.000    A    2.50000E-01   1.25520E-01
  opls_805  C805    12.0110     0.000    A    3.45000E-01   3.47272E-01
  opls_808  O808    15.9990     0.000    A    2.96000E-01   8.78640E-01
  opls_804  C804    12.0110     0.000    A    3.45000E-01   3.47272E-01
  opls_813  H813     1.0080     0.000    A    2.50000E-01   1.25520E-01
  opls_803  C803    12.0110     0.000    A    3.45000E-01   3.47272E-01
  opls_802  C802    12.0110     0.000    A    3.50000E-01   2.76144E-01
  opls_815  H815     1.0080     0.000    A    2.50000E-01   1.25520E-01
  opls_801  C801    12.0110     0.000    A    3.50000E-01   2.76144E-01
  opls_822  H822     1.0080     0.000    A    2.50000E-01   1.25520E-01
  opls_814  H814     1.0080     0.000    A    2.50000E-01   1.25520E-01
  opls_821  H821     1.0080     0.000    A    2.50000E-01   1.25520E-01
  opls_820  H820     1.0080     0.000    A    2.50000E-01   1.25520E-01
  opls_811  H811     1.0080     0.000    A    2.50000E-01   1.25520E-01
  opls_810  H810     1.0080     0.000    A    2.50000E-01   1.25520E-01
  opls_816  H816     1.0080     0.000    A    2.50000E-01   1.25520E-01
  opls_800  C800    12.0110     0.000    A    3.50000E-01   2.76144E-01
  opls_806  C806    12.0110     0.000    A    3.45000E-01   3.47272E-01
  opls_819  H819     1.0080     0.000    A    2.50000E-01   1.25520E-01
  opls_807  C807    12.0110     0.000    A    3.55000E-01   2.92880E-01
  opls_817  H817     1.0080     0.000    A    2.50000E-01   1.25520E-01
  opls_812  H812     1.0080     0.000    A    2.50000E-01   1.25520E-01
  opls_809 Cl809    35.4500     0.000    A    3.40000E-01   1.25520E+00
[ moleculetype ]
; Name               nrexcl
UNK                   3
[ atoms ]
;   nr       type  resnr residue  atom   cgnr     charge       mass  
     1   opls_800      1    UNK   C00      1     -0.236    12.0110 
     2   opls_801      1    UNK   C01      1    -0.1407    12.0110 
     3   opls_802      1    UNK   C02      1    -0.1526    12.0110 
     4   opls_803      1    UNK   C03      1    -0.1462    12.0110 
     5   opls_804      1    UNK   C04      1    -0.1971    12.0110 
     6   opls_805      1    UNK   C05      1    -0.2019    12.0110 
     7   opls_806      1    UNK   C06      1    -0.1893    12.0110 
     8   opls_807      1    UNK   C07      1     0.4229    12.0110 
     9   opls_808      1    UNK   O08      1    -0.3902    15.9990 
    10   opls_809      1    UNK   Cl0      1     -0.145    35.4500 
    11   opls_810      1    UNK   H0A      1     0.0984     1.0080 
    12   opls_811      1    UNK   H0B      1     0.0984     1.0080 
    13   opls_812      1    UNK   H0C      1     0.0984     1.0080 
    14   opls_813      1    UNK   H0D      1     0.1267     1.0080 
    15   opls_814      1    UNK   H0E      1     0.1057     1.0080 
    16   opls_815      1    UNK   H0F      1     0.1057     1.0080 
    17   opls_816      1    UNK   H0G      1     0.1273     1.0080 
    18   opls_817      1    UNK   H0H      1     0.1016     1.0080 
    19   opls_818      1    UNK   H0I      1     0.1016     1.0080 
    20   opls_819      1    UNK   H0J      1     0.1036     1.0080 
    21   opls_820      1    UNK   H0K      1     0.1036     1.0080 
    22   opls_821      1    UNK   H0M      1     0.1025     1.0080 
    23   opls_822      1    UNK   H0N      1     0.1025     1.0080 
[ bonds ]
    2     1     1      0.1529 224262.400
    3     2     1      0.1529 224262.400
    4     3     1      0.1510 234304.000
    5     4     1      0.1520 217568.000
    6     5     1      0.1520 217568.000
    7     4     1      0.1520 217568.000
    8     2     1      0.1522 265265.600
    9     8     1      0.1229 476976.000
   10     8     1      0.1790 251040.000
   11     1     1      0.1090 284512.000
   12     1     1      0.1090 284512.000
   13     1     1      0.1090 284512.000
   14     2     1      0.1090 284512.000
   15     3     1      0.1090 284512.000
   16     3     1      0.1090 284512.000
   17     4     1      0.1088 284512.000
   18     5     1      0.1088 284512.000
   19     5     1      0.1088 284512.000
   20     6     1      0.1088 284512.000
   21     6     1      0.1088 284512.000
   22     7     1      0.1088 284512.000
   23     7     1      0.1088 284512.000
    7     6     1      0.1520 217568.000

[ angles ]
;  ai    aj    ak funct            c0            c1            c2            c3 
    1     2     3     1    112.700    488.273
    2     3     4     1    112.700    488.273
    3     4     5     1    117.200    313.800
    4     5     6     1     83.000    251.040
    3     4     7     1    117.200    313.800
    1     2     8     1    111.100    527.184
    2     8     9     1    120.400    669.440
    2     8    10     1    109.000    627.600
    2     1    11     1    110.700    313.800
    2     1    12     1    110.700    313.800
    2     1    13     1    110.700    313.800
    1     2    14     1    110.700    313.800
    2     3    15     1    110.700    313.800
    2     3    16     1    110.700    313.800
    3     4    17     1    114.300    292.880
    4     5    18     1    117.200    313.800
    4     5    19     1    117.200    313.800
    5     6    20     1    117.200    313.800
    5     6    21     1    117.200    313.800
    4     7    22     1    117.200    313.800
    4     7    23     1    117.200    313.800
    3     2    14     1    110.700    313.800
    9     8    10     1    119.000    627.600
   11     1    13     1    107.800    276.144
   20     6    21     1    114.300    292.880
    5     4     7     1     83.000    251.040
    6     5    19     1    117.200    313.800
    5     6     7     1     83.000    251.040
   15     3    16     1    107.800    276.144
    3     2     8     1    111.100    527.184
    6     7    23     1    117.200    313.800
   22     7    23     1    114.300    292.880
   11     1    12     1    107.800    276.144
   12     1    13     1    107.800    276.144
    4     7     6     1     83.000    251.040
    7     4    17     1    117.200    313.800
   18     5    19     1    114.300    292.880
    6     7    22     1    117.200    313.800
    4     3    16     1    110.700    313.800
    8     2    14     1    109.500    292.880
    7     6    21     1    117.200    313.800
    4     3    15     1    110.700    313.800
    7     6    20     1    117.200    313.800
    6     5    18     1    117.200    313.800
    5     4    17     1    117.200    313.800

[ dihedrals ]
; IMPROPER DIHEDRAL ANGLES 
;  ai    aj    ak    al funct            c0            c1            c2            c3            c4            c5
    10     8     2     9    4        180.000     43.932     2  

[ dihedrals ]
; PROPER DIHEDRAL ANGLES
;  ai    aj    ak    al funct            c0            c1            c2            c3            c4            c5
    8    2    3    4        3      -4.960   6.286   1.310  -2.636  -0.000   0.000
    4    3    2    1        3       2.301  -1.464   0.837  -1.674  -0.000   0.000
    5    4    3    2        3       0.000   0.000   0.000  -0.000  -0.000   0.000
    7    4    3    2        3       0.000   0.000   0.000  -0.000  -0.000   0.000
    6    5    4    3        3       0.000   0.000   0.000  -0.000  -0.000   0.000
    6    7    4    3        3       0.000   0.000   0.000  -0.000  -0.000   0.000
   10    8    2    3        3       0.000   0.000   0.000  -0.000  -0.000   0.000
   10    8    2    1        3       0.000   0.000   0.000  -0.000  -0.000   0.000
   14    2    8   10        3       0.753   2.259   0.000  -3.012  -0.000   0.000
   14    2    8    9        3       0.000   0.000   0.000  -0.000  -0.000   0.000
   11    1    2    8        3      -0.209  -0.628   0.000   0.837  -0.000   0.000
   15    3    2    8        3      -0.209  -0.628   0.000   0.837  -0.000   0.000
   16    3    2    8        3      -0.209  -0.628   0.000   0.837  -0.000   0.000
   12    1    2    8        3      -0.209  -0.628   0.000   0.837  -0.000   0.000
   13    1    2    8        3      -0.209  -0.628   0.000   0.837  -0.000   0.000
   12    1    2    3        3       0.628   1.883   0.000  -2.510  -0.000   0.000
   15    3    2    1        3       0.628   1.883   0.000  -2.510  -0.000   0.000
   13    1    2    3        3       0.628   1.883   0.000  -2.510  -0.000   0.000
   11    1    2    3        3       0.628   1.883   0.000  -2.510  -0.000   0.000
   16    3    2    1        3       0.628   1.883   0.000  -2.510  -0.000   0.000
   14    2    3    4        3       0.628   1.883   0.000  -2.510  -0.000   0.000
   15    3    2   14        3       0.628   1.883   0.000  -2.510  -0.000   0.000
   14    2    1   13        3       0.628   1.883   0.000  -2.510  -0.000   0.000
   14    2    1   12        3       0.628   1.883   0.000  -2.510  -0.000   0.000
   14    2    1   11        3       0.628   1.883   0.000  -2.510  -0.000   0.000
   16    3    2   14        3       0.628   1.883   0.000  -2.510  -0.000   0.000
   16    3    4    7        3       0.628   1.883   0.000  -2.510  -0.000   0.000
   15    3    4    5        3       0.628   1.883   0.000  -2.510  -0.000   0.000
   15    3    4    7        3       0.628   1.883   0.000  -2.510  -0.000   0.000
   16    3    4    5        3       0.628   1.883   0.000  -2.510  -0.000   0.000
   17    4    3    2        3       0.628   1.883   0.000  -2.510  -0.000   0.000
   17    4    3   16        3       0.628   1.883   0.000  -2.510  -0.000   0.000
   17    4    3   15        3       0.628   1.883   0.000  -2.510  -0.000   0.000
   18    5    4    3        3       0.000   0.000   0.000  -0.000  -0.000   0.000
   23    7    4    3        3       0.000   0.000   0.000  -0.000  -0.000   0.000
   19    5    4    3        3       0.000   0.000   0.000  -0.000  -0.000   0.000
   22    7    4    3        3       0.000   0.000   0.000  -0.000  -0.000   0.000
   18    5    4    7        3       0.000   0.000   0.000  -0.000  -0.000   0.000
   21    6    7    4        3       0.000   0.000   0.000  -0.000  -0.000   0.000
   22    7    6    5        3       0.000   0.000   0.000  -0.000  -0.000   0.000
   21    6    5    4        3       0.000   0.000   0.000  -0.000  -0.000   0.000
   20    6    7    4        3       0.000   0.000   0.000  -0.000  -0.000   0.000
   22    7    4    5        3       0.000   0.000   0.000  -0.000  -0.000   0.000
   19    5    6    7        3       0.000   0.000   0.000  -0.000  -0.000   0.000
   17    4    7    6        3       0.000   0.000   0.000  -0.000  -0.000   0.000
   23    7    4    5        3       0.000   0.000   0.000  -0.000  -0.000   0.000
   19    5    4    7        3       0.000   0.000   0.000  -0.000  -0.000   0.000
   17    4    5    6        3       0.000   0.000   0.000  -0.000  -0.000   0.000
   20    6    5    4        3       0.000   0.000   0.000  -0.000  -0.000   0.000
   23    7    6    5        3       0.000   0.000   0.000  -0.000  -0.000   0.000
   18    5    6    7        3       0.000   0.000   0.000  -0.000  -0.000   0.000
   22    7    6   20        3       0.000   0.000   0.000  -0.000  -0.000   0.000
   18    5    4   17        3       0.000   0.000   0.000  -0.000  -0.000   0.000
   20    6    5   19        3       0.000   0.000   0.000  -0.000  -0.000   0.000
   20    6    5   18        3       0.000   0.000   0.000  -0.000  -0.000   0.000
   23    7    6   20        3       0.000   0.000   0.000  -0.000  -0.000   0.000
   19    5    4   17        3       0.000   0.000   0.000  -0.000  -0.000   0.000
   22    7    4   17        3       0.000   0.000   0.000  -0.000  -0.000   0.000
   21    6    5   19        3       0.000   0.000   0.000  -0.000  -0.000   0.000
   21    6    5   18        3       0.000   0.000   0.000  -0.000  -0.000   0.000
   23    7    4   17        3       0.000   0.000   0.000  -0.000  -0.000   0.000
   23    7    6   21        3       0.000   0.000   0.000  -0.000  -0.000   0.000
   22    7    6   21        3       0.000   0.000   0.000  -0.000  -0.000   0.000
    9    8    2    3        3       0.000   0.000   0.000  -0.000  -0.000   0.000
    9    8    2    1        3       0.000   0.000   0.000  -0.000  -0.000   0.000

[ pairs ]
     1     4    1
     2     5    1
     3     6    1
     2     7    1
     1     9    1
     1    10    1
     4     8    1
     3     9    1
     3    10    1
     3    11    1
     3    12    1
     3    13    1
     1    15    1
     1    16    1
     4    14    1
     8    11    1
     2    17    1
     8    12    1
     5    15    1
     8    13    1
     5    16    1
     3    18    1
     7    15    1
     3    19    1
     9    14    1
     8    15    1
     7    16    1
     6    17    1
    10    14    1
     8    16    1
     4    20    1
    11    14    1
     7    18    1
     4    21    1
     3    22    1
    12    14    1
     7    19    1
     3    23    1
    13    14    1
     5    22    1
     5    23    1
    14    15    1
    14    16    1
    15    17    1
    16    17    1
    17    18    1
    17    19    1
    18    20    1
    19    20    1
    18    21    1
    17    22    1
    19    21    1
    17    23    1
    20    22    1
    21    22    1
    20    23    1
    21    23    1

