LIGPARGEN GENERATED GRO FILE
   35
    1UNK    C00    1   0.100   0.100   0.000
    1UNK    C01    2  -0.053   0.100   0.000
    1UNK    C02    3  -0.121   0.100   0.140
    1UNK    C03    4  -0.079  -0.025   0.220
    1UNK    C04    5  -0.080   0.224   0.221
    1UNK    C05    6  -0.276   0.095   0.123
    1UNK    C06    7  -0.338   0.213   0.045
    1UNK    C07    8  -0.490   0.212   0.046
    1UNK    O08    9  -0.556   0.125   0.104
    1UNK    N09   10  -0.547   0.320  -0.016
    1UNK    C0A   11  -0.689   0.342  -0.034
    1UNK    C0B   12  -0.703   0.378  -0.179
    1UNK    C0C   13  -0.570   0.444  -0.208
    1UNK    O0D   14  -0.474   0.385  -0.119
    1UNK    H0E   15   0.137   0.100  -0.103
    1UNK    H0F   16   0.141   0.011   0.049
    1UNK    H0G   17   0.140   0.189   0.049
    1UNK    H0H   18  -0.087   0.012  -0.057
    1UNK    H0I   19  -0.084   0.188  -0.057
    1UNK    H0J   20   0.029  -0.026   0.241
    1UNK    H0K   21  -0.103  -0.117   0.165
    1UNK    H0M   22  -0.131  -0.029   0.316
    1UNK    H0N   23   0.027   0.223   0.246
    1UNK    H0O   24  -0.135   0.229   0.316
    1UNK    H0P   25  -0.099   0.317   0.166
    1UNK    H0Q   26  -0.322   0.091   0.222
    1UNK    H0R   27  -0.304   0.002   0.072
    1UNK    H0S   28  -0.304   0.210  -0.059
    1UNK    H0T   29  -0.307   0.308   0.090
    1UNK    H0U   30  -0.717   0.426   0.030
    1UNK    H0V   31  -0.748   0.255  -0.006
    1UNK    H0W   32  -0.788   0.443  -0.201
    1UNK    H0X   33  -0.713   0.287  -0.240
    1UNK    H0Y   34  -0.573   0.552  -0.188
    1UNK    H0Z   35  -0.538   0.428  -0.311
   1.00000   1.00000   1.00000

