
;
; GENERATED BY LigParGen Server
; Jorgensen Lab @ Yale University 
;
[ atomtypes ]
  opls_818  H818     1.0080     0.000    A    2.50000E-01   1.25520E-01
  opls_824  H824     1.0080     0.000    A    2.50000E-01   1.25520E-01
  opls_808  O808    15.9990     0.000    A    2.96000E-01   8.78640E-01
  opls_833  H833     1.0080     0.000    A    2.50000E-01   1.25520E-01
  opls_834  H834     1.0080     0.000    A    2.50000E-01   1.25520E-01
  opls_810  C810    12.0110     0.000    A    3.50000E-01   2.76144E-01
  opls_828  H828     1.0080     0.000    A    2.50000E-01   1.25520E-01
  opls_832  H832     1.0080     0.000    A    2.50000E-01   1.25520E-01
  opls_802  C802    12.0110     0.000    A    3.50000E-01   2.76144E-01
  opls_815  H815     1.0080     0.000    A    2.50000E-01   1.25520E-01
  opls_801  C801    12.0110     0.000    A    3.50000E-01   2.76144E-01
  opls_806  C806    12.0110     0.000    A    3.50000E-01   2.76144E-01
  opls_822  H822     1.0080     0.000    A    2.50000E-01   1.25520E-01
  opls_803  C803    12.0110     0.000    A    3.50000E-01   2.76144E-01
  opls_825  H825     1.0080     0.000    A    2.50000E-01   1.25520E-01
  opls_814  H814     1.0080     0.000    A    2.50000E-01   1.25520E-01
  opls_821  H821     1.0080     0.000    A    2.50000E-01   1.25520E-01
  opls_820  H820     1.0080     0.000    A    2.50000E-01   1.25520E-01
  opls_829  H829     1.0080     0.000    A    2.50000E-01   1.25520E-01
  opls_831  H831     1.0080     0.000    A    2.50000E-01   1.25520E-01
  opls_816  H816     1.0080     0.000    A    2.50000E-01   1.25520E-01
  opls_800  C800    12.0110     0.000    A    3.50000E-01   2.76144E-01
  opls_805  C805    12.0110     0.000    A    3.50000E-01   2.76144E-01
  opls_811  C811    12.0110     0.000    A    3.50000E-01   2.76144E-01
  opls_823  H823     1.0080     0.000    A    2.50000E-01   1.25520E-01
  opls_813  O813    15.9990     0.000    A    2.90000E-01   5.85760E-01
  opls_826  H826     1.0080     0.000    A    2.50000E-01   1.25520E-01
  opls_809  N809    14.0070     0.000    A    3.25000E-01   7.11280E-01
  opls_819  H819     1.0080     0.000    A    2.50000E-01   1.25520E-01
  opls_804  C804    12.0110     0.000    A    3.50000E-01   2.76144E-01
  opls_827  H827     1.0080     0.000    A    2.50000E-01   1.25520E-01
  opls_812  C812    12.0110     0.000    A    3.50000E-01   2.76144E-01
  opls_807  C807    12.0110     0.000    A    3.55000E-01   2.92880E-01
  opls_817  H817     1.0080     0.000    A    2.50000E-01   1.25520E-01
  opls_830  H830     1.0080     0.000    A    2.50000E-01   1.25520E-01
[ moleculetype ]
; Name               nrexcl
UNK                   3
[ atoms ]
;   nr       type  resnr residue  atom   cgnr     charge       mass  
     1   opls_800      1    UNK   C00      1    -0.2367    12.0110 
     2   opls_801      1    UNK   C01      1    -0.1687    12.0110 
     3   opls_802      1    UNK   C02      1    -0.0453    12.0110 
     4   opls_803      1    UNK   C03      1    -0.2306    12.0110 
     5   opls_804      1    UNK   C04      1    -0.2308    12.0110 
     6   opls_805      1    UNK   C05      1    -0.1631    12.0110 
     7   opls_806      1    UNK   C06      1    -0.1928    12.0110 
     8   opls_807      1    UNK   C07      1     0.6077    12.0110 
     9   opls_808      1    UNK   O08      1    -0.4345    15.9990 
    10   opls_809      1    UNK   N09      1    -0.7996    14.0070 
    11   opls_810      1    UNK   C0A      1     0.1171    12.0110 
    12   opls_811      1    UNK   C0B      1    -0.2288    12.0110 
    13   opls_812      1    UNK   C0C      1     -0.024    12.0110 
    14   opls_813      1    UNK   O0D      1    -0.0769    15.9990 
    15   opls_814      1    UNK   H0E      1     0.0806     1.0080 
    16   opls_815      1    UNK   H0F      1     0.0806     1.0080 
    17   opls_816      1    UNK   H0G      1     0.0806     1.0080 
    18   opls_817      1    UNK   H0H      1     0.0867     1.0080 
    19   opls_818      1    UNK   H0I      1     0.0867     1.0080 
    20   opls_819      1    UNK   H0J      1     0.0831     1.0080 
    21   opls_820      1    UNK   H0K      1     0.0831     1.0080 
    22   opls_821      1    UNK   H0M      1     0.0831     1.0080 
    23   opls_822      1    UNK   H0N      1     0.0823     1.0080 
    24   opls_823      1    UNK   H0O      1     0.0823     1.0080 
    25   opls_824      1    UNK   H0P      1     0.0823     1.0080 
    26   opls_825      1    UNK   H0Q      1     0.1037     1.0080 
    27   opls_826      1    UNK   H0R      1     0.1037     1.0080 
    28   opls_827      1    UNK   H0S      1     0.1295     1.0080 
    29   opls_828      1    UNK   H0T      1     0.1295     1.0080 
    30   opls_829      1    UNK   H0U      1     0.1291     1.0080 
    31   opls_830      1    UNK   H0V      1     0.1291     1.0080 
    32   opls_831      1    UNK   H0W      1     0.1217     1.0080 
    33   opls_832      1    UNK   H0X      2     0.1217     1.0080 
    34   opls_833      1    UNK   H0Y      2     0.1139     1.0080 
    35   opls_834      1    UNK   H0Z      2     0.1139     1.0080 
[ bonds ]
    2     1     1      0.1529 224262.400
    3     2     1      0.1529 224262.400
    4     3     1      0.1529 224262.400
    5     3     1      0.1529 224262.400
    6     3     1      0.1529 224262.400
    7     6     1      0.1529 224262.400
    8     7     1      0.1522 265265.600
    9     8     1      0.1229 476976.000
   10     8     1      0.1335 410032.000
   11    10     1      0.1449 282001.600
   12    11     1      0.1529 224262.400
   13    12     1      0.1529 224262.400
   14    10     1      0.1450 267776.000
   15     1     1      0.1090 284512.000
   16     1     1      0.1090 284512.000
   17     1     1      0.1090 284512.000
   18     2     1      0.1090 284512.000
   19     2     1      0.1090 284512.000
   20     4     1      0.1090 284512.000
   21     4     1      0.1090 284512.000
   22     4     1      0.1090 284512.000
   23     5     1      0.1090 284512.000
   24     5     1      0.1090 284512.000
   25     5     1      0.1090 284512.000
   26     6     1      0.1090 284512.000
   27     6     1      0.1090 284512.000
   28     7     1      0.1090 284512.000
   29     7     1      0.1090 284512.000
   30    11     1      0.1090 284512.000
   31    11     1      0.1090 284512.000
   32    12     1      0.1090 284512.000
   33    12     1      0.1090 284512.000
   34    13     1      0.1090 284512.000
   35    13     1      0.1090 284512.000
   14    13     1      0.1410 267776.000

[ angles ]
;  ai    aj    ak funct            c0            c1            c2            c3 
    1     2     3     1    112.700    488.273
    2     3     4     1    112.700    488.273
    2     3     5     1    112.700    488.273
    2     3     6     1    112.700    488.273
    3     6     7     1    112.700    488.273
    6     7     8     1    111.100    527.184
    7     8     9     1    120.400    669.440
    7     8    10     1    116.600    585.760
    8    10    11     1    121.900    418.400
   10    11    12     1    109.700    669.440
   11    12    13     1    112.700    488.273
    8    10    14     1    108.600    585.760
    2     1    15     1    110.700    313.800
    2     1    16     1    110.700    313.800
    2     1    17     1    110.700    313.800
    1     2    18     1    110.700    313.800
    1     2    19     1    110.700    313.800
    3     4    20     1    110.700    313.800
    3     4    21     1    110.700    313.800
    3     4    22     1    110.700    313.800
    3     5    23     1    110.700    313.800
    3     5    24     1    110.700    313.800
    3     5    25     1    110.700    313.800
    3     6    26     1    110.700    313.800
    3     6    27     1    110.700    313.800
    6     7    28     1    110.700    313.800
    6     7    29     1    110.700    313.800
   10    11    30     1    109.500    292.880
   10    11    31     1    109.500    292.880
   11    12    32     1    110.700    313.800
   11    12    33     1    110.700    313.800
   12    13    34     1    110.700    313.800
   12    13    35     1    110.700    313.800
   18     2    19     1    107.800    276.144
   13    12    33     1    110.700    313.800
   20     4    22     1    107.800    276.144
    3     2    18     1    110.700    313.800
   11    10    14     1    118.330    404.760
   14    13    35     1    109.500    292.880
   12    11    31     1    110.700    313.800
   23     5    24     1    107.800    276.144
   34    13    35     1    107.800    276.144
   12    13    14     1    109.500    418.400
   21     4    22     1    107.800    276.144
   12    11    30     1    110.700    313.800
    4     3     5     1    112.700    488.273
    7     6    26     1    110.700    313.800
   26     6    27     1    107.800    276.144
    8     7    29     1    109.500    292.880
   14    13    34     1    109.500    292.880
   24     5    25     1    107.800    276.144
   28     7    29     1    107.800    276.144
    7     6    27     1    110.700    313.800
    3     2    19     1    110.700    313.800
   15     1    16     1    107.800    276.144
    4     3     6     1    112.700    488.273
   30    11    31     1    107.800    276.144
   15     1    17     1    107.800    276.144
   16     1    17     1    107.800    276.144
   32    12    33     1    107.800    276.144
   13    12    32     1    110.700    313.800
    5     3     6     1    112.700    488.273
   10    14    13     1    114.540    581.660
    8     7    28     1    109.500    292.880
   23     5    25     1    107.800    276.144
    9     8    10     1    122.900    669.440
   20     4    21     1    107.800    276.144

[ dihedrals ]
; IMPROPER DIHEDRAL ANGLES 
;  ai    aj    ak    al funct            c0            c1            c2            c3            c4            c5
    10     8     7     9    4        180.000     43.932     2  
    14    10     8    11    4        180.000     10.460     2  

[ dihedrals ]
; PROPER DIHEDRAL ANGLES
;  ai    aj    ak    al funct            c0            c1            c2            c3            c4            c5
    8    7    6    3        3      -4.960   6.286   1.310  -2.636  -0.000   0.000
    4    3    2    1        3       2.301  -1.464   0.837  -1.674  -0.000   0.000
    7    6    3    5        3       2.301  -1.464   0.837  -1.674  -0.000   0.000
    5    3    2    1        3       2.301  -1.464   0.837  -1.674  -0.000   0.000
    6    3    2    1        3       2.301  -1.464   0.837  -1.674  -0.000   0.000
    7    6    3    4        3       2.301  -1.464   0.837  -1.674  -0.000   0.000
    7    6    3    2        3       2.301  -1.464   0.837  -1.674  -0.000   0.000
   13   12   11   10        3      -0.766   2.707   4.025  -5.966  -0.000   0.000
   12   11   10    8        3       1.933   0.000  -1.933  -0.000  -0.000   0.000
   12   13   14   10        3      -5.356   3.598   2.594  -0.837  -0.000   0.000
   11   10    8    7        3      30.288  -4.812  -25.476  -0.000  -0.000   0.000
   11   10    8    9        3      25.476   0.000  -25.476  -0.000  -0.000   0.000
   13   14   10    8        3      18.828  -6.276  -12.552  -0.000  -0.000   0.000
   13   14   10   11        3       0.628   1.883   0.000  -2.510  -0.000   0.000
   28    7    8   10        3       0.000   0.000   0.000  -0.000  -0.000   0.000
   29    7    8   10        3       0.000   0.000   0.000  -0.000  -0.000   0.000
   28    7    8    9        3       0.000   0.000   0.000  -0.000  -0.000   0.000
   29    7    8    9        3       0.000   0.000   0.000  -0.000  -0.000   0.000
   26    6    7    8        3      -0.209  -0.628   0.000   0.837  -0.000   0.000
   27    6    7    8        3      -0.209  -0.628   0.000   0.837  -0.000   0.000
   31   11   12   13        3       0.628   1.883   0.000  -2.510  -0.000   0.000
   23    5    3    4        3       0.628   1.883   0.000  -2.510  -0.000   0.000
   20    4    3    5        3       0.628   1.883   0.000  -2.510  -0.000   0.000
   24    5    3    4        3       0.628   1.883   0.000  -2.510  -0.000   0.000
   27    6    3    2        3       0.628   1.883   0.000  -2.510  -0.000   0.000
   24    5    3    6        3       0.628   1.883   0.000  -2.510  -0.000   0.000
   21    4    3    2        3       0.628   1.883   0.000  -2.510  -0.000   0.000
   23    5    3    6        3       0.628   1.883   0.000  -2.510  -0.000   0.000
   25    5    3    2        3       0.628   1.883   0.000  -2.510  -0.000   0.000
   16    1    2    3        3       0.628   1.883   0.000  -2.510  -0.000   0.000
   21    4    3    5        3       0.628   1.883   0.000  -2.510  -0.000   0.000
   22    4    3    5        3       0.628   1.883   0.000  -2.510  -0.000   0.000
   18    2    3    4        3       0.628   1.883   0.000  -2.510  -0.000   0.000
   22    4    3    2        3       0.628   1.883   0.000  -2.510  -0.000   0.000
   26    6    3    2        3       0.628   1.883   0.000  -2.510  -0.000   0.000
   18    2    3    5        3       0.628   1.883   0.000  -2.510  -0.000   0.000
   19    2    3    4        3       0.628   1.883   0.000  -2.510  -0.000   0.000
   35   13   12   11        3       0.628   1.883   0.000  -2.510  -0.000   0.000
   24    5    3    2        3       0.628   1.883   0.000  -2.510  -0.000   0.000
   19    2    3    6        3       0.628   1.883   0.000  -2.510  -0.000   0.000
   17    1    2    3        3       0.628   1.883   0.000  -2.510  -0.000   0.000
   29    7    6    3        3       0.628   1.883   0.000  -2.510  -0.000   0.000
   28    7    6    3        3       0.628   1.883   0.000  -2.510  -0.000   0.000
   27    6    3    4        3       0.628   1.883   0.000  -2.510  -0.000   0.000
   34   13   12   11        3       0.628   1.883   0.000  -2.510  -0.000   0.000
   25    5    3    4        3       0.628   1.883   0.000  -2.510  -0.000   0.000
   20    4    3    6        3       0.628   1.883   0.000  -2.510  -0.000   0.000
   26    6    3    5        3       0.628   1.883   0.000  -2.510  -0.000   0.000
   30   11   12   13        3       0.628   1.883   0.000  -2.510  -0.000   0.000
   18    2    3    6        3       0.628   1.883   0.000  -2.510  -0.000   0.000
   19    2    3    5        3       0.628   1.883   0.000  -2.510  -0.000   0.000
   23    5    3    2        3       0.628   1.883   0.000  -2.510  -0.000   0.000
   27    6    3    5        3       0.628   1.883   0.000  -2.510  -0.000   0.000
   22    4    3    6        3       0.628   1.883   0.000  -2.510  -0.000   0.000
   26    6    3    4        3       0.628   1.883   0.000  -2.510  -0.000   0.000
   20    4    3    2        3       0.628   1.883   0.000  -2.510  -0.000   0.000
   15    1    2    3        3       0.628   1.883   0.000  -2.510  -0.000   0.000
   25    5    3    6        3       0.628   1.883   0.000  -2.510  -0.000   0.000
   21    4    3    6        3       0.628   1.883   0.000  -2.510  -0.000   0.000
   19    2    1   15        3       0.628   1.883   0.000  -2.510  -0.000   0.000
   34   13   12   32        3       0.628   1.883   0.000  -2.510  -0.000   0.000
   33   12   11   31        3       0.628   1.883   0.000  -2.510  -0.000   0.000
   35   13   12   32        3       0.628   1.883   0.000  -2.510  -0.000   0.000
   32   12   11   30        3       0.628   1.883   0.000  -2.510  -0.000   0.000
   19    2    1   17        3       0.628   1.883   0.000  -2.510  -0.000   0.000
   34   13   12   33        3       0.628   1.883   0.000  -2.510  -0.000   0.000
   33   12   11   30        3       0.628   1.883   0.000  -2.510  -0.000   0.000
   19    2    1   16        3       0.628   1.883   0.000  -2.510  -0.000   0.000
   18    2    1   17        3       0.628   1.883   0.000  -2.510  -0.000   0.000
   28    7    6   26        3       0.628   1.883   0.000  -2.510  -0.000   0.000
   32   12   11   31        3       0.628   1.883   0.000  -2.510  -0.000   0.000
   29    7    6   27        3       0.628   1.883   0.000  -2.510  -0.000   0.000
   28    7    6   27        3       0.628   1.883   0.000  -2.510  -0.000   0.000
   35   13   12   33        3       0.628   1.883   0.000  -2.510  -0.000   0.000
   18    2    1   15        3       0.628   1.883   0.000  -2.510  -0.000   0.000
   29    7    6   26        3       0.628   1.883   0.000  -2.510  -0.000   0.000
   18    2    1   16        3       0.628   1.883   0.000  -2.510  -0.000   0.000
   33   12   11   10        3       0.971   2.912   0.000  -3.883  -0.000   0.000
   32   12   11   10        3       0.971   2.912   0.000  -3.883  -0.000   0.000
   32   12   13   14        3       0.979   2.937   0.000  -3.916  -0.000   0.000
   33   12   13   14        3       0.979   2.937   0.000  -3.916  -0.000   0.000
   31   11   10    8        3       0.000   0.000   0.000  -0.000  -0.000   0.000
   30   11   10    8        3       0.000   0.000   0.000  -0.000  -0.000   0.000
   31   11   10   14        3       0.000   0.000   0.000  -0.000  -0.000   0.000
   30   11   10   14        3       0.000   0.000   0.000  -0.000  -0.000   0.000
   35   13   14   10        3       0.628   1.883   0.000  -2.510  -0.000   0.000
   34   13   14   10        3       0.628   1.883   0.000  -2.510  -0.000   0.000
   10    8    7    6        3       0.734  -9.985  -0.791  10.042  -0.000   0.000
    9    8    7    6        3       0.000   0.000   0.000  -0.000  -0.000   0.000
   14   13   12   11        3       2.874   0.582   2.092  -5.548  -0.000   0.000
   14   10    8    7        3      39.315  -2.943  -27.627  -8.745  -0.000   0.000
   14   10    8    9        3      27.627   0.000  -27.627  -0.000  -0.000   0.000
   14   10   11   12        3       1.933   0.000  -1.933  -0.000  -0.000   0.000

[ pairs ]
     1     4    1
     1     5    1
     1     6    1
     2     7    1
     4     7    1
     3     8    1
     5     7    1
     6     9    1
     6    10    1
     7    11    1
     3    15    1
     3    16    1
     9    11    1
     8    12    1
     3    17    1
     8    13    1
     7    14    1
     4    18    1
     2    20    1
     9    14    1
     5    18    1
     4    19    1
     2    21    1
     6    18    1
     5    19    1
     2    22    1
     6    19    1
     5    20    1
     2    23    1
     6    20    1
     5    21    1
     2    24    1
     6    21    1
     5    22    1
     4    23    1
     2    25    1
     6    22    1
     4    24    1
     2    26    1
     6    23    1
     4    25    1
     2    27    1
     6    24    1
     4    26    1
     6    25    1
     5    26    1
     4    27    1
     3    28    1
     5    27    1
     3    29    1
    15    18    1
    16    18    1
    15    19    1
     8    26    1
    17    18    1
    16    19    1
     8    27    1
    17    19    1
     9    28    1
    10    28    1
     9    29    1
     8    30    1
    10    29    1
     8    31    1
    10    32    1
    13    30    1
    10    33    1
    14    30    1
    13    31    1
    10    34    1
    14    31    1
    11    34    1
    10    35    1
    14    32    1
    11    35    1
    14    33    1
    26    28    1
    27    28    1
    26    29    1
    27    29    1
    30    32    1
    31    32    1
    30    33    1
    31    33    1
    32    34    1
    33    34    1
    32    35    1
    33    35    1

