LIGPARGEN GENERATED GRO FILE
   28
    1UNK    C00    1   0.100   0.100   0.000
    1UNK    O01    2  -0.043   0.100   0.000
    1UNK    C02    3  -0.099   0.100   0.123
    1UNK    O03    4  -0.039   0.100   0.230
    1UNK    O04    5  -0.233   0.100   0.106
    1UNK    C05    6  -0.315   0.100   0.225
    1UNK    C06    7  -0.325   0.241   0.284
    1UNK    C07    8  -0.388   0.340   0.186
    1UNK    C08    9  -0.524   0.292   0.136
    1UNK    C09   10  -0.517   0.150   0.079
    1UNK    C0A   11  -0.655   0.102   0.036
    1UNK    C0B   12  -0.454   0.053   0.180
    1UNK    H0C   13   0.133   0.088  -0.103
    1UNK    H0D   14   0.139   0.017   0.059
    1UNK    H0E   15   0.137   0.196   0.037
    1UNK    H0F   16  -0.275   0.030   0.298
    1UNK    H0G   17  -0.225   0.278   0.312
    1UNK    H0H   18  -0.385   0.238   0.376
    1UNK    H0I   19  -0.320   0.355   0.100
    1UNK    H0J   20  -0.399   0.438   0.235
    1UNK    H0K   21  -0.560   0.361   0.059
    1UNK    H0M   22  -0.595   0.295   0.219
    1UNK    H0N   23  -0.454   0.152  -0.011
    1UNK    H0O   24  -0.725   0.099   0.121
    1UNK    H0P   25  -0.650   0.001  -0.007
    1UNK    H0Q   26  -0.697   0.169  -0.040
    1UNK    H0R   27  -0.446  -0.046   0.134
    1UNK    H0S   28  -0.519   0.043   0.268
   1.00000   1.00000   1.00000

