LIGPARGEN GENERATED GRO FILE
   32
    1UNK    C00    1   0.100   0.100   0.000
    1UNK    C01    2  -0.052   0.100   0.000
    1UNK    C02    3  -0.107   0.100   0.143
    1UNK    C03    4  -0.260   0.100   0.144
    1UNK    C04    5  -0.318   0.100   0.285
    1UNK    C05    6  -0.278   0.220   0.373
    1UNK    C06    7  -0.323   0.353   0.313
    1UNK    S07    8  -0.347   0.204   0.541
    1UNK    O08    9  -0.304   0.320   0.616
    1UNK    O09   10  -0.487   0.170   0.529
    1UNK    C0A   11  -0.261   0.063   0.609
    1UNK    C0B   12  -0.306   0.034   0.751
    1UNK    H0C   13   0.138   0.100  -0.103
    1UNK    H0D   14   0.139   0.011   0.051
    1UNK    H0E   15   0.139   0.189   0.051
    1UNK    H0F   16  -0.088   0.012  -0.054
    1UNK    H0G   17  -0.088   0.189  -0.054
    1UNK    H0H   18  -0.069   0.188   0.195
    1UNK    H0I   19  -0.070   0.012   0.196
    1UNK    H0J   20  -0.296   0.011   0.092
    1UNK    H0K   21  -0.298   0.186   0.087
    1UNK    H0M   22  -0.288   0.007   0.334
    1UNK    H0N   23  -0.428   0.096   0.277
    1UNK    H0O   24  -0.170   0.222   0.388
    1UNK    H0P   25  -0.432   0.356   0.300
    1UNK    H0Q   26  -0.277   0.370   0.216
    1UNK    H0R   27  -0.295   0.437   0.378
    1UNK    H0S   28  -0.154   0.085   0.607
    1UNK    H0T   29  -0.281  -0.024   0.547
    1UNK    H0U   30  -0.287   0.120   0.817
    1UNK    H0V   31  -0.252  -0.052   0.791
    1UNK    H0W   32  -0.413   0.013   0.755
   1.00000   1.00000   1.00000

