LIGPARGEN GENERATED GRO FILE
   36
    1UNK    C00    1   0.100   0.100   0.000
    1UNK    C01    2  -0.052   0.100   0.000
    1UNK    C02    3  -0.120   0.100   0.139
    1UNK    C03    4  -0.229   0.193   0.079
    1UNK    C04    5  -0.352   0.117   0.029
    1UNK    C05    6  -0.459   0.209  -0.030
    1UNK    C06    7  -0.575   0.124  -0.076
    1UNK    O07    8  -0.581   0.003  -0.061
    1UNK    O08    9  -0.672   0.200  -0.135
    1UNK    C09   10  -0.789   0.133  -0.190
    1UNK    C0A   11  -0.870   0.062  -0.080
    1UNK    C0B   12  -0.877   0.244  -0.249
    1UNK    C0C   13  -0.749   0.038  -0.304
    1UNK    C0D   14  -0.123   0.235  -0.027
    1UNK    H0E   15   0.138   0.002   0.030
    1UNK    H0F   16   0.140   0.175   0.069
    1UNK    H0G   17   0.138   0.122  -0.100
    1UNK    H0H   18  -0.089   0.020  -0.065
    1UNK    H0I   19  -0.062   0.147   0.219
    1UNK    H0J   20  -0.154   0.002   0.174
    1UNK    H0K   21  -0.258   0.274   0.147
    1UNK    H0M   22  -0.395   0.062   0.114
    1UNK    H0N   23  -0.323   0.042  -0.045
    1UNK    H0O   24  -0.419   0.264  -0.116
    1UNK    H0P   25  -0.494   0.280   0.046
    1UNK    H0Q   26  -0.897   0.132  -0.001
    1UNK    H0R   27  -0.813  -0.018  -0.032
    1UNK    H0S   28  -0.961   0.017  -0.121
    1UNK    H0T   29  -0.907   0.316  -0.172
    1UNK    H0U   30  -0.968   0.202  -0.295
    1UNK    H0V   31  -0.823   0.301  -0.326
    1UNK    H0W   32  -0.687  -0.045  -0.269
    1UNK    H0X   33  -0.690   0.091  -0.379
    1UNK    H0Y   34  -0.837  -0.006  -0.352
    1UNK    H0Z   35  -0.065   0.323   0.003
    1UNK    H10   36  -0.159   0.250  -0.129
   1.00000   1.00000   1.00000

