LIGPARGEN GENERATED GRO FILE
   29
    1UNK    C00    1   0.100   0.100   0.000
    1UNK    C01    2  -0.052   0.100   0.000
    1UNK    C02    3  -0.112   0.100   0.139
    1UNK    C03    4  -0.077  -0.024   0.221
    1UNK    C04    5  -0.079  -0.158   0.147
    1UNK    C05    6  -0.094  -0.158  -0.008
    1UNK    C06    7   0.034  -0.219  -0.072
    1UNK    C07    8  -0.209  -0.255  -0.045
    1UNK    C08    9  -0.119  -0.018  -0.070
    1UNK    O09   10  -0.261   0.010  -0.074
    1UNK    C0A   11  -0.329   0.065   0.029
    1UNK    O0B   12  -0.451   0.077   0.027
    1UNK    O0C   13  -0.255   0.111   0.133
    1UNK    H0D   14   0.138   0.195   0.039
    1UNK    H0E   15   0.139   0.088  -0.102
    1UNK    H0F   16   0.143   0.021   0.062
    1UNK    H0G   17  -0.085   0.192  -0.051
    1UNK    H0H   18  -0.078   0.189   0.193
    1UNK    H0I   19  -0.145  -0.031   0.306
    1UNK    H0J   20   0.023  -0.010   0.264
    1UNK    H0K   21  -0.160  -0.218   0.191
    1UNK    H0M   22   0.012  -0.211   0.175
    1UNK    H0N   23   0.052  -0.321  -0.034
    1UNK    H0O   24   0.123  -0.161  -0.051
    1UNK    H0P   25   0.023  -0.227  -0.181
    1UNK    H0Q   26  -0.187  -0.357  -0.011
    1UNK    H0R   27  -0.225  -0.259  -0.154
    1UNK    H0S   28  -0.304  -0.225   0.002
    1UNK    H0T   29  -0.087  -0.018  -0.175
   1.00000   1.00000   1.00000

