LIGPARGEN GENERATED GRO FILE
   36
    1UNK    C00    1   0.100   0.100   0.000
    1UNK    C01    2  -0.052   0.100   0.000
    1UNK    C02    3  -0.108   0.100   0.142
    1UNK    O03    4  -0.250   0.100   0.133
    1UNK    C04    5  -0.312   0.100   0.261
    1UNK    C05    6  -0.464   0.100   0.242
    1UNK    C06    7  -0.510  -0.026   0.169
    1UNK    C07    8  -0.663  -0.037   0.151
    1UNK    C08    9  -0.718   0.080   0.069
    1UNK    C09   10  -0.701  -0.170   0.082
    1UNK    C0A   11  -0.664  -0.295   0.162
    1UNK    C0B   12  -0.704  -0.422   0.090
    1UNK    H0C   13   0.138   0.100  -0.103
    1UNK    H0D   14   0.139   0.011   0.051
    1UNK    H0E   15   0.139   0.189   0.051
    1UNK    H0F   16  -0.089   0.012  -0.054
    1UNK    H0G   17  -0.089   0.188  -0.055
    1UNK    H0H   18  -0.075   0.189   0.196
    1UNK    H0I   19  -0.074   0.011   0.196
    1UNK    H0J   20  -0.282   0.190   0.316
    1UNK    H0K   21  -0.280   0.012   0.317
    1UNK    H0M   22  -0.491   0.189   0.184
    1UNK    H0N   23  -0.512   0.106   0.340
    1UNK    H0O   24  -0.473  -0.112   0.226
    1UNK    H0P   25  -0.462  -0.032   0.070
    1UNK    H0Q   26  -0.710  -0.035   0.250
    1UNK    H0R   27  -0.671   0.085  -0.030
    1UNK    H0S   28  -0.702   0.175   0.119
    1UNK    H0T   29  -0.826   0.069   0.054
    1UNK    H0U   30  -0.654  -0.175  -0.017
    1UNK    H0V   31  -0.810  -0.171   0.065
    1UNK    H0W   32  -0.713  -0.292   0.260
    1UNK    H0X   33  -0.556  -0.299   0.179
    1UNK    H0Y   34  -0.812  -0.425   0.072
    1UNK    H0Z   35  -0.677  -0.510   0.149
    1UNK    H10   36  -0.654  -0.430  -0.007
   1.00000   1.00000   1.00000

