LIGPARGEN GENERATED GRO FILE
   14
    1UNK    F00    1   0.100   0.100   0.000
    1UNK    C01    2  -0.036   0.100   0.000
    1UNK    C02    3  -0.089   0.100   0.143
    1UNK    O03    4  -0.047  -0.017   0.214
    1UNK    C04    5  -0.025   0.030   0.347
    1UNK    C05    6   0.026   0.170   0.326
    1UNK    O06    7  -0.050   0.218   0.215
    1UNK    H07    8  -0.069   0.010  -0.054
    1UNK    H08    9  -0.069   0.189  -0.054
    1UNK    H09   10  -0.199   0.100   0.140
    1UNK    H0A   11   0.045  -0.035   0.400
    1UNK    H0B   12  -0.121   0.029   0.400
    1UNK    H0C   13   0.132   0.170   0.298
    1UNK    H0D   14   0.011   0.234   0.413
   1.00000   1.00000   1.00000

