
;
; GENERATED BY LigParGen Server
; Jorgensen Lab @ Yale University 
;
[ atomtypes ]
  opls_806  O806    15.9990     0.000    A    2.90000E-01   5.85760E-01
  opls_810  H810     1.0080     0.000    A    2.50000E-01   1.25520E-01
  opls_800  F800    18.9984     0.000    A    2.90000E-01   2.51040E-01
  opls_801  C801    12.0110     0.000    A    3.50000E-01   2.76144E-01
  opls_809  H809     1.0080     0.000    A    2.50000E-01   1.25520E-01
  opls_803  O803    15.9990     0.000    A    2.90000E-01   5.85760E-01
  opls_808  H808     1.0080     0.000    A    2.50000E-01   1.25520E-01
  opls_802  C802    12.0110     0.000    A    3.50000E-01   2.76144E-01
  opls_812  H812     1.0080     0.000    A    2.50000E-01   1.25520E-01
  opls_807  H807     1.0080     0.000    A    2.50000E-01   1.25520E-01
  opls_804  C804    12.0110     0.000    A    3.50000E-01   2.76144E-01
  opls_813  H813     1.0080     0.000    A    2.50000E-01   1.25520E-01
  opls_811  H811     1.0080     0.000    A    2.50000E-01   1.25520E-01
  opls_805  C805    12.0110     0.000    A    3.50000E-01   2.76144E-01
[ moleculetype ]
; Name               nrexcl
UNK                   3
[ atoms ]
;   nr       type  resnr residue  atom   cgnr     charge       mass  
     1   opls_800      1    UNK   F00      1    -0.1732    18.9984 
     2   opls_801      1    UNK   C01      1    -0.0018    12.0110 
     3   opls_802      1    UNK   C02      1     0.1703    12.0110 
     4   opls_803      1    UNK   O03      1    -0.3656    15.9990 
     5   opls_804      1    UNK   C04      1    -0.0358    12.0110 
     6   opls_805      1    UNK   C05      1    -0.0361    12.0110 
     7   opls_806      1    UNK   O06      1    -0.3706    15.9990 
     8   opls_807      1    UNK   H07      1     0.1093     1.0080 
     9   opls_808      1    UNK   H08      1     0.1093     1.0080 
    10   opls_809      1    UNK   H09      1     0.1171     1.0080 
    11   opls_810      1    UNK   H0A      1      0.118     1.0080 
    12   opls_811      1    UNK   H0B      1      0.118     1.0080 
    13   opls_812      1    UNK   H0C      1     0.1206     1.0080 
    14   opls_813      1    UNK   H0D      1     0.1206     1.0080 
[ bonds ]
    2     1     1      0.1360 307105.600
    3     2     1      0.1529 224262.400
    4     3     1      0.1380 267776.000
    5     4     1      0.1410 267776.000
    6     5     1      0.1529 224262.400
    7     3     1      0.1380 267776.000
    8     2     1      0.1090 284512.000
    9     2     1      0.1090 284512.000
   10     3     1      0.1090 284512.000
   11     5     1      0.1090 284512.000
   12     5     1      0.1090 284512.000
   13     6     1      0.1090 284512.000
   14     6     1      0.1090 284512.000
    7     6     1      0.1410 267776.000

[ angles ]
;  ai    aj    ak funct            c0            c1            c2            c3 
    1     2     3     1    109.500    418.400
    2     3     4     1    109.500    418.400
    3     4     5     1    109.500    502.080
    4     5     6     1    109.500    418.400
    2     3     7     1    109.500    418.400
    1     2     8     1    107.000    334.720
    1     2     9     1    107.000    334.720
    2     3    10     1    110.700    313.800
    4     5    11     1    109.500    292.880
    4     5    12     1    109.500    292.880
    5     6    13     1    110.700    313.800
    5     6    14     1    110.700    313.800
    7     6    14     1    109.500    292.880
    8     2     9     1    107.800    276.144
    7     3    10     1    109.500    292.880
    5     6     7     1    109.500    418.400
    6     5    11     1    110.700    313.800
    4     3     7     1    111.550    774.877
    3     7     6     1    109.500    502.080
    4     3    10     1    109.500    292.880
    3     2     8     1    110.700    313.800
    6     5    12     1    110.700    313.800
   13     6    14     1    107.800    276.144
    7     6    13     1    109.500    292.880
    3     2     9     1    110.700    313.800
   11     5    12     1    107.800    276.144

[ dihedrals ]
; IMPROPER DIHEDRAL ANGLES 
;  ai    aj    ak    al funct            c0            c1            c2            c3            c4            c5

[ dihedrals ]
; PROPER DIHEDRAL ANGLES
;  ai    aj    ak    al funct            c0            c1            c2            c3            c4            c5
    6    5    4    3        3       1.715   2.845   1.046  -5.607  -0.000   0.000
    5    6    7    3        3       1.715   2.845   1.046  -5.607  -0.000   0.000
    6    7    3    2        3       1.715   2.845   1.046  -5.607  -0.000   0.000
    5    4    3    2        3       1.715   2.845   1.046  -5.607  -0.000   0.000
    6    7    3    4        3      -6.458   0.810   5.682  -0.033  -0.000   0.000
   10    3    2    1        3       0.837   2.510   0.000  -3.347  -0.000   0.000
   10    3    2    9        3       0.628   1.883   0.000  -2.510  -0.000   0.000
   10    3    2    8        3       0.628   1.883   0.000  -2.510  -0.000   0.000
   10    3    4    5        3       1.590   4.770   0.000  -6.360  -0.000   0.000
   10    3    7    6        3       1.590   4.770   0.000  -6.360  -0.000   0.000
    9    2    3    4        3       0.979   2.937   0.000  -3.916  -0.000   0.000
    8    2    3    7        3       0.979   2.937   0.000  -3.916  -0.000   0.000
    9    2    3    7        3       0.979   2.937   0.000  -3.916  -0.000   0.000
    8    2    3    4        3       0.979   2.937   0.000  -3.916  -0.000   0.000
   13    6    5   12        3       0.628   1.883   0.000  -2.510  -0.000   0.000
   13    6    5   11        3       0.628   1.883   0.000  -2.510  -0.000   0.000
   14    6    5   11        3       0.628   1.883   0.000  -2.510  -0.000   0.000
   14    6    5   12        3       0.628   1.883   0.000  -2.510  -0.000   0.000
   13    6    5    4        3       0.979   2.937   0.000  -3.916  -0.000   0.000
   12    5    6    7        3       0.979   2.937   0.000  -3.916  -0.000   0.000
   14    6    5    4        3       0.979   2.937   0.000  -3.916  -0.000   0.000
   11    5    6    7        3       0.979   2.937   0.000  -3.916  -0.000   0.000
   13    6    7    3        3       1.590   4.770   0.000  -6.360  -0.000   0.000
   14    6    7    3        3       1.590   4.770   0.000  -6.360  -0.000   0.000
   12    5    4    3        3       1.590   4.770   0.000  -6.360  -0.000   0.000
   11    5    4    3        3       1.590   4.770   0.000  -6.360  -0.000   0.000
    4    3    2    1        3       0.979   2.937   0.000  -3.916  -0.000   0.000
    7    3    2    1        3       0.979   2.937   0.000  -3.916  -0.000   0.000
    7    3    4    5        3      -6.458   0.810   5.682  -0.033  -0.000   0.000
    7    6    5    4        3      -1.151   1.151   0.000  -0.000  -0.000   0.000

[ pairs ]
     1     4    1
     2     5    1
     2     6    1
     1     7    1
     1    10    1
     4     8    1
     4     9    1
     3    11    1
     7     8    1
     5    10    1
     3    12    1
     7     9    1
     6    10    1
     3    13    1
     4    13    1
     3    14    1
     8    10    1
     7    11    1
     4    14    1
     9    10    1
     7    12    1
    11    13    1
    12    13    1
    11    14    1
    12    14    1

