LIGPARGEN GENERATED GRO FILE
   29
    1UNK    C00    1   0.100   0.100   0.000
    1UNK    C01    2  -0.051   0.100   0.000
    1UNK    O02    3  -0.114   0.100   0.106
    1UNK    C03    4  -0.121   0.106  -0.136
    1UNK    C04    5  -0.253   0.026  -0.134
    1UNK    C05    6  -0.379   0.098  -0.182
    1UNK    C06    7  -0.455   0.170  -0.070
    1UNK    C07    8  -0.401   0.306  -0.028
    1UNK    C08    9  -0.328   0.387  -0.135
    1UNK    C09   10  -0.257   0.304  -0.242
    1UNK    C0A   11  -0.345   0.194  -0.295
    1UNK    C0B   12  -0.127   0.249  -0.186
    1UNK    O0C   13  -0.027   0.321  -0.182
    1UNK    H0D   14   0.136   0.071   0.099
    1UNK    H0E   15   0.138   0.200  -0.024
    1UNK    H0F   16   0.138   0.027  -0.073
    1UNK    H0G   17  -0.055   0.054  -0.206
    1UNK    H0H   18  -0.271  -0.022  -0.037
    1UNK    H0I   19  -0.237  -0.059  -0.203
    1UNK    H0J   20  -0.447   0.020  -0.221
    1UNK    H0K   21  -0.463   0.105   0.018
    1UNK    H0M   22  -0.559   0.185  -0.105
    1UNK    H0N   23  -0.333   0.292   0.058
    1UNK    H0O   24  -0.484   0.366   0.011
    1UNK    H0P   25  -0.257   0.455  -0.086
    1UNK    H0Q   26  -0.402   0.451  -0.186
    1UNK    H0R   27  -0.229   0.369  -0.325
    1UNK    H0S   28  -0.294   0.140  -0.376
    1UNK    H0T   29  -0.437   0.236  -0.337
   1.00000   1.00000   1.00000

