LIGPARGEN GENERATED GRO FILE
   36
    1UNK    C00    1   0.100   0.100   0.000
    1UNK    C01    2  -0.052   0.100   0.000
    1UNK    C02    3  -0.109   0.100   0.142
    1UNK    C03    4  -0.263   0.093   0.139
    1UNK    C04    5  -0.328   0.102   0.278
    1UNK    O05    6  -0.274   0.213   0.352
    1UNK    C06    7  -0.311   0.343   0.308
    1UNK    C07    8  -0.484   0.102   0.277
    1UNK    C08    9  -0.545  -0.013   0.192
    1UNK    C09   10  -0.524  -0.153   0.248
    1UNK    C0A   11  -0.539   0.104   0.421
    1UNK    C0B   12  -0.691   0.115   0.429
    1UNK    H0C   13   0.138   0.100  -0.103
    1UNK    H0D   14   0.139   0.011   0.050
    1UNK    H0E   15   0.139   0.189   0.051
    1UNK    H0F   16  -0.088   0.012  -0.055
    1UNK    H0G   17  -0.088   0.189  -0.054
    1UNK    H0H   18  -0.076   0.190   0.194
    1UNK    H0I   19  -0.070   0.014   0.198
    1UNK    H0J   20  -0.291  -0.001   0.091
    1UNK    H0K   21  -0.300   0.174   0.075
    1UNK    H0M   22  -0.294   0.014   0.334
    1UNK    H0N   23  -0.239   0.414   0.349
    1UNK    H0O   24  -0.410   0.369   0.346
    1UNK    H0P   25  -0.309   0.352   0.199
    1UNK    H0Q   26  -0.517   0.195   0.229
    1UNK    H0R   27  -0.505  -0.009   0.090
    1UNK    H0S   28  -0.653   0.004   0.180
    1UNK    H0T   29  -0.421  -0.170   0.280
    1UNK    H0U   30  -0.547  -0.227   0.171
    1UNK    H0V   31  -0.590  -0.172   0.333
    1UNK    H0W   32  -0.498   0.190   0.475
    1UNK    H0X   33  -0.506   0.015   0.476
    1UNK    H0Y   34  -0.728   0.199   0.370
    1UNK    H0Z   35  -0.722   0.131   0.533
    1UNK    H10   36  -0.740   0.023   0.394
   1.00000   1.00000   1.00000

