LIGPARGEN GENERATED GRO FILE
   27
    1UNK    C00    1   0.100   0.100   0.000
    1UNK    C01    2  -0.052   0.100   0.000
    1UNK    C02    3  -0.118   0.100   0.139
    1UNK    C03    4  -0.076   0.226   0.217
    1UNK    C04    5  -0.112   0.229   0.366
    1UNK    O05    6  -0.257   0.103   0.110
    1UNK    P06    7  -0.359  -0.015   0.150
    1UNK    O07    8  -0.335  -0.075   0.286
    1UNK    Cl0    9  -0.532   0.086   0.146
    1UNK    C09   10  -0.378  -0.132   0.016
    1UNK    C0A   11  -0.299  -0.262   0.019
    1UNK    H0B   12   0.137   0.077  -0.100
    1UNK    H0C   13   0.140   0.025   0.069
    1UNK    H0D   14   0.140   0.199   0.027
    1UNK    H0E   15  -0.087   0.012  -0.056
    1UNK    H0F   16  -0.087   0.186  -0.057
    1UNK    H0G   17  -0.091   0.009   0.194
    1UNK    H0H   18  -0.120   0.315   0.171
    1UNK    H0I   19   0.034   0.239   0.214
    1UNK    H0J   20  -0.218   0.208   0.382
    1UNK    H0K   21  -0.090   0.327   0.408
    1UNK    H0M   22  -0.053   0.156   0.422
    1UNK    H0N   23  -0.366  -0.084  -0.082
    1UNK    H0O   24  -0.483  -0.164   0.021
    1UNK    H0P   25  -0.201  -0.250  -0.028
    1UNK    H0Q   26  -0.353  -0.340  -0.036
    1UNK    H0R   27  -0.284  -0.297   0.122
   1.00000   1.00000   1.00000

