
;
; GENERATED BY LigParGen Server
; Jorgensen Lab @ Yale University 
;
[ atomtypes ]
  opls_807  O807    15.9990     0.000    A    2.96000E-01   8.78640E-01
  opls_818  H818     1.0080     0.000    A    2.50000E-01   1.25520E-01
  opls_824  H824     1.0080     0.000    A    2.50000E-01   1.25520E-01
  opls_804  C804    12.0110     0.000    A    3.50000E-01   2.76144E-01
  opls_808 Cl808    35.4500     0.000    A    3.40000E-01   1.25520E+00
  opls_813  H813     1.0080     0.000    A    2.50000E-01   1.25520E-01
  opls_802  C802    12.0110     0.000    A    3.50000E-01   2.76144E-01
  opls_815  H815     1.0080     0.000    A    2.50000E-01   1.25520E-01
  opls_809  C809    12.0110     0.000    A    3.50000E-01   2.76144E-01
  opls_822  H822     1.0080     0.000    A    2.50000E-01   1.25520E-01
  opls_803  C803    12.0110     0.000    A    3.50000E-01   2.76144E-01
  opls_825  H825     1.0080     0.000    A    2.50000E-01   1.25520E-01
  opls_814  H814     1.0080     0.000    A    2.50000E-01   1.25520E-01
  opls_821  H821     1.0080     0.000    A    2.50000E-01   1.25520E-01
  opls_820  H820     1.0080     0.000    A    2.50000E-01   1.25520E-01
  opls_811  H811     1.0080     0.000    A    2.50000E-01   1.25520E-01
  opls_806  P806    30.9738     0.000    A    3.74000E-01   8.36800E-01
  opls_816  H816     1.0080     0.000    A    2.50000E-01   1.25520E-01
  opls_800  C800    12.0110     0.000    A    3.50000E-01   2.76144E-01
  opls_823  H823     1.0080     0.000    A    2.50000E-01   1.25520E-01
  opls_805  O805    15.9990     0.000    A    2.90000E-01   5.85760E-01
  opls_826  H826     1.0080     0.000    A    2.50000E-01   1.25520E-01
  opls_819  H819     1.0080     0.000    A    2.50000E-01   1.25520E-01
  opls_810  C810    12.0110     0.000    A    3.50000E-01   2.76144E-01
  opls_801  C801    12.0110     0.000    A    3.50000E-01   2.76144E-01
  opls_817  H817     1.0080     0.000    A    2.50000E-01   1.25520E-01
  opls_812  H812     1.0080     0.000    A    2.50000E-01   1.25520E-01
[ moleculetype ]
; Name               nrexcl
UNK                   3
[ atoms ]
;   nr       type  resnr residue  atom   cgnr     charge       mass  
     1   opls_800      1    UNK   C00      1    -0.2359    12.0110 
     2   opls_801      1    UNK   C01      1    -0.2062    12.0110 
     3   opls_802      1    UNK   C02      1     0.1435    12.0110 
     4   opls_803      1    UNK   C03      1    -0.1922    12.0110 
     5   opls_804      1    UNK   C04      1    -0.2432    12.0110 
     6   opls_805      1    UNK   O05      1    -0.8689    15.9990 
     7   opls_806      1    UNK   P06      1     2.8115    30.9738 
     8   opls_807      1    UNK   O07      1    -1.1646    15.9990 
     9   opls_808      1    UNK   Cl0      1    -0.6211    35.4500 
    10   opls_809      1    UNK   C09      1    -0.8664    12.0110 
    11   opls_810      1    UNK   C0A      1    -0.2056    12.0110 
    12   opls_811      1    UNK   H0B      1     0.0884     1.0080 
    13   opls_812      1    UNK   H0C      1     0.0884     1.0080 
    14   opls_813      1    UNK   H0D      1     0.0884     1.0080 
    15   opls_814      1    UNK   H0E      1     0.0973     1.0080 
    16   opls_815      1    UNK   H0F      1     0.0973     1.0080 
    17   opls_816      1    UNK   H0G      1     0.1096     1.0080 
    18   opls_817      1    UNK   H0H      1     0.1075     1.0080 
    19   opls_818      1    UNK   H0I      1     0.1075     1.0080 
    20   opls_819      1    UNK   H0J      1       0.09     1.0080 
    21   opls_820      1    UNK   H0K      1       0.09     1.0080 
    22   opls_821      1    UNK   H0M      1       0.09     1.0080 
    23   opls_822      1    UNK   H0N      1     0.1501     1.0080 
    24   opls_823      1    UNK   H0O      1     0.1501     1.0080 
    25   opls_824      1    UNK   H0P      1     0.0982     1.0080 
    26   opls_825      1    UNK   H0Q      1     0.0982     1.0080 
    27   opls_826      1    UNK   H0R      1     0.0982     1.0080 
[ bonds ]
    2     1     1      0.1529 224262.400
    3     2     1      0.1529 224262.400
    4     3     1      0.1529 224262.400
    5     4     1      0.1529 224262.400
    6     3     1      0.1410 267776.000
    7     6     1      0.1610 192464.000
    8     7     1      0.1480 439320.000
    9     7     1      0.1990 150172.128
   10     7     1      0.1843 177401.600
   11    10     1      0.1529 224262.400
   12     1     1      0.1090 284512.000
   13     1     1      0.1090 284512.000
   14     1     1      0.1090 284512.000
   15     2     1      0.1090 284512.000
   16     2     1      0.1090 284512.000
   17     3     1      0.1090 284512.000
   18     4     1      0.1090 284512.000
   19     4     1      0.1090 284512.000
   20     5     1      0.1090 284512.000
   21     5     1      0.1090 284512.000
   22     5     1      0.1090 284512.000
   23    10     1      0.1090 284512.000
   24    10     1      0.1090 284512.000
   25    11     1      0.1090 284512.000
   26    11     1      0.1090 284512.000
   27    11     1      0.1090 284512.000

[ angles ]
;  ai    aj    ak funct            c0            c1            c2            c3 
    1     2     3     1    112.700    488.273
    2     3     4     1    112.700    488.273
    3     4     5     1    112.700    488.273
    2     3     6     1    109.500    418.400
    3     6     7     1    120.500    836.800
    6     7     8     1    108.230    836.800
    6     7     9     1    108.400    531.954
    6     7    10     1    109.500    376.560
    7    10    11     1    109.500    359.824
    2     1    12     1    110.700    313.800
    2     1    13     1    110.700    313.800
    2     1    14     1    110.700    313.800
    1     2    15     1    110.700    313.800
    1     2    16     1    110.700    313.800
    2     3    17     1    110.700    313.800
    3     4    18     1    110.700    313.800
    3     4    19     1    110.700    313.800
    4     5    20     1    110.700    313.800
    4     5    21     1    110.700    313.800
    4     5    22     1    110.700    313.800
    7    10    23     1    109.500    343.088
    7    10    24     1    109.500    343.088
   10    11    25     1    110.700    313.800
   10    11    26     1    110.700    313.800
   10    11    27     1    110.700    313.800
    9     7    10     1    108.400    531.954
   21     5    22     1    107.800    276.144
   13     1    14     1    107.800    276.144
   20     5    22     1    107.800    276.144
   15     2    16     1    107.800    276.144
    3     2    15     1    110.700    313.800
    8     7    10     1    109.500    376.560
    8     7     9     1    108.400    531.954
   12     1    14     1    107.800    276.144
    3     2    16     1    110.700    313.800
   12     1    13     1    107.800    276.144
   11    10    23     1    110.700    313.800
    5     4    19     1    110.700    313.800
    4     3     6     1    109.500    418.400
   23    10    24     1    107.800    276.144
    6     3    17     1    109.500    292.880
   26    11    27     1    107.800    276.144
   25    11    26     1    107.800    276.144
    4     3    17     1    110.700    313.800
   25    11    27     1    107.800    276.144
   20     5    21     1    107.800    276.144
    5     4    18     1    110.700    313.800
   18     4    19     1    107.800    276.144
   11    10    24     1    110.700    313.800

[ dihedrals ]
; IMPROPER DIHEDRAL ANGLES 
;  ai    aj    ak    al funct            c0            c1            c2            c3            c4            c5

[ dihedrals ]
; PROPER DIHEDRAL ANGLES
;  ai    aj    ak    al funct            c0            c1            c2            c3            c4            c5
    4    3    2    1        3       2.301  -1.464   0.837  -1.674  -0.000   0.000
    5    4    3    2        3       2.301  -1.464   0.837  -1.674  -0.000   0.000
   11   10    7    9        3       0.000   0.000   0.000  -0.000  -0.000   0.000
   11   10    7    8        3       4.707  -4.707   0.000  -0.000  -0.000   0.000
   11   10    7    6        3       4.707  -4.707   0.000  -0.000  -0.000   0.000
   10    7    6    3        3      -3.347   2.092  13.807  -12.552  -0.000   0.000
    9    7    6    3        3      -3.347   2.092  13.807  -12.552  -0.000   0.000
   18    4    3    2        3       0.628   1.883   0.000  -2.510  -0.000   0.000
   19    4    3    2        3       0.628   1.883   0.000  -2.510  -0.000   0.000
   22    5    4    3        3       0.628   1.883   0.000  -2.510  -0.000   0.000
   16    2    3    4        3       0.628   1.883   0.000  -2.510  -0.000   0.000
   13    1    2    3        3       0.628   1.883   0.000  -2.510  -0.000   0.000
   17    3    2    1        3       0.628   1.883   0.000  -2.510  -0.000   0.000
   14    1    2    3        3       0.628   1.883   0.000  -2.510  -0.000   0.000
   17    3    4    5        3       0.628   1.883   0.000  -2.510  -0.000   0.000
   12    1    2    3        3       0.628   1.883   0.000  -2.510  -0.000   0.000
   21    5    4    3        3       0.628   1.883   0.000  -2.510  -0.000   0.000
   20    5    4    3        3       0.628   1.883   0.000  -2.510  -0.000   0.000
   15    2    3    4        3       0.628   1.883   0.000  -2.510  -0.000   0.000
   21    5    4   18        3       0.628   1.883   0.000  -2.510  -0.000   0.000
   15    2    1   14        3       0.628   1.883   0.000  -2.510  -0.000   0.000
   17    3    2   15        3       0.628   1.883   0.000  -2.510  -0.000   0.000
   27   11   10   23        3       0.628   1.883   0.000  -2.510  -0.000   0.000
   19    4    3   17        3       0.628   1.883   0.000  -2.510  -0.000   0.000
   26   11   10   24        3       0.628   1.883   0.000  -2.510  -0.000   0.000
   22    5    4   18        3       0.628   1.883   0.000  -2.510  -0.000   0.000
   16    2    1   14        3       0.628   1.883   0.000  -2.510  -0.000   0.000
   20    5    4   18        3       0.628   1.883   0.000  -2.510  -0.000   0.000
   15    2    1   13        3       0.628   1.883   0.000  -2.510  -0.000   0.000
   22    5    4   19        3       0.628   1.883   0.000  -2.510  -0.000   0.000
   25   11   10   23        3       0.628   1.883   0.000  -2.510  -0.000   0.000
   16    2    1   13        3       0.628   1.883   0.000  -2.510  -0.000   0.000
   20    5    4   19        3       0.628   1.883   0.000  -2.510  -0.000   0.000
   16    2    1   12        3       0.628   1.883   0.000  -2.510  -0.000   0.000
   27   11   10   24        3       0.628   1.883   0.000  -2.510  -0.000   0.000
   18    4    3   17        3       0.628   1.883   0.000  -2.510  -0.000   0.000
   26   11   10   23        3       0.628   1.883   0.000  -2.510  -0.000   0.000
   15    2    1   12        3       0.628   1.883   0.000  -2.510  -0.000   0.000
   17    3    2   16        3       0.628   1.883   0.000  -2.510  -0.000   0.000
   21    5    4   19        3       0.628   1.883   0.000  -2.510  -0.000   0.000
   25   11   10   24        3       0.628   1.883   0.000  -2.510  -0.000   0.000
   16    2    3    6        3       0.979   2.937   0.000  -3.916  -0.000   0.000
   19    4    3    6        3       0.979   2.937   0.000  -3.916  -0.000   0.000
   15    2    3    6        3       0.979   2.937   0.000  -3.916  -0.000   0.000
   18    4    3    6        3       0.979   2.937   0.000  -3.916  -0.000   0.000
   25   11   10    7        3       0.628   1.883   0.000  -2.510  -0.000   0.000
   26   11   10    7        3       0.628   1.883   0.000  -2.510  -0.000   0.000
   27   11   10    7        3       0.628   1.883   0.000  -2.510  -0.000   0.000
   17    3    6    7        3       0.628   1.883   0.000  -2.510  -0.000   0.000
   24   10    7    9        3       0.753   2.259   0.000  -3.012  -0.000   0.000
   23   10    7    9        3       0.753   2.259   0.000  -3.012  -0.000   0.000
   24   10    7    8        3       0.523   1.569   0.000  -2.092  -0.000   0.000
   23   10    7    8        3       0.523   1.569   0.000  -2.092  -0.000   0.000
   24   10    7    6        3       0.523   1.569   0.000  -2.092  -0.000   0.000
   23   10    7    6        3       0.523   1.569   0.000  -2.092  -0.000   0.000
    8    7    6    3        3       0.000   0.000   0.000  -0.000  -0.000   0.000
    6    3    4    5        3       2.874   0.582   2.092  -5.548  -0.000   0.000
    6    3    2    1        3       2.874   0.582   2.092  -5.548  -0.000   0.000
    7    6    3    4        3      -5.356   3.598   2.594  -0.837  -0.000   0.000
    7    6    3    2        3      -5.356   3.598   2.594  -0.837  -0.000   0.000

[ pairs ]
     1     4    1
     2     5    1
     1     6    1
     2     7    1
     5     6    1
     4     7    1
     3     8    1
     3     9    1
     3    10    1
     3    12    1
     3    13    1
     6    11    1
     3    14    1
     1    17    1
     8    11    1
     4    15    1
     9    11    1
     4    16    1
     2    18    1
     6    15    1
     2    19    1
     6    16    1
     5    17    1
     3    20    1
     7    17    1
     6    18    1
     3    21    1
     6    19    1
     3    22    1
    12    15    1
    13    15    1
    12    16    1
    14    15    1
    13    16    1
     6    23    1
    14    16    1
     6    24    1
     8    23    1
    15    17    1
     9    23    1
     8    24    1
     7    25    1
    16    17    1
     9    24    1
     7    26    1
     7    27    1
    17    18    1
    17    19    1
    18    20    1
    19    20    1
    18    21    1
    19    21    1
    18    22    1
    19    22    1
    23    25    1
    24    25    1
    23    26    1
    24    26    1
    23    27    1
    24    27    1

