
;
; GENERATED BY LigParGen Server
; Jorgensen Lab @ Yale University 
;
[ atomtypes ]
  opls_818  H818     1.0080     0.000    A    2.50000E-01   1.25520E-01
  opls_824  H824     1.0080     0.000    A    2.50000E-01   1.25520E-01
  opls_805  C805    12.0110     0.000    A    3.50000E-01   2.76144E-01
  opls_807  O807    15.9990     0.000    A    2.96000E-01   7.11280E-01
  opls_804  S804    32.0600     0.000    A    3.55000E-01   1.04600E+00
  opls_813  H813     1.0080     0.000    A    2.50000E-01   1.25520E-01
  opls_815  H815     1.0080     0.000    A    2.50000E-01   1.25520E-01
  opls_809  C809    12.0110     0.000    A    3.50000E-01   2.76144E-01
  opls_822  H822     1.0080     0.000    A    2.50000E-01   1.25520E-01
  opls_803  C803    12.0110     0.000    A    3.50000E-01   2.76144E-01
  opls_808  C808    12.0110     0.000    A    3.45000E-01   3.47272E-01
  opls_825  H825     1.0080     0.000    A    2.50000E-01   1.25520E-01
  opls_826  H826     1.0080     0.000    A    2.50000E-01   1.25520E-01
  opls_814  H814     1.0080     0.000    A    2.50000E-01   1.25520E-01
  opls_821  H821     1.0080     0.000    A    2.50000E-01   1.25520E-01
  opls_820  H820     1.0080     0.000    A    2.50000E-01   1.25520E-01
  opls_811  H811     1.0080     0.000    A    2.50000E-01   1.25520E-01
  opls_816  H816     1.0080     0.000    A    2.50000E-01   1.25520E-01
  opls_800  C800    12.0110     0.000    A    3.50000E-01   2.76144E-01
  opls_823  H823     1.0080     0.000    A    2.50000E-01   1.25520E-01
  opls_802  C802    12.0110     0.000    A    3.45000E-01   3.47272E-01
  opls_819  H819     1.0080     0.000    A    2.50000E-01   1.25520E-01
  opls_810  C810    12.0110     0.000    A    3.50000E-01   2.76144E-01
  opls_817  H817     1.0080     0.000    A    2.50000E-01   1.25520E-01
  opls_806  O806    15.9990     0.000    A    2.96000E-01   7.11280E-01
  opls_801  C801    12.0110     0.000    A    3.45000E-01   3.47272E-01
  opls_812  H812     1.0080     0.000    A    2.50000E-01   1.25520E-01
[ moleculetype ]
; Name               nrexcl
UNK                   3
[ atoms ]
;   nr       type  resnr residue  atom   cgnr     charge       mass  
     1   opls_800      1    UNK   C00      1    -0.2096    12.0110 
     2   opls_801      1    UNK   C01      1    -0.1491    12.0110 
     3   opls_802      1    UNK   C02      1    -0.1883    12.0110 
     4   opls_803      1    UNK   C03      1    -0.4458    12.0110 
     5   opls_804      1    UNK   S04      1      1.284    32.0600 
     6   opls_805      1    UNK   C05      1    -0.5715    12.0110 
     7   opls_806      1    UNK   O06      1    -0.5715    15.9990 
     8   opls_807      1    UNK   O07      1    -0.5715    15.9990 
     9   opls_808      1    UNK   C08      1    -0.1053    12.0110 
    10   opls_809      1    UNK   C09      1    -0.2038    12.0110 
    11   opls_810      1    UNK   C0A      1    -0.2091    12.0110 
    12   opls_811      1    UNK   H0B      1     0.0895     1.0080 
    13   opls_812      1    UNK   H0C      1     0.0895     1.0080 
    14   opls_813      1    UNK   H0D      1     0.0895     1.0080 
    15   opls_814      1    UNK   H0E      1     0.1351     1.0080 
    16   opls_815      1    UNK   H0F      1     0.1578     1.0080 
    17   opls_816      1    UNK   H0G      1     0.1708     1.0080 
    18   opls_817      1    UNK   H0H      1     0.1708     1.0080 
    19   opls_818      1    UNK   H0I      1     0.1657     1.0080 
    20   opls_819      1    UNK   H0J      1     0.1657     1.0080 
    21   opls_820      1    UNK   H0K      1     0.1657     1.0080 
    22   opls_821      1    UNK   H0M      1     0.0899     1.0080 
    23   opls_822      1    UNK   H0N      1     0.0899     1.0080 
    24   opls_823      1    UNK   H0O      1     0.0899     1.0080 
    25   opls_824      1    UNK   H0P      1     0.0907     1.0080 
    26   opls_825      1    UNK   H0Q      1     0.0907     1.0080 
    27   opls_826      1    UNK   H0R      1     0.0907     1.0080 
[ bonds ]
    2     1     1      0.1510 234304.000
    3     2     1      0.1520 217568.000
    4     3     1      0.1510 234304.000
    5     4     1      0.1770 284512.000
    6     5     1      0.1770 284512.000
    7     5     1      0.1440 585760.000
    8     5     1      0.1440 585760.000
    9     2     1      0.1520 217568.000
   10     9     1      0.1510 234304.000
   11     9     1      0.1510 234304.000
   12     1     1      0.1090 284512.000
   13     1     1      0.1090 284512.000
   14     1     1      0.1090 284512.000
   15     2     1      0.1088 284512.000
   16     3     1      0.1088 284512.000
   17     4     1      0.1090 284512.000
   18     4     1      0.1090 284512.000
   19     6     1      0.1090 284512.000
   20     6     1      0.1090 284512.000
   21     6     1      0.1090 284512.000
   22    10     1      0.1090 284512.000
   23    10     1      0.1090 284512.000
   24    10     1      0.1090 284512.000
   25    11     1      0.1090 284512.000
   26    11     1      0.1090 284512.000
   27    11     1      0.1090 284512.000
    9     3     1      0.1520 217568.000

[ angles ]
;  ai    aj    ak funct            c0            c1            c2            c3 
    1     2     3     1    117.200    313.800
    2     3     4     1    117.200    313.800
    3     4     5     1    108.600    418.400
    4     5     6     1    102.000    518.816
    4     5     7     1    108.900    619.232
    4     5     8     1    108.900    619.232
    1     2     9     1    117.200    313.800
    2     9    10     1    117.200    313.800
    2     9    11     1    117.200    313.800
    2     1    12     1    110.700    313.800
    2     1    13     1    110.700    313.800
    2     1    14     1    110.700    313.800
    1     2    15     1    114.300    292.880
    2     3    16     1    117.200    313.800
    3     4    17     1    110.700    313.800
    3     4    18     1    110.700    313.800
    5     6    19     1    109.500    292.880
    5     6    20     1    109.500    292.880
    5     6    21     1    109.500    292.880
    9    10    22     1    110.700    313.800
    9    10    23     1    110.700    313.800
    9    10    24     1    110.700    313.800
    9    11    25     1    110.700    313.800
    9    11    26     1    110.700    313.800
    9    11    27     1    110.700    313.800
   13     1    14     1    107.800    276.144
    9     3    16     1    117.200    313.800
   20     6    21     1    107.800    276.144
    2     3     9     1     83.000    251.040
    3     2    15     1    117.200    313.800
   22    10    23     1    107.800    276.144
   12     1    14     1    107.800    276.144
   17     4    18     1    107.800    276.144
    3     9    10     1    117.200    313.800
   19     6    21     1    107.800    276.144
    4     3     9     1    117.200    313.800
    3     9    11     1    117.200    313.800
   22    10    24     1    107.800    276.144
   19     6    20     1    107.800    276.144
    6     5     7     1    108.900    619.232
   12     1    13     1    107.800    276.144
    6     5     8     1    108.900    619.232
   23    10    24     1    107.800    276.144
   10     9    11     1    114.300    292.880
    3     2     9     1     83.000    251.040
    7     5     8     1    119.000    870.272
   26    11    27     1    107.800    276.144
    4     3    16     1    114.300    292.880
    2     9     3     1     83.000    251.040
   25    11    26     1    107.800    276.144
   25    11    27     1    107.800    276.144
    5     4    18     1    109.500    292.880
    9     2    15     1    117.200    313.800
    5     4    17     1    109.500    292.880

[ dihedrals ]
; IMPROPER DIHEDRAL ANGLES 
;  ai    aj    ak    al funct            c0            c1            c2            c3            c4            c5

[ dihedrals ]
; PROPER DIHEDRAL ANGLES
;  ai    aj    ak    al funct            c0            c1            c2            c3            c4            c5
    4    3    2    1        3       0.000   0.000   0.000  -0.000  -0.000   0.000
   10    9    3    4        3       0.000   0.000   0.000  -0.000  -0.000   0.000
   11    9    3    4        3       0.000   0.000   0.000  -0.000  -0.000   0.000
   11    9    2    1        3       0.000   0.000   0.000  -0.000  -0.000   0.000
   10    9    2    1        3       0.000   0.000   0.000  -0.000  -0.000   0.000
   11    9    3    2        3       0.000   0.000   0.000  -0.000  -0.000   0.000
    4    3    9    2        3       0.000   0.000   0.000  -0.000  -0.000   0.000
   10    9    3    2        3       0.000   0.000   0.000  -0.000  -0.000   0.000
   11    9    2    3        3       0.000   0.000   0.000  -0.000  -0.000   0.000
   10    9    2    3        3       0.000   0.000   0.000  -0.000  -0.000   0.000
    6    5    4    3        3       0.000   0.000   0.000  -0.000  -0.000   0.000
    9    2    1    3        3       0.000   0.000   0.000  -0.000  -0.000   0.000
    9    3    4    5        3       2.784   0.278   0.828  -3.891  -0.000   0.000
   24   10    9   11        3       0.628   1.883   0.000  -2.510  -0.000   0.000
   25   11    9   10        3       0.628   1.883   0.000  -2.510  -0.000   0.000
   22   10    9   11        3       0.628   1.883   0.000  -2.510  -0.000   0.000
   23   10    9   11        3       0.628   1.883   0.000  -2.510  -0.000   0.000
   27   11    9   10        3       0.628   1.883   0.000  -2.510  -0.000   0.000
   26   11    9   10        3       0.628   1.883   0.000  -2.510  -0.000   0.000
   14    1    2    3        3       0.628   1.883   0.000  -2.510  -0.000   0.000
   27   11    9    2        3       0.628   1.883   0.000  -2.510  -0.000   0.000
   14    1    2    9        3       0.628   1.883   0.000  -2.510  -0.000   0.000
   26   11    9    3        3       0.628   1.883   0.000  -2.510  -0.000   0.000
   13    1    2    9        3       0.628   1.883   0.000  -2.510  -0.000   0.000
   24   10    9    3        3       0.628   1.883   0.000  -2.510  -0.000   0.000
   18    4    3    9        3       0.628   1.883   0.000  -2.510  -0.000   0.000
   25   11    9    3        3       0.628   1.883   0.000  -2.510  -0.000   0.000
   26   11    9    2        3       0.628   1.883   0.000  -2.510  -0.000   0.000
   27   11    9    3        3       0.628   1.883   0.000  -2.510  -0.000   0.000
   23   10    9    2        3       0.628   1.883   0.000  -2.510  -0.000   0.000
   22   10    9    3        3       0.628   1.883   0.000  -2.510  -0.000   0.000
   24   10    9    2        3       0.628   1.883   0.000  -2.510  -0.000   0.000
   12    1    2    9        3       0.628   1.883   0.000  -2.510  -0.000   0.000
   18    4    3    2        3       0.628   1.883   0.000  -2.510  -0.000   0.000
   25   11    9    2        3       0.628   1.883   0.000  -2.510  -0.000   0.000
   12    1    2    3        3       0.628   1.883   0.000  -2.510  -0.000   0.000
   22   10    9    2        3       0.628   1.883   0.000  -2.510  -0.000   0.000
   17    4    3    2        3       0.628   1.883   0.000  -2.510  -0.000   0.000
   13    1    2    3        3       0.628   1.883   0.000  -2.510  -0.000   0.000
   23   10    9    3        3       0.628   1.883   0.000  -2.510  -0.000   0.000
   17    4    3    9        3       0.628   1.883   0.000  -2.510  -0.000   0.000
   18    4    3   16        3       0.628   1.883   0.000  -2.510  -0.000   0.000
   17    4    3   16        3       0.628   1.883   0.000  -2.510  -0.000   0.000
   21    6    5    4        3       0.732   2.197   0.000  -2.929  -0.000   0.000
   19    6    5    4        3       0.732   2.197   0.000  -2.929  -0.000   0.000
   17    4    5    6        3       0.732   2.197   0.000  -2.929  -0.000   0.000
   20    6    5    4        3       0.732   2.197   0.000  -2.929  -0.000   0.000
   18    4    5    6        3       0.732   2.197   0.000  -2.929  -0.000   0.000
   20    6    5    7        3       0.732   2.197   0.000  -2.929  -0.000   0.000
   18    4    5    8        3       0.732   2.197   0.000  -2.929  -0.000   0.000
   19    6    5    8        3       0.732   2.197   0.000  -2.929  -0.000   0.000
   17    4    5    7        3       0.732   2.197   0.000  -2.929  -0.000   0.000
   17    4    5    8        3       0.732   2.197   0.000  -2.929  -0.000   0.000
   18    4    5    7        3       0.732   2.197   0.000  -2.929  -0.000   0.000
   20    6    5    8        3       0.732   2.197   0.000  -2.929  -0.000   0.000
   19    6    5    7        3       0.732   2.197   0.000  -2.929  -0.000   0.000
   21    6    5    8        3       0.732   2.197   0.000  -2.929  -0.000   0.000
   21    6    5    7        3       0.732   2.197   0.000  -2.929  -0.000   0.000
   15    2    1   13        3       0.628   1.883   0.000  -2.510  -0.000   0.000
   15    2    1   12        3       0.628   1.883   0.000  -2.510  -0.000   0.000
   15    2    1   14        3       0.628   1.883   0.000  -2.510  -0.000   0.000
   16    3    4    5        3       0.946   2.837   0.000  -3.782  -0.000   0.000
   16    3    9   11        3       0.000   0.000   0.000  -0.000  -0.000   0.000
   15    2    3    4        3       0.000   0.000   0.000  -0.000  -0.000   0.000
   15    2    9   10        3       0.000   0.000   0.000  -0.000  -0.000   0.000
   16    3    2    1        3       0.000   0.000   0.000  -0.000  -0.000   0.000
   16    3    9   10        3       0.000   0.000   0.000  -0.000  -0.000   0.000
   15    2    9   11        3       0.000   0.000   0.000  -0.000  -0.000   0.000
   16    3    9    2        3       0.000   0.000   0.000  -0.000  -0.000   0.000
   16    3    2    9        3       0.000   0.000   0.000  -0.000  -0.000   0.000
   15    2    9    3        3       0.000   0.000   0.000  -0.000  -0.000   0.000
   15    2    3    9        3       0.000   0.000   0.000  -0.000  -0.000   0.000
   16    3    2   15        3       0.000   0.000   0.000  -0.000  -0.000   0.000
    8    5    4    3        3       0.000   0.000   0.000  -0.000  -0.000   0.000
    7    5    4    3        3       0.000   0.000   0.000  -0.000  -0.000   0.000
    5    4    3    2        3       2.784   0.278   0.828  -3.891  -0.000   0.000

[ pairs ]
     1     4    1
     2     5    1
     3     6    1
     3     7    1
     3     8    1
     1    10    1
     1    11    1
     5     9    1
     4    10    1
     4    11    1
     3    12    1
     3    13    1
     3    14    1
     1    16    1
     4    15    1
     2    17    1
     2    18    1
     9    12    1
     5    16    1
     9    13    1
     9    14    1
     6    17    1
     4    19    1
     7    17    1
     6    18    1
     4    20    1
     2    22    1
    10    15    1
     8    17    1
     7    18    1
     4    21    1
     3    22    1
     2    23    1
    11    15    1
    10    16    1
     9    17    1
     8    18    1
     7    19    1
     3    23    1
     2    24    1
    12    15    1
    11    16    1
     9    18    1
     8    19    1
     7    20    1
     3    24    1
     2    25    1
    13    15    1
     8    20    1
     7    21    1
     3    25    1
     2    26    1
    14    15    1
     8    21    1
     3    26    1
     2    27    1
     3    27    1
    15    16    1
    16    17    1
    11    22    1
    16    18    1
    11    23    1
    11    24    1
    10    25    1
    10    26    1
    10    27    1

