LIGPARGEN GENERATED GRO FILE
   27
    1UNK    C00    1   0.100   0.100   0.000
    1UNK    C01    2  -0.049   0.100   0.000
    1UNK    C02    3  -0.132   0.100   0.127
    1UNK    C03    4  -0.069   0.100   0.263
    1UNK    S04    5  -0.201   0.100   0.385
    1UNK    C05    6  -0.297   0.245   0.350
    1UNK    O06    7  -0.286  -0.016   0.363
    1UNK    O07    8  -0.140   0.121   0.515
    1UNK    C08    9  -0.131   0.223   0.036
    1UNK    C09   10  -0.060   0.350   0.075
    1UNK    C0A   11  -0.257   0.248  -0.045
    1UNK    H0B   12   0.137  -0.001  -0.020
    1UNK    H0C   13   0.143   0.133   0.095
    1UNK    H0D   14   0.137   0.166  -0.079
    1UNK    H0E   15  -0.085   0.039  -0.083
    1UNK    H0F   16  -0.217   0.031   0.123
    1UNK    H0G   17  -0.006   0.187   0.284
    1UNK    H0H   18  -0.012   0.009   0.280
    1UNK    H0I   19  -0.346   0.234   0.253
    1UNK    H0J   20  -0.231   0.332   0.352
    1UNK    H0K   21  -0.373   0.255   0.428
    1UNK    H0M   22   0.033   0.333   0.130
    1UNK    H0N   23  -0.125   0.411   0.138
    1UNK    H0O   24  -0.035   0.408  -0.014
    1UNK    H0P   25  -0.306   0.154  -0.073
    1UNK    H0Q   26  -0.232   0.302  -0.137
    1UNK    H0R   27  -0.328   0.308   0.013
   1.00000   1.00000   1.00000

