LIGPARGEN GENERATED GRO FILE
   21
    1UNK    C00    1   0.100   0.100   0.000
    1UNK    S01    2  -0.081   0.100   0.000
    1UNK    C02    3  -0.108   0.100   0.180
    1UNK    C03    4  -0.257   0.100   0.210
    1UNK    C04    5  -0.282   0.100   0.360
    1UNK    O05    6  -0.201   0.051   0.439
    1UNK    C06    7  -0.409   0.164   0.410
    1UNK    S07    8  -0.557   0.082   0.343
    1UNK    C08    9  -0.533  -0.083   0.414
    1UNK    H09   10   0.136   0.100  -0.103
    1UNK    H0A   11   0.138   0.011   0.050
    1UNK    H0B   12   0.138   0.190   0.050
    1UNK    H0C   13  -0.060   0.189   0.223
    1UNK    H0D   14  -0.060   0.011   0.223
    1UNK    H0E   15  -0.305   0.011   0.168
    1UNK    H0F   16  -0.304   0.190   0.167
    1UNK    H0G   17  -0.409   0.269   0.380
    1UNK    H0H   18  -0.412   0.161   0.519
    1UNK    H0I   19  -0.616  -0.147   0.382
    1UNK    H0J   20  -0.532  -0.078   0.523
    1UNK    H0K   21  -0.441  -0.128   0.377
   1.00000   1.00000   1.00000

