
;
; GENERATED BY LigParGen Server
; Jorgensen Lab @ Yale University 
;
[ atomtypes ]
  opls_810  H810     1.0080     0.000    A    2.50000E-01   1.25520E-01
  opls_804  C804    12.0110     0.000    A    3.55000E-01   2.92880E-01
  opls_807  S807    32.0600     0.000    A    3.60000E-01   1.48532E+00
  opls_818  H818     1.0080     0.000    A    2.50000E-01   1.25520E-01
  opls_808  C808    12.0110     0.000    A    3.50000E-01   2.76144E-01
  opls_800  C800    12.0110     0.000    A    3.50000E-01   2.76144E-01
  opls_806  C806    12.0110     0.000    A    3.50000E-01   2.76144E-01
  opls_814  H814     1.0080     0.000    A    2.50000E-01   1.25520E-01
  opls_817  H817     1.0080     0.000    A    2.50000E-01   1.25520E-01
  opls_803  C803    12.0110     0.000    A    3.50000E-01   2.76144E-01
  opls_812  H812     1.0080     0.000    A    2.50000E-01   1.25520E-01
  opls_805  O805    15.9990     0.000    A    2.96000E-01   8.78640E-01
  opls_802  C802    12.0110     0.000    A    3.50000E-01   2.76144E-01
  opls_801  S801    32.0600     0.000    A    3.60000E-01   1.48532E+00
  opls_809  H809     1.0080     0.000    A    2.50000E-01   1.25520E-01
  opls_819  H819     1.0080     0.000    A    2.50000E-01   1.25520E-01
  opls_820  H820     1.0080     0.000    A    2.50000E-01   1.25520E-01
  opls_813  H813     1.0080     0.000    A    2.50000E-01   1.25520E-01
  opls_811  H811     1.0080     0.000    A    2.50000E-01   1.25520E-01
  opls_816  H816     1.0080     0.000    A    2.50000E-01   1.25520E-01
  opls_815  H815     1.0080     0.000    A    2.50000E-01   1.25520E-01
[ moleculetype ]
; Name               nrexcl
UNK                   3
[ atoms ]
;   nr       type  resnr residue  atom   cgnr     charge       mass  
     1   opls_800      1    UNK   C00      1    -0.0747    12.0110 
     2   opls_801      1    UNK   S01      1    -0.5313    32.0600 
     3   opls_802      1    UNK   C02      1    -0.0027    12.0110 
     4   opls_803      1    UNK   C03      1    -0.2107    12.0110 
     5   opls_804      1    UNK   C04      1     0.4152    12.0110 
     6   opls_805      1    UNK   O05      1    -0.4949    15.9990 
     7   opls_806      1    UNK   C06      1    -0.0781    12.0110 
     8   opls_807      1    UNK   S07      1     -0.495    32.0600 
     9   opls_808      1    UNK   C08      1    -0.0798    12.0110 
    10   opls_809      1    UNK   H09      1     0.1155     1.0080 
    11   opls_810      1    UNK   H0A      1     0.1155     1.0080 
    12   opls_811      1    UNK   H0B      1     0.1155     1.0080 
    13   opls_812      1    UNK   H0C      1     0.1245     1.0080 
    14   opls_813      1    UNK   H0D      1     0.1245     1.0080 
    15   opls_814      1    UNK   H0E      1     0.1425     1.0080 
    16   opls_815      1    UNK   H0F      1     0.1425     1.0080 
    17   opls_816      1    UNK   H0G      1     0.1541     1.0080 
    18   opls_817      1    UNK   H0H      1     0.1541     1.0080 
    19   opls_818      1    UNK   H0I      1     0.1211     1.0080 
    20   opls_819      1    UNK   H0J      1     0.1211     1.0080 
    21   opls_820      1    UNK   H0K      1     0.1211     1.0080 
[ bonds ]
    2     1     1      0.1810 185769.600
    3     2     1      0.1810 185769.600
    4     3     1      0.1529 224262.400
    5     4     1      0.1522 265265.600
    6     5     1      0.1229 476976.000
    7     5     1      0.1522 265265.600
    8     7     1      0.1810 185769.600
    9     8     1      0.1810 185769.600
   10     1     1      0.1090 284512.000
   11     1     1      0.1090 284512.000
   12     1     1      0.1090 284512.000
   13     3     1      0.1090 284512.000
   14     3     1      0.1090 284512.000
   15     4     1      0.1090 284512.000
   16     4     1      0.1090 284512.000
   17     7     1      0.1090 284512.000
   18     7     1      0.1090 284512.000
   19     9     1      0.1090 284512.000
   20     9     1      0.1090 284512.000
   21     9     1      0.1090 284512.000

[ angles ]
;  ai    aj    ak funct            c0            c1            c2            c3 
    1     2     3     1     98.900    518.816
    2     3     4     1    114.700    418.400
    3     4     5     1    111.100    527.184
    4     5     6     1    120.400    669.440
    4     5     7     1    116.000    585.760
    5     7     8     1    110.580    432.207
    7     8     9     1     98.900    518.816
    2     1    10     1    109.500    292.880
    2     1    11     1    109.500    292.880
    2     1    12     1    109.500    292.880
    2     3    13     1    109.500    292.880
    2     3    14     1    109.500    292.880
    3     4    15     1    110.700    313.800
    3     4    16     1    110.700    313.800
    5     7    17     1    109.500    292.880
    5     7    18     1    109.500    292.880
    8     9    19     1    109.500    292.880
    8     9    20     1    109.500    292.880
    8     9    21     1    109.500    292.880
   15     4    16     1    107.800    276.144
    8     7    18     1    109.500    292.880
   19     9    21     1    107.800    276.144
   20     9    21     1    107.800    276.144
    5     4    16     1    109.500    292.880
   11     1    12     1    107.800    276.144
    6     5     7     1    120.400    669.440
    5     4    15     1    109.500    292.880
   13     3    14     1    107.800    276.144
   10     1    12     1    107.800    276.144
   10     1    11     1    107.800    276.144
    8     7    17     1    109.500    292.880
    4     3    14     1    110.700    313.800
   17     7    18     1    107.800    276.144
    4     3    13     1    110.700    313.800
   19     9    20     1    107.800    276.144

[ dihedrals ]
; IMPROPER DIHEDRAL ANGLES 
;  ai    aj    ak    al funct            c0            c1            c2            c3            c4            c5
     7     5     4     6    4        180.000     43.932     2  

[ dihedrals ]
; PROPER DIHEDRAL ANGLES
;  ai    aj    ak    al funct            c0            c1            c2            c3            c4            c5
    5    4    3    2        3      -16.259   9.088   7.171  -0.000  -0.000   0.000
    7    5    4    3        3       0.818  -7.906   0.602   6.485  -0.000   0.000
    4    3    2    1        3       0.941   2.314   2.410  -5.665  -0.000   0.000
    9    8    7    5        3       0.941   2.314   2.410  -5.665  -0.000   0.000
   18    7    5    4        3       0.575   1.726   0.000  -2.301  -0.000   0.000
   17    7    5    4        3       0.575   1.726   0.000  -2.301  -0.000   0.000
   16    4    5    7        3       0.575   1.726   0.000  -2.301  -0.000   0.000
   15    4    5    7        3       0.575   1.726   0.000  -2.301  -0.000   0.000
   18    7    5    6        3       0.000   0.000   0.000  -0.000  -0.000   0.000
   17    7    5    6        3       0.000   0.000   0.000  -0.000  -0.000   0.000
   15    4    5    6        3       0.000   0.000   0.000  -0.000  -0.000   0.000
   16    4    5    6        3       0.000   0.000   0.000  -0.000  -0.000   0.000
   14    3    4    5        3      -0.209  -0.628   0.000   0.837  -0.000   0.000
   13    3    4    5        3      -0.209  -0.628   0.000   0.837  -0.000   0.000
   15    4    3   14        3       0.628   1.883   0.000  -2.510  -0.000   0.000
   15    4    3   13        3       0.628   1.883   0.000  -2.510  -0.000   0.000
   16    4    3   13        3       0.628   1.883   0.000  -2.510  -0.000   0.000
   16    4    3   14        3       0.628   1.883   0.000  -2.510  -0.000   0.000
   15    4    3    2        3       0.946   2.837   0.000  -3.782  -0.000   0.000
   16    4    3    2        3       0.946   2.837   0.000  -3.782  -0.000   0.000
   14    3    2    1        3       1.354   4.061   0.000  -5.414  -0.000   0.000
   20    9    8    7        3       1.354   4.061   0.000  -5.414  -0.000   0.000
   13    3    2    1        3       1.354   4.061   0.000  -5.414  -0.000   0.000
   18    7    8    9        3       1.354   4.061   0.000  -5.414  -0.000   0.000
   17    7    8    9        3       1.354   4.061   0.000  -5.414  -0.000   0.000
   12    1    2    3        3       1.354   4.061   0.000  -5.414  -0.000   0.000
   21    9    8    7        3       1.354   4.061   0.000  -5.414  -0.000   0.000
   11    1    2    3        3       1.354   4.061   0.000  -5.414  -0.000   0.000
   19    9    8    7        3       1.354   4.061   0.000  -5.414  -0.000   0.000
   10    1    2    3        3       1.354   4.061   0.000  -5.414  -0.000   0.000
    6    5    4    3        3       0.000   0.000   0.000  -0.000  -0.000   0.000
    8    7    5    4        3       3.425  -3.860   2.594  -2.159  -0.000   0.000
    8    7    5    6        3       0.000   0.000   0.000  -0.000  -0.000   0.000

[ pairs ]
     1     4    1
     2     5    1
     3     6    1
     3     7    1
     4     8    1
     3    10    1
     6     8    1
     5     9    1
     3    11    1
     1    13    1
     3    12    1
     1    14    1
     2    15    1
     5    13    1
     2    16    1
     5    14    1
     6    15    1
     4    17    1
     7    15    1
     6    16    1
     4    18    1
     7    16    1
     6    17    1
     6    18    1
     9    17    1
     7    19    1
     9    18    1
     7    20    1
    13    15    1
     7    21    1
    14    15    1
    13    16    1
    14    16    1

