LIGPARGEN GENERATED GRO FILE
   23
    1UNK    C00    1   0.100   0.100   0.000
    1UNK    C01    2  -0.052   0.100   0.000
    1UNK    C02    3  -0.108   0.100   0.143
    1UNK    C03    4  -0.261   0.100   0.142
    1UNK    C04    5  -0.322   0.100   0.283
    1UNK    C05    6  -0.284   0.224   0.364
    1UNK    S06    7  -0.502   0.088   0.274
    1UNK    O07    8  -0.556   0.082   0.408
    1UNK    O08    9  -0.552   0.183   0.177
    1UNK    Cl0   10  -0.545  -0.096   0.195
    1UNK    H0A   11   0.138   0.100  -0.103
    1UNK    H0B   12   0.139   0.011   0.051
    1UNK    H0C   13   0.139   0.189   0.051
    1UNK    H0D   14  -0.088   0.012  -0.054
    1UNK    H0E   15  -0.088   0.189  -0.054
    1UNK    H0F   16  -0.070   0.189   0.195
    1UNK    H0G   17  -0.071   0.012   0.197
    1UNK    H0H   18  -0.295   0.012   0.087
    1UNK    H0I   19  -0.297   0.188   0.086
    1UNK    H0J   20  -0.290   0.011   0.338
    1UNK    H0K   21  -0.314   0.316   0.312
    1UNK    H0M   22  -0.176   0.228   0.383
    1UNK    H0N   23  -0.334   0.224   0.462
   1.00000   1.00000   1.00000

