LIGPARGEN GENERATED GRO FILE
   29
    1UNK    C00    1   0.100   0.100   0.000
    1UNK    C01    2  -0.052   0.100   0.000
    1UNK    C02    3  -0.107   0.100   0.142
    1UNK    C03    4  -0.260   0.100   0.142
    1UNK    C04    5  -0.316   0.100   0.284
    1UNK    O05    6  -0.460   0.099   0.281
    1UNK    C06    7  -0.517  -0.023   0.263
    1UNK    O07    8  -0.455  -0.128   0.250
    1UNK    C08    9  -0.669  -0.012   0.268
    1UNK    C09   10  -0.720   0.085   0.162
    1UNK    C0A   11  -0.732  -0.149   0.249
    1UNK    H0B   12   0.138   0.100  -0.103
    1UNK    H0C   13   0.139   0.011   0.051
    1UNK    H0D   14   0.139   0.189   0.051
    1UNK    H0E   15  -0.088   0.012  -0.054
    1UNK    H0F   16  -0.088   0.188  -0.054
    1UNK    H0G   17  -0.071   0.188   0.196
    1UNK    H0H   18  -0.071   0.012   0.196
    1UNK    H0I   19  -0.297   0.013   0.087
    1UNK    H0J   20  -0.298   0.188   0.089
    1UNK    H0K   21  -0.285   0.191   0.337
    1UNK    H0M   22  -0.278   0.015   0.343
    1UNK    H0N   23  -0.695   0.025   0.368
    1UNK    H0O   24  -0.688   0.055   0.061
    1UNK    H0P   25  -0.682   0.187   0.179
    1UNK    H0Q   26  -0.829   0.090   0.163
    1UNK    H0R   27  -0.706  -0.192   0.151
    1UNK    H0S   28  -0.841  -0.143   0.256
    1UNK    H0T   29  -0.697  -0.219   0.326
   1.00000   1.00000   1.00000

