LIGPARGEN GENERATED GRO FILE
   27
    1UNK    C00    1   0.100   0.100   0.000
    1UNK    C01    2  -0.053   0.100   0.000
    1UNK    C02    3  -0.104   0.100   0.145
    1UNK    C03    4  -0.109   0.218  -0.084
    1UNK    C04    5  -0.262   0.212  -0.094
    1UNK    O05    6  -0.065   0.341  -0.026
    1UNK    C06    7  -0.097   0.463  -0.096
    1UNK    C07    8  -0.048   0.577  -0.007
    1UNK    C08    9  -0.039   0.476  -0.239
    1UNK    F09   10   0.047   0.377  -0.272
    1UNK    F0A   11  -0.140   0.472  -0.330
    1UNK    F0B   12   0.026   0.593  -0.258
    1UNK    H0C   13   0.139   0.016   0.058
    1UNK    H0D   14   0.141   0.192   0.043
    1UNK    H0E   15   0.139   0.090  -0.102
    1UNK    H0F   16  -0.086   0.006  -0.046
    1UNK    H0G   17  -0.075   0.191   0.198
    1UNK    H0H   18  -0.062   0.015   0.200
    1UNK    H0I   19  -0.213   0.092   0.149
    1UNK    H0J   20  -0.068   0.208  -0.185
    1UNK    H0K   21  -0.309   0.248  -0.002
    1UNK    H0M   22  -0.297   0.111  -0.116
    1UNK    H0N   23  -0.297   0.278  -0.174
    1UNK    H0O   24  -0.206   0.472  -0.101
    1UNK    H0P   25   0.058   0.564   0.018
    1UNK    H0Q   26  -0.103   0.576   0.088
    1UNK    H0R   27  -0.063   0.674  -0.053
   1.00000   1.00000   1.00000

