
;
; GENERATED BY LigParGen Server
; Jorgensen Lab @ Yale University 
;
[ atomtypes ]
  opls_818  H818     1.0080     0.000    A    2.50000E-01   1.25520E-01
  opls_824  H824     1.0080     0.000    A    2.50000E-01   1.25520E-01
  opls_810  F810    18.9984     0.000    A    2.90000E-01   2.51040E-01
  opls_813  H813     1.0080     0.000    A    2.50000E-01   1.25520E-01
  opls_811  F811    18.9984     0.000    A    2.90000E-01   2.51040E-01
  opls_802  C802    12.0110     0.000    A    3.50000E-01   2.76144E-01
  opls_815  H815     1.0080     0.000    A    2.50000E-01   1.25520E-01
  opls_801  C801    12.0110     0.000    A    3.50000E-01   2.76144E-01
  opls_822  H822     1.0080     0.000    A    2.50000E-01   1.25520E-01
  opls_803  C803    12.0110     0.000    A    3.50000E-01   2.76144E-01
  opls_825  H825     1.0080     0.000    A    2.50000E-01   1.25520E-01
  opls_814  H814     1.0080     0.000    A    2.50000E-01   1.25520E-01
  opls_821  H821     1.0080     0.000    A    2.50000E-01   1.25520E-01
  opls_820  H820     1.0080     0.000    A    2.50000E-01   1.25520E-01
  opls_816  H816     1.0080     0.000    A    2.50000E-01   1.25520E-01
  opls_800  C800    12.0110     0.000    A    3.50000E-01   2.76144E-01
  opls_806  C806    12.0110     0.000    A    3.50000E-01   2.76144E-01
  opls_809  F809    18.9984     0.000    A    2.90000E-01   2.51040E-01
  opls_823  H823     1.0080     0.000    A    2.50000E-01   1.25520E-01
  opls_805  O805    15.9990     0.000    A    2.90000E-01   5.85760E-01
  opls_826  H826     1.0080     0.000    A    2.50000E-01   1.25520E-01
  opls_819  H819     1.0080     0.000    A    2.50000E-01   1.25520E-01
  opls_804  C804    12.0110     0.000    A    3.50000E-01   2.76144E-01
  opls_808  C808    12.0110     0.000    A    3.50000E-01   2.76144E-01
  opls_817  H817     1.0080     0.000    A    2.50000E-01   1.25520E-01
  opls_812  H812     1.0080     0.000    A    2.50000E-01   1.25520E-01
  opls_807  C807    12.0110     0.000    A    3.50000E-01   2.76144E-01
[ moleculetype ]
; Name               nrexcl
UNK                   3
[ atoms ]
;   nr       type  resnr residue  atom   cgnr     charge       mass  
     1   opls_800      1    UNK   C00      1    -0.2364    12.0110 
     2   opls_801      1    UNK   C01      1    -0.1016    12.0110 
     3   opls_802      1    UNK   C02      1    -0.2337    12.0110 
     4   opls_803      1    UNK   C03      1     0.0626    12.0110 
     5   opls_804      1    UNK   C04      1    -0.2813    12.0110 
     6   opls_805      1    UNK   O05      1    -0.3563    15.9990 
     7   opls_806      1    UNK   C06      1     0.0084    12.0110 
     8   opls_807      1    UNK   C07      1    -0.2453    12.0110 
     9   opls_808      1    UNK   C08      1     0.4139    12.0110 
    10   opls_809      1    UNK   F09      1    -0.1672    18.9984 
    11   opls_810      1    UNK   F0A      1    -0.1672    18.9984 
    12   opls_811      1    UNK   F0B      1    -0.1672    18.9984 
    13   opls_812      1    UNK   H0C      1     0.0874     1.0080 
    14   opls_813      1    UNK   H0D      1     0.0874     1.0080 
    15   opls_814      1    UNK   H0E      1     0.0874     1.0080 
    16   opls_815      1    UNK   H0F      1     0.1048     1.0080 
    17   opls_816      1    UNK   H0G      1     0.0851     1.0080 
    18   opls_817      1    UNK   H0H      1     0.0851     1.0080 
    19   opls_818      1    UNK   H0I      1     0.0851     1.0080 
    20   opls_819      1    UNK   H0J      1     0.1033     1.0080 
    21   opls_820      1    UNK   H0K      1      0.095     1.0080 
    22   opls_821      1    UNK   H0M      1      0.095     1.0080 
    23   opls_822      1    UNK   H0N      1      0.095     1.0080 
    24   opls_823      1    UNK   H0O      1     0.1269     1.0080 
    25   opls_824      1    UNK   H0P      1     0.1114     1.0080 
    26   opls_825      1    UNK   H0Q      1     0.1114     1.0080 
    27   opls_826      1    UNK   H0R      1     0.1114     1.0080 
[ bonds ]
    2     1     1      0.1529 224262.400
    3     2     1      0.1529 224262.400
    4     2     1      0.1529 224262.400
    5     4     1      0.1529 224262.400
    6     4     1      0.1410 267776.000
    7     6     1      0.1410 267776.000
    8     7     1      0.1529 224262.400
    9     7     1      0.1529 224262.400
   10     9     1      0.1360 307105.600
   11     9     1      0.1360 307105.600
   12     9     1      0.1360 307105.600
   13     1     1      0.1090 284512.000
   14     1     1      0.1090 284512.000
   15     1     1      0.1090 284512.000
   16     2     1      0.1090 284512.000
   17     3     1      0.1090 284512.000
   18     3     1      0.1090 284512.000
   19     3     1      0.1090 284512.000
   20     4     1      0.1090 284512.000
   21     5     1      0.1090 284512.000
   22     5     1      0.1090 284512.000
   23     5     1      0.1090 284512.000
   24     7     1      0.1090 284512.000
   25     8     1      0.1090 284512.000
   26     8     1      0.1090 284512.000
   27     8     1      0.1090 284512.000

[ angles ]
;  ai    aj    ak funct            c0            c1            c2            c3 
    1     2     3     1    112.700    488.273
    1     2     4     1    112.700    488.273
    2     4     5     1    112.700    488.273
    2     4     6     1    109.500    418.400
    4     6     7     1    109.500    502.080
    6     7     8     1    109.500    418.400
    6     7     9     1    109.500    418.400
    7     9    10     1    109.500    418.400
    7     9    11     1    109.500    418.400
    7     9    12     1    109.500    418.400
    2     1    13     1    110.700    313.800
    2     1    14     1    110.700    313.800
    2     1    15     1    110.700    313.800
    1     2    16     1    110.700    313.800
    2     3    17     1    110.700    313.800
    2     3    18     1    110.700    313.800
    2     3    19     1    110.700    313.800
    2     4    20     1    110.700    313.800
    4     5    21     1    110.700    313.800
    4     5    22     1    110.700    313.800
    4     5    23     1    110.700    313.800
    6     7    24     1    109.500    292.880
    7     8    25     1    110.700    313.800
    7     8    26     1    110.700    313.800
    7     8    27     1    110.700    313.800
    6     4    20     1    109.500    292.880
    5     4     6     1    109.500    418.400
   21     5    22     1    107.800    276.144
   13     1    14     1    107.800    276.144
    9     7    24     1    110.700    313.800
   22     5    23     1    107.800    276.144
   10     9    12     1    109.100    644.336
   11     9    12     1    109.100    644.336
   25     8    27     1    107.800    276.144
   14     1    15     1    107.800    276.144
   25     8    26     1    107.800    276.144
   21     5    23     1    107.800    276.144
    3     2    16     1    110.700    313.800
    3     2     4     1    112.700    488.273
   18     3    19     1    107.800    276.144
    5     4    20     1    110.700    313.800
   10     9    11     1    109.100    644.336
   17     3    19     1    107.800    276.144
   17     3    18     1    107.800    276.144
    8     7    24     1    110.700    313.800
    4     2    16     1    110.700    313.800
   13     1    15     1    107.800    276.144
   26     8    27     1    107.800    276.144
    8     7     9     1    112.700    488.273

[ dihedrals ]
; IMPROPER DIHEDRAL ANGLES 
;  ai    aj    ak    al funct            c0            c1            c2            c3            c4            c5

[ dihedrals ]
; PROPER DIHEDRAL ANGLES
;  ai    aj    ak    al funct            c0            c1            c2            c3            c4            c5
    9    7    6    4        3       1.715   2.845   1.046  -5.607  -0.000   0.000
    5    4    2    1        3       2.301  -1.464   0.837  -1.674  -0.000   0.000
    5    4    2    3        3       2.301  -1.464   0.837  -1.674  -0.000   0.000
    8    7    6    4        3       1.715   2.845   1.046  -5.607  -0.000   0.000
    7    6    4    5        3       1.715   2.845   1.046  -5.607  -0.000   0.000
    7    6    4    2        3       1.715   2.845   1.046  -5.607  -0.000   0.000
   11    9    7    8        3       0.000   0.000   0.000  -0.000  -0.000   0.000
   12    9    7    8        3       0.000   0.000   0.000  -0.000  -0.000   0.000
   10    9    7    8        3       0.000   0.000   0.000  -0.000  -0.000   0.000
   12    9    7    6        3       1.130   3.389   0.000  -4.519  -0.000   0.000
   10    9    7    6        3       1.130   3.389   0.000  -4.519  -0.000   0.000
   11    9    7    6        3       1.130   3.389   0.000  -4.519  -0.000   0.000
   24    7    9   10        3       0.753   2.259   0.000  -3.012  -0.000   0.000
   24    7    9   11        3       0.753   2.259   0.000  -3.012  -0.000   0.000
   24    7    9   12        3       0.753   2.259   0.000  -3.012  -0.000   0.000
   27    8    7    9        3       0.628   1.883   0.000  -2.510  -0.000   0.000
   25    8    7    9        3       0.628   1.883   0.000  -2.510  -0.000   0.000
   26    8    7    9        3       0.628   1.883   0.000  -2.510  -0.000   0.000
   17    3    2    4        3       0.628   1.883   0.000  -2.510  -0.000   0.000
   13    1    2    4        3       0.628   1.883   0.000  -2.510  -0.000   0.000
   20    4    2    1        3       0.628   1.883   0.000  -2.510  -0.000   0.000
   19    3    2    4        3       0.628   1.883   0.000  -2.510  -0.000   0.000
   16    2    4    5        3       0.628   1.883   0.000  -2.510  -0.000   0.000
   22    5    4    2        3       0.628   1.883   0.000  -2.510  -0.000   0.000
   23    5    4    2        3       0.628   1.883   0.000  -2.510  -0.000   0.000
   14    1    2    3        3       0.628   1.883   0.000  -2.510  -0.000   0.000
   18    3    2    4        3       0.628   1.883   0.000  -2.510  -0.000   0.000
   18    3    2    1        3       0.628   1.883   0.000  -2.510  -0.000   0.000
   15    1    2    4        3       0.628   1.883   0.000  -2.510  -0.000   0.000
   21    5    4    2        3       0.628   1.883   0.000  -2.510  -0.000   0.000
   15    1    2    3        3       0.628   1.883   0.000  -2.510  -0.000   0.000
   14    1    2    4        3       0.628   1.883   0.000  -2.510  -0.000   0.000
   17    3    2    1        3       0.628   1.883   0.000  -2.510  -0.000   0.000
   20    4    2    3        3       0.628   1.883   0.000  -2.510  -0.000   0.000
   13    1    2    3        3       0.628   1.883   0.000  -2.510  -0.000   0.000
   19    3    2    1        3       0.628   1.883   0.000  -2.510  -0.000   0.000
   16    2    1   15        3       0.628   1.883   0.000  -2.510  -0.000   0.000
   16    2    1   14        3       0.628   1.883   0.000  -2.510  -0.000   0.000
   20    4    2   16        3       0.628   1.883   0.000  -2.510  -0.000   0.000
   16    2    1   13        3       0.628   1.883   0.000  -2.510  -0.000   0.000
   22    5    4   20        3       0.628   1.883   0.000  -2.510  -0.000   0.000
   21    5    4   20        3       0.628   1.883   0.000  -2.510  -0.000   0.000
   27    8    7   24        3       0.628   1.883   0.000  -2.510  -0.000   0.000
   18    3    2   16        3       0.628   1.883   0.000  -2.510  -0.000   0.000
   25    8    7   24        3       0.628   1.883   0.000  -2.510  -0.000   0.000
   23    5    4   20        3       0.628   1.883   0.000  -2.510  -0.000   0.000
   17    3    2   16        3       0.628   1.883   0.000  -2.510  -0.000   0.000
   19    3    2   16        3       0.628   1.883   0.000  -2.510  -0.000   0.000
   26    8    7   24        3       0.628   1.883   0.000  -2.510  -0.000   0.000
   26    8    7    6        3       0.979   2.937   0.000  -3.916  -0.000   0.000
   25    8    7    6        3       0.979   2.937   0.000  -3.916  -0.000   0.000
   21    5    4    6        3       0.979   2.937   0.000  -3.916  -0.000   0.000
   16    2    4    6        3       0.979   2.937   0.000  -3.916  -0.000   0.000
   23    5    4    6        3       0.979   2.937   0.000  -3.916  -0.000   0.000
   27    8    7    6        3       0.979   2.937   0.000  -3.916  -0.000   0.000
   22    5    4    6        3       0.979   2.937   0.000  -3.916  -0.000   0.000
   20    4    6    7        3       1.590   4.770   0.000  -6.360  -0.000   0.000
   24    7    6    4        3       1.590   4.770   0.000  -6.360  -0.000   0.000
    6    4    2    3        3       2.874   0.582   2.092  -5.548  -0.000   0.000
    6    4    2    1        3       2.874   0.582   2.092  -5.548  -0.000   0.000

[ pairs ]
     1     5    1
     1     6    1
     3     5    1
     3     6    1
     2     7    1
     5     7    1
     4     8    1
     4     9    1
     6    10    1
     3    13    1
     6    11    1
     4    13    1
     3    14    1
     8    10    1
     6    12    1
     4    14    1
     3    15    1
     1    17    1
     8    11    1
     4    15    1
     1    18    1
     8    12    1
     1    19    1
     5    16    1
     4    17    1
     1    20    1
     6    16    1
     4    18    1
     4    19    1
     3    20    1
     2    21    1
     2    22    1
     2    23    1
     7    20    1
     6    21    1
     6    22    1
     4    24    1
    13    16    1
     6    23    1
    14    16    1
    15    16    1
     6    25    1
     6    26    1
    16    17    1
     6    27    1
    16    18    1
    10    24    1
     9    25    1
    16    19    1
    11    24    1
     9    26    1
    16    20    1
    12    24    1
     9    27    1
    20    21    1
    20    22    1
    20    23    1
    24    25    1
    24    26    1
    24    27    1

