LIGPARGEN GENERATED GRO FILE
   28
    1UNK    C00    1   0.100   0.100   0.000
    1UNK    C01    2  -0.052   0.100   0.000
    1UNK    C02    3  -0.115   0.100   0.141
    1UNK    C03    4  -0.069   0.215   0.232
    1UNK    C04    5  -0.106   0.355   0.185
    1UNK    C05    6  -0.267   0.095   0.126
    1UNK    O06    7  -0.330   0.185   0.069
    1UNK    C07    8  -0.341  -0.022   0.183
    1UNK    S08    9  -0.395   0.012   0.347
    1UNK    C09   10  -0.498   0.157   0.334
    1UNK    O0A   11  -0.480  -0.098   0.387
    1UNK    O0B   12  -0.279   0.046   0.427
    1UNK    H0C   13   0.138   0.080  -0.101
    1UNK    H0D   14   0.140   0.023   0.067
    1UNK    H0E   15   0.140   0.197   0.031
    1UNK    H0F   16  -0.087   0.010  -0.053
    1UNK    H0G   17  -0.088   0.185  -0.059
    1UNK    H0H   18  -0.084   0.007   0.190
    1UNK    H0I   19   0.040   0.210   0.244
    1UNK    H0J   20  -0.110   0.201   0.332
    1UNK    H0K   21  -0.078   0.373   0.081
    1UNK    H0M   22  -0.055   0.430   0.247
    1UNK    H0N   23  -0.214   0.373   0.196
    1UNK    H0O   24  -0.278  -0.111   0.184
    1UNK    H0P   25  -0.429  -0.043   0.121
    1UNK    H0Q   26  -0.582   0.134   0.268
    1UNK    H0R   27  -0.440   0.241   0.296
    1UNK    H0S   28  -0.536   0.180   0.434
   1.00000   1.00000   1.00000

