
;
; GENERATED BY LigParGen Server
; Jorgensen Lab @ Yale University 
;
[ atomtypes ]
  opls_818  H818     1.0080     0.000    A    2.50000E-01   1.25520E-01
  opls_824  H824     1.0080     0.000    A    2.50000E-01   1.25520E-01
  opls_813  H813     1.0080     0.000    A    2.50000E-01   1.25520E-01
  opls_802  C802    12.0110     0.000    A    3.50000E-01   2.76144E-01
  opls_815  H815     1.0080     0.000    A    2.50000E-01   1.25520E-01
  opls_809  C809    12.0110     0.000    A    3.50000E-01   2.76144E-01
  opls_822  H822     1.0080     0.000    A    2.50000E-01   1.25520E-01
  opls_803  C803    12.0110     0.000    A    3.50000E-01   2.76144E-01
  opls_825  H825     1.0080     0.000    A    2.50000E-01   1.25520E-01
  opls_814  H814     1.0080     0.000    A    2.50000E-01   1.25520E-01
  opls_821  H821     1.0080     0.000    A    2.50000E-01   1.25520E-01
  opls_820  H820     1.0080     0.000    A    2.50000E-01   1.25520E-01
  opls_805  C805    12.0110     0.000    A    3.55000E-01   2.92880E-01
  opls_816  H816     1.0080     0.000    A    2.50000E-01   1.25520E-01
  opls_800  C800    12.0110     0.000    A    3.50000E-01   2.76144E-01
  opls_807  C807    12.0110     0.000    A    3.50000E-01   2.76144E-01
  opls_823  H823     1.0080     0.000    A    2.50000E-01   1.25520E-01
  opls_826  H826     1.0080     0.000    A    2.50000E-01   1.25520E-01
  opls_819  H819     1.0080     0.000    A    2.50000E-01   1.25520E-01
  opls_804  C804    12.0110     0.000    A    3.50000E-01   2.76144E-01
  opls_827  H827     1.0080     0.000    A    2.50000E-01   1.25520E-01
  opls_801  C801    12.0110     0.000    A    3.50000E-01   2.76144E-01
  opls_810  O810    15.9990     0.000    A    2.96000E-01   7.11280E-01
  opls_806  O806    15.9990     0.000    A    2.96000E-01   8.78640E-01
  opls_817  H817     1.0080     0.000    A    2.50000E-01   1.25520E-01
  opls_812  H812     1.0080     0.000    A    2.50000E-01   1.25520E-01
  opls_811  O811    15.9990     0.000    A    2.96000E-01   7.11280E-01
  opls_808  S808    32.0600     0.000    A    3.55000E-01   1.04600E+00
[ moleculetype ]
; Name               nrexcl
UNK                   3
[ atoms ]
;   nr       type  resnr residue  atom   cgnr     charge       mass  
     1   opls_800      1    UNK   C00      1    -0.2365    12.0110 
     2   opls_801      1    UNK   C01      1    -0.1689    12.0110 
     3   opls_802      1    UNK   C02      1    -0.1381    12.0110 
     4   opls_803      1    UNK   C03      1    -0.1748    12.0110 
     5   opls_804      1    UNK   C04      1    -0.2382    12.0110 
     6   opls_805      1    UNK   C05      1     0.3937    12.0110 
     7   opls_806      1    UNK   O06      1     -0.435    15.9990 
     8   opls_807      1    UNK   C07      1    -0.6173    12.0110 
     9   opls_808      1    UNK   S08      1     1.3121    32.0600 
    10   opls_809      1    UNK   C09      1    -0.5572    12.0110 
    11   opls_810      1    UNK   O0A      1    -0.5544    15.9990 
    12   opls_811      1    UNK   O0B      1    -0.5544    15.9990 
    13   opls_812      1    UNK   H0C      1     0.0865     1.0080 
    14   opls_813      1    UNK   H0D      1     0.0865     1.0080 
    15   opls_814      1    UNK   H0E      1     0.0865     1.0080 
    16   opls_815      1    UNK   H0F      1     0.0982     1.0080 
    17   opls_816      1    UNK   H0G      1     0.0982     1.0080 
    18   opls_817      1    UNK   H0H      1      0.115     1.0080 
    19   opls_818      1    UNK   H0I      1      0.111     1.0080 
    20   opls_819      1    UNK   H0J      1      0.111     1.0080 
    21   opls_820      1    UNK   H0K      1     0.0862     1.0080 
    22   opls_821      1    UNK   H0M      1     0.0862     1.0080 
    23   opls_822      1    UNK   H0N      1     0.0862     1.0080 
    24   opls_823      1    UNK   H0O      1     0.1977     1.0080 
    25   opls_824      1    UNK   H0P      1     0.1977     1.0080 
    26   opls_825      1    UNK   H0Q      1     0.1741     1.0080 
    27   opls_826      1    UNK   H0R      1     0.1741     1.0080 
    28   opls_827      1    UNK   H0S      1     0.1741     1.0080 
[ bonds ]
    2     1     1      0.1529 224262.400
    3     2     1      0.1529 224262.400
    4     3     1      0.1529 224262.400
    5     4     1      0.1529 224262.400
    6     3     1      0.1522 265265.600
    7     6     1      0.1229 476976.000
    8     6     1      0.1522 265265.600
    9     8     1      0.1770 284512.000
   10     9     1      0.1770 284512.000
   11     9     1      0.1440 585760.000
   12     9     1      0.1440 585760.000
   13     1     1      0.1090 284512.000
   14     1     1      0.1090 284512.000
   15     1     1      0.1090 284512.000
   16     2     1      0.1090 284512.000
   17     2     1      0.1090 284512.000
   18     3     1      0.1090 284512.000
   19     4     1      0.1090 284512.000
   20     4     1      0.1090 284512.000
   21     5     1      0.1090 284512.000
   22     5     1      0.1090 284512.000
   23     5     1      0.1090 284512.000
   24     8     1      0.1090 284512.000
   25     8     1      0.1090 284512.000
   26    10     1      0.1090 284512.000
   27    10     1      0.1090 284512.000
   28    10     1      0.1090 284512.000

[ angles ]
;  ai    aj    ak funct            c0            c1            c2            c3 
    1     2     3     1    112.700    488.273
    2     3     4     1    112.700    488.273
    3     4     5     1    112.700    488.273
    2     3     6     1    111.100    527.184
    3     6     7     1    120.400    669.440
    3     6     8     1    116.000    585.760
    6     8     9     1    110.580    432.207
    8     9    10     1    102.000    518.816
    8     9    11     1    108.900    619.232
    8     9    12     1    108.900    619.232
    2     1    13     1    110.700    313.800
    2     1    14     1    110.700    313.800
    2     1    15     1    110.700    313.800
    1     2    16     1    110.700    313.800
    1     2    17     1    110.700    313.800
    2     3    18     1    110.700    313.800
    3     4    19     1    110.700    313.800
    3     4    20     1    110.700    313.800
    4     5    21     1    110.700    313.800
    4     5    22     1    110.700    313.800
    4     5    23     1    110.700    313.800
    6     8    24     1    109.500    292.880
    6     8    25     1    109.500    292.880
    9    10    26     1    109.500    292.880
    9    10    27     1    109.500    292.880
    9    10    28     1    109.500    292.880
   27    10    28     1    107.800    276.144
    9     8    25     1    109.500    292.880
   21     5    22     1    107.800    276.144
   13     1    14     1    107.800    276.144
   22     5    23     1    107.800    276.144
   26    10    27     1    107.800    276.144
    3     2    17     1    110.700    313.800
   10     9    12     1    108.900    619.232
   19     4    20     1    107.800    276.144
    3     2    16     1    110.700    313.800
    4     3    18     1    110.700    313.800
    9     8    24     1    109.500    292.880
   16     2    17     1    107.800    276.144
   14     1    15     1    107.800    276.144
    5     4    19     1    110.700    313.800
    7     6     8     1    120.400    669.440
    4     3     6     1    111.100    527.184
    6     3    18     1    109.500    292.880
   26    10    28     1    107.800    276.144
    5     4    20     1    110.700    313.800
   10     9    11     1    108.900    619.232
   21     5    23     1    107.800    276.144
   11     9    12     1    119.000    870.272
   24     8    25     1    107.800    276.144
   13     1    15     1    107.800    276.144

[ dihedrals ]
; IMPROPER DIHEDRAL ANGLES 
;  ai    aj    ak    al funct            c0            c1            c2            c3            c4            c5
     8     6     3     7    4        180.000     43.932     2  

[ dihedrals ]
; PROPER DIHEDRAL ANGLES
;  ai    aj    ak    al funct            c0            c1            c2            c3            c4            c5
    6    3    4    5        3      -4.960   6.286   1.310  -2.636  -0.000   0.000
    6    3    2    1        3      -4.960   6.286   1.310  -2.636  -0.000   0.000
    8    6    3    4        3       0.818  -7.906   0.602   6.485  -0.000   0.000
    8    6    3    2        3       0.818  -7.906   0.602   6.485  -0.000   0.000
    4    3    2    1        3       2.301  -1.464   0.837  -1.674  -0.000   0.000
    5    4    3    2        3       2.301  -1.464   0.837  -1.674  -0.000   0.000
   10    9    8    6        3       0.000   0.000   0.000  -0.000  -0.000   0.000
   18    3    6    8        3       0.575   1.726   0.000  -2.301  -0.000   0.000
   24    8    6    3        3       0.575   1.726   0.000  -2.301  -0.000   0.000
   25    8    6    3        3       0.575   1.726   0.000  -2.301  -0.000   0.000
   24    8    6    7        3       0.000   0.000   0.000  -0.000  -0.000   0.000
   18    3    6    7        3       0.000   0.000   0.000  -0.000  -0.000   0.000
   25    8    6    7        3       0.000   0.000   0.000  -0.000  -0.000   0.000
   16    2    3    6        3      -0.209  -0.628   0.000   0.837  -0.000   0.000
   17    2    3    6        3      -0.209  -0.628   0.000   0.837  -0.000   0.000
   19    4    3    6        3      -0.209  -0.628   0.000   0.837  -0.000   0.000
   20    4    3    6        3      -0.209  -0.628   0.000   0.837  -0.000   0.000
   22    5    4    3        3       0.628   1.883   0.000  -2.510  -0.000   0.000
   19    4    3    2        3       0.628   1.883   0.000  -2.510  -0.000   0.000
   14    1    2    3        3       0.628   1.883   0.000  -2.510  -0.000   0.000
   18    3    4    5        3       0.628   1.883   0.000  -2.510  -0.000   0.000
   23    5    4    3        3       0.628   1.883   0.000  -2.510  -0.000   0.000
   15    1    2    3        3       0.628   1.883   0.000  -2.510  -0.000   0.000
   18    3    2    1        3       0.628   1.883   0.000  -2.510  -0.000   0.000
   20    4    3    2        3       0.628   1.883   0.000  -2.510  -0.000   0.000
   17    2    3    4        3       0.628   1.883   0.000  -2.510  -0.000   0.000
   13    1    2    3        3       0.628   1.883   0.000  -2.510  -0.000   0.000
   16    2    3    4        3       0.628   1.883   0.000  -2.510  -0.000   0.000
   21    5    4    3        3       0.628   1.883   0.000  -2.510  -0.000   0.000
   22    5    4   19        3       0.628   1.883   0.000  -2.510  -0.000   0.000
   18    3    2   17        3       0.628   1.883   0.000  -2.510  -0.000   0.000
   17    2    1   15        3       0.628   1.883   0.000  -2.510  -0.000   0.000
   20    4    3   18        3       0.628   1.883   0.000  -2.510  -0.000   0.000
   16    2    1   13        3       0.628   1.883   0.000  -2.510  -0.000   0.000
   21    5    4   20        3       0.628   1.883   0.000  -2.510  -0.000   0.000
   19    4    3   18        3       0.628   1.883   0.000  -2.510  -0.000   0.000
   18    3    2   16        3       0.628   1.883   0.000  -2.510  -0.000   0.000
   23    5    4   20        3       0.628   1.883   0.000  -2.510  -0.000   0.000
   21    5    4   19        3       0.628   1.883   0.000  -2.510  -0.000   0.000
   17    2    1   14        3       0.628   1.883   0.000  -2.510  -0.000   0.000
   22    5    4   20        3       0.628   1.883   0.000  -2.510  -0.000   0.000
   17    2    1   13        3       0.628   1.883   0.000  -2.510  -0.000   0.000
   23    5    4   19        3       0.628   1.883   0.000  -2.510  -0.000   0.000
   16    2    1   15        3       0.628   1.883   0.000  -2.510  -0.000   0.000
   16    2    1   14        3       0.628   1.883   0.000  -2.510  -0.000   0.000
   24    8    9   10        3       0.732   2.197   0.000  -2.929  -0.000   0.000
   25    8    9   10        3       0.732   2.197   0.000  -2.929  -0.000   0.000
   27   10    9    8        3       0.732   2.197   0.000  -2.929  -0.000   0.000
   28   10    9    8        3       0.732   2.197   0.000  -2.929  -0.000   0.000
   26   10    9    8        3       0.732   2.197   0.000  -2.929  -0.000   0.000
   25    8    9   11        3       0.732   2.197   0.000  -2.929  -0.000   0.000
   24    8    9   12        3       0.732   2.197   0.000  -2.929  -0.000   0.000
   28   10    9   12        3       0.732   2.197   0.000  -2.929  -0.000   0.000
   26   10    9   12        3       0.732   2.197   0.000  -2.929  -0.000   0.000
   25    8    9   12        3       0.732   2.197   0.000  -2.929  -0.000   0.000
   27   10    9   11        3       0.732   2.197   0.000  -2.929  -0.000   0.000
   28   10    9   11        3       0.732   2.197   0.000  -2.929  -0.000   0.000
   26   10    9   11        3       0.732   2.197   0.000  -2.929  -0.000   0.000
   27   10    9   12        3       0.732   2.197   0.000  -2.929  -0.000   0.000
   24    8    9   11        3       0.732   2.197   0.000  -2.929  -0.000   0.000
    7    6    3    4        3       0.000   0.000   0.000  -0.000  -0.000   0.000
    7    6    3    2        3       0.000   0.000   0.000  -0.000  -0.000   0.000
   12    9    8    6        3       0.000   0.000   0.000  -0.000  -0.000   0.000
   11    9    8    6        3       0.000   0.000   0.000  -0.000  -0.000   0.000
    9    8    6    3        3       2.784   0.278   0.828  -3.891  -0.000   0.000
    9    8    6    7        3       0.000   0.000   0.000  -0.000  -0.000   0.000

[ pairs ]
     1     4    1
     2     5    1
     1     6    1
     2     7    1
     2     8    1
     5     6    1
     4     7    1
     4     8    1
     3     9    1
     7     9    1
     6    10    1
     3    13    1
     6    11    1
     3    14    1
     6    12    1
     3    15    1
     1    18    1
     4    16    1
     4    17    1
     2    19    1
     6    16    1
     2    20    1
     6    17    1
     5    18    1
     3    21    1
     7    18    1
     6    19    1
     3    22    1
     8    18    1
     6    20    1
     3    23    1
     3    24    1
     3    25    1
    13    16    1
    14    16    1
    13    17    1
    15    16    1
    14    17    1
     7    24    1
    15    17    1
     7    25    1
    16    18    1
    10    24    1
     8    26    1
    17    18    1
    11    24    1
    10    25    1
     8    27    1
    12    24    1
    11    25    1
     8    28    1
    18    19    1
    12    25    1
    11    26    1
    18    20    1
    12    26    1
    11    27    1
    12    27    1
    11    28    1
    19    21    1
    12    28    1
    20    21    1
    19    22    1
    20    22    1
    19    23    1
    20    23    1

