LIGPARGEN GENERATED GRO FILE
   31
    1UNK    C00    1   0.100   0.100   0.000
    1UNK    C01    2  -0.051   0.100   0.000
    1UNK    O02    3  -0.114   0.100   0.105
    1UNK    C03    4  -0.117   0.100  -0.136
    1UNK    C04    5  -0.270   0.100  -0.127
    1UNK    C05    6  -0.340   0.100  -0.263
    1UNK    C06    7  -0.309  -0.023  -0.351
    1UNK    C07    8  -0.349  -0.155  -0.285
    1UNK    C08    9  -0.356  -0.255  -0.400
    1UNK    C09   10  -0.405  -0.168  -0.512
    1UNK    O0A   11  -0.452  -0.213  -0.617
    1UNK    C0B   12  -0.389  -0.021  -0.483
    1UNK    C0C   13  -0.314   0.050  -0.595
    1UNK    H0D   14   0.137   0.100   0.103
    1UNK    H0E   15   0.137   0.190  -0.051
    1UNK    H0F   16   0.137   0.010  -0.051
    1UNK    H0G   17  -0.082   0.011  -0.189
    1UNK    H0H   18  -0.084   0.189  -0.191
    1UNK    H0I   19  -0.302   0.189  -0.071
    1UNK    H0J   20  -0.303   0.014  -0.067
    1UNK    H0K   21  -0.312   0.191  -0.317
    1UNK    H0M   22  -0.448   0.106  -0.246
    1UNK    H0N   23  -0.202  -0.026  -0.374
    1UNK    H0O   24  -0.448  -0.147  -0.237
    1UNK    H0P   25  -0.277  -0.187  -0.209
    1UNK    H0Q   26  -0.424  -0.337  -0.379
    1UNK    H0R   27  -0.256  -0.292  -0.426
    1UNK    H0S   28  -0.488   0.023  -0.469
    1UNK    H0T   29  -0.219  -0.001  -0.617
    1UNK    H0U   30  -0.293   0.154  -0.570
    1UNK    H0V   31  -0.373   0.048  -0.688
   1.00000   1.00000   1.00000

