LIGPARGEN GENERATED GRO FILE
   33
    1UNK    C00    1   0.100   0.100   0.000
    1UNK    C01    2  -0.052   0.100   0.000
    1UNK    C02    3  -0.115   0.100   0.141
    1UNK    C03    4  -0.078   0.226   0.219
    1UNK    C04    5  -0.269   0.088   0.134
    1UNK    C05    6  -0.321  -0.041   0.071
    1UNK    C06    7  -0.274  -0.172   0.133
    1UNK    C07    8  -0.308  -0.194   0.279
    1UNK    O08    9  -0.380  -0.123   0.349
    1UNK    O09   10  -0.246  -0.308   0.321
    1UNK    C0A   11  -0.270  -0.342   0.458
    1UNK    C0B   12  -0.460  -0.037   0.011
    1UNK    C0C   13  -0.341  -0.041  -0.080
    1UNK    H0D   14   0.137   0.087  -0.102
    1UNK    H0E   15   0.139   0.018   0.061
    1UNK    H0F   16   0.141   0.194   0.038
    1UNK    H0G   17  -0.083   0.010  -0.054
    1UNK    H0H   18  -0.088   0.186  -0.057
    1UNK    H0I   19  -0.075   0.014   0.197
    1UNK    H0J   20  -0.114   0.317   0.169
    1UNK    H0K   21   0.031   0.236   0.232
    1UNK    H0M   22  -0.121   0.224   0.320
    1UNK    H0N   23  -0.308   0.175   0.079
    1UNK    H0O   24  -0.310   0.096   0.236
    1UNK    H0P   25  -0.165  -0.178   0.123
    1UNK    H0Q   26  -0.317  -0.256   0.078
    1UNK    H0R   27  -0.219  -0.437   0.478
    1UNK    H0S   28  -0.377  -0.356   0.476
    1UNK    H0T   29  -0.228  -0.265   0.524
    1UNK    H0U   30  -0.517   0.056   0.014
    1UNK    H0V   31  -0.522  -0.126   0.016
    1UNK    H0W   32  -0.317   0.049  -0.136
    1UNK    H0X   33  -0.320  -0.133  -0.134
   1.00000   1.00000   1.00000

