LIGPARGEN GENERATED GRO FILE
   38
    1UNK    C00    1   0.100   0.100   0.000
    1UNK    C01    2  -0.052   0.100   0.000
    1UNK    C02    3  -0.107   0.100   0.142
    1UNK    C03    4  -0.258   0.100   0.145
    1UNK    C04    5  -0.322   0.100   0.281
    1UNK    C05    6  -0.444   0.021   0.313
    1UNK    C06    7  -0.551   0.118   0.365
    1UNK    C07    8  -0.582   0.234   0.268
    1UNK    C08    9  -0.730   0.230   0.227
    1UNK    C09   10  -0.484   0.248   0.147
    1UNK    C0A   11  -0.524   0.171   0.021
    1UNK    C0B   12  -0.340   0.221   0.191
    1UNK    O0C   13  -0.268   0.337   0.240
    1UNK    C0D   14  -0.244   0.437   0.143
    1UNK    H0E   15   0.138   0.100  -0.103
    1UNK    H0F   16   0.139   0.011   0.051
    1UNK    H0G   17   0.139   0.189   0.051
    1UNK    H0H   18  -0.088   0.011  -0.054
    1UNK    H0I   19  -0.089   0.188  -0.055
    1UNK    H0J   20  -0.067   0.186   0.198
    1UNK    H0K   21  -0.072   0.010   0.194
    1UNK    H0M   22  -0.299   0.032   0.072
    1UNK    H0N   23  -0.259   0.114   0.369
    1UNK    H0O   24  -0.421  -0.053   0.390
    1UNK    H0P   25  -0.482  -0.034   0.227
    1UNK    H0Q   26  -0.513   0.162   0.459
    1UNK    H0R   27  -0.641   0.062   0.392
    1UNK    H0S   28  -0.570   0.326   0.327
    1UNK    H0T   29  -0.755   0.137   0.176
    1UNK    H0U   30  -0.754   0.314   0.161
    1UNK    H0V   31  -0.794   0.238   0.315
    1UNK    H0W   32  -0.491   0.353   0.116
    1UNK    H0X   33  -0.532   0.063   0.038
    1UNK    H0Y   34  -0.451   0.187  -0.059
    1UNK    H0Z   35  -0.621   0.205  -0.018
    1UNK    H10   36  -0.152   0.490   0.171
    1UNK    H11   37  -0.326   0.509   0.143
    1UNK    H12   38  -0.231   0.394   0.043
   1.00000   1.00000   1.00000

