
;
; GENERATED BY LigParGen Server
; Jorgensen Lab @ Yale University 
;
[ atomtypes ]
  opls_818  H818     1.0080     0.000    A    2.50000E-01   1.25520E-01
  opls_824  H824     1.0080     0.000    A    2.50000E-01   1.25520E-01
  opls_804  C804    12.0110     0.000    A    3.50000E-01   2.76144E-01
  opls_833  H833     1.0080     0.000    A    2.50000E-01   1.25520E-01
  opls_836  H836     1.0080     0.000    A    2.50000E-01   1.25520E-01
  opls_834  H834     1.0080     0.000    A    2.50000E-01   1.25520E-01
  opls_828  H828     1.0080     0.000    A    2.50000E-01   1.25520E-01
  opls_812  C812    12.0110     0.000    A    3.50000E-01   2.76144E-01
  opls_811  C811    12.0110     0.000    A    3.50000E-01   2.76144E-01
  opls_815  H815     1.0080     0.000    A    2.50000E-01   1.25520E-01
  opls_809  C809    12.0110     0.000    A    3.50000E-01   2.76144E-01
  opls_830  H830     1.0080     0.000    A    2.50000E-01   1.25520E-01
  opls_822  H822     1.0080     0.000    A    2.50000E-01   1.25520E-01
  opls_803  C803    12.0110     0.000    A    3.50000E-01   2.76144E-01
  opls_825  H825     1.0080     0.000    A    2.50000E-01   1.25520E-01
  opls_814  H814     1.0080     0.000    A    2.50000E-01   1.25520E-01
  opls_821  H821     1.0080     0.000    A    2.50000E-01   1.25520E-01
  opls_820  H820     1.0080     0.000    A    2.50000E-01   1.25520E-01
  opls_837  H837     1.0080     0.000    A    2.50000E-01   1.25520E-01
  opls_829  H829     1.0080     0.000    A    2.50000E-01   1.25520E-01
  opls_831  H831     1.0080     0.000    A    2.50000E-01   1.25520E-01
  opls_805  C805    12.0110     0.000    A    3.55000E-01   2.92880E-01
  opls_816  H816     1.0080     0.000    A    2.50000E-01   1.25520E-01
  opls_800  C800    12.0110     0.000    A    3.50000E-01   2.76144E-01
  opls_802  C802    12.0110     0.000    A    3.50000E-01   2.76144E-01
  opls_823  H823     1.0080     0.000    A    2.50000E-01   1.25520E-01
  opls_813  C813    12.0110     0.000    A    3.50000E-01   2.76144E-01
  opls_826  H826     1.0080     0.000    A    2.50000E-01   1.25520E-01
  opls_835  H835     1.0080     0.000    A    2.50000E-01   1.25520E-01
  opls_819  H819     1.0080     0.000    A    2.50000E-01   1.25520E-01
  opls_810  C810    12.0110     0.000    A    3.50000E-01   2.76144E-01
  opls_827  H827     1.0080     0.000    A    2.50000E-01   1.25520E-01
  opls_801  C801    12.0110     0.000    A    3.50000E-01   2.76144E-01
  opls_808  C808    12.0110     0.000    A    3.50000E-01   2.76144E-01
  opls_806  O806    15.9990     0.000    A    2.96000E-01   8.78640E-01
  opls_817  H817     1.0080     0.000    A    2.50000E-01   1.25520E-01
  opls_832  H832     1.0080     0.000    A    2.50000E-01   1.25520E-01
  opls_807  C807    12.0110     0.000    A    3.50000E-01   2.76144E-01
[ moleculetype ]
; Name               nrexcl
UNK                   3
[ atoms ]
;   nr       type  resnr residue  atom   cgnr     charge       mass  
     1   opls_800      1    UNK   C00      1    -0.2396    12.0110 
     2   opls_801      1    UNK   C01      1    -0.1799    12.0110 
     3   opls_802      1    UNK   C02      1    -0.1683    12.0110 
     4   opls_803      1    UNK   C03      1    -0.1177    12.0110 
     5   opls_804      1    UNK   C04      1    -0.2433    12.0110 
     6   opls_805      1    UNK   C05      1     0.3679    12.0110 
     7   opls_806      1    UNK   O06      1     -0.449    15.9990 
     8   opls_807      1    UNK   C07      1    -0.1551    12.0110 
     9   opls_808      1    UNK   C08      1    -0.0837    12.0110 
    10   opls_809      1    UNK   C09      1    -0.2444    12.0110 
    11   opls_810      1    UNK   C0A      1    -0.2393    12.0110 
    12   opls_811      1    UNK   C0B      1    -0.0383    12.0110 
    13   opls_812      1    UNK   C0C      1    -0.2306    12.0110 
    14   opls_813      1    UNK   C0D      1    -0.2277    12.0110 
    15   opls_814      1    UNK   H0E      1     0.0822     1.0080 
    16   opls_815      1    UNK   H0F      1     0.0822     1.0080 
    17   opls_816      1    UNK   H0G      1     0.0822     1.0080 
    18   opls_817      1    UNK   H0H      1     0.0904     1.0080 
    19   opls_818      1    UNK   H0I      1     0.0904     1.0080 
    20   opls_819      1    UNK   H0J      1     0.0922     1.0080 
    21   opls_820      1    UNK   H0K      1     0.0922     1.0080 
    22   opls_821      1    UNK   H0M      1     0.1059     1.0080 
    23   opls_822      1    UNK   H0N      1     0.1337     1.0080 
    24   opls_823      1    UNK   H0O      1     0.1337     1.0080 
    25   opls_824      1    UNK   H0P      1     0.1299     1.0080 
    26   opls_825      1    UNK   H0Q      1     0.1047     1.0080 
    27   opls_826      1    UNK   H0R      1     0.0902     1.0080 
    28   opls_827      1    UNK   H0S      1     0.0902     1.0080 
    29   opls_828      1    UNK   H0T      1     0.0902     1.0080 
    30   opls_829      1    UNK   H0U      1     0.0821     1.0080 
    31   opls_830      1    UNK   H0V      1     0.0821     1.0080 
    32   opls_831      1    UNK   H0W      1     0.0821     1.0080 
    33   opls_832      1    UNK   H0X      2     0.0851     1.0080 
    34   opls_833      1    UNK   H0Y      2     0.0851     1.0080 
    35   opls_834      1    UNK   H0Z      2     0.0851     1.0080 
    36   opls_835      1    UNK   H10      2     0.0857     1.0080 
    37   opls_836      1    UNK   H11      2     0.0857     1.0080 
    38   opls_837      1    UNK   H12      2     0.0857     1.0080 
[ bonds ]
    2     1     1      0.1529 224262.400
    3     2     1      0.1529 224262.400
    4     3     1      0.1529 224262.400
    5     4     1      0.1529 224262.400
    6     5     1      0.1522 265265.600
    7     6     1      0.1229 476976.000
    8     6     1      0.1522 265265.600
    9     8     1      0.1529 224262.400
   10     9     1      0.1529 224262.400
   11     9     1      0.1529 224262.400
   12     4     1      0.1529 224262.400
   13    12     1      0.1529 224262.400
   14    12     1      0.1529 224262.400
   15     1     1      0.1090 284512.000
   16     1     1      0.1090 284512.000
   17     1     1      0.1090 284512.000
   18     2     1      0.1090 284512.000
   19     2     1      0.1090 284512.000
   20     3     1      0.1090 284512.000
   21     3     1      0.1090 284512.000
   22     4     1      0.1090 284512.000
   23     5     1      0.1090 284512.000
   24     5     1      0.1090 284512.000
   25     8     1      0.1090 284512.000
   26     9     1      0.1090 284512.000
   27    10     1      0.1090 284512.000
   28    10     1      0.1090 284512.000
   29    10     1      0.1090 284512.000
   30    11     1      0.1090 284512.000
   31    11     1      0.1090 284512.000
   32    11     1      0.1090 284512.000
   33    13     1      0.1090 284512.000
   34    13     1      0.1090 284512.000
   35    13     1      0.1090 284512.000
   36    14     1      0.1090 284512.000
   37    14     1      0.1090 284512.000
   38    14     1      0.1090 284512.000
   12     8     1      0.1529 224262.400

[ angles ]
;  ai    aj    ak funct            c0            c1            c2            c3 
    1     2     3     1    112.700    488.273
    2     3     4     1    112.700    488.273
    3     4     5     1    112.700    488.273
    4     5     6     1    111.100    527.184
    5     6     7     1    120.400    669.440
    5     6     8     1    116.000    585.760
    6     8     9     1    111.100    527.184
    8     9    10     1    112.700    488.273
    8     9    11     1    112.700    488.273
    3     4    12     1    112.700    488.273
    4    12    13     1    112.700    488.273
    4    12    14     1    112.700    488.273
    2     1    15     1    110.700    313.800
    2     1    16     1    110.700    313.800
    2     1    17     1    110.700    313.800
    1     2    18     1    110.700    313.800
    1     2    19     1    110.700    313.800
    2     3    20     1    110.700    313.800
    2     3    21     1    110.700    313.800
    3     4    22     1    110.700    313.800
    4     5    23     1    110.700    313.800
    4     5    24     1    110.700    313.800
    6     8    25     1    109.500    292.880
    8     9    26     1    110.700    313.800
    9    10    27     1    110.700    313.800
    9    10    28     1    110.700    313.800
    9    10    29     1    110.700    313.800
    9    11    30     1    110.700    313.800
    9    11    31     1    110.700    313.800
    9    11    32     1    110.700    313.800
   12    13    33     1    110.700    313.800
   12    13    34     1    110.700    313.800
   12    13    35     1    110.700    313.800
   12    14    36     1    110.700    313.800
   12    14    37     1    110.700    313.800
   12    14    38     1    110.700    313.800
   18     2    19     1    107.800    276.144
   33    13    34     1    107.800    276.144
    9     8    25     1    110.700    313.800
    5     4    12     1    112.700    488.273
   13    12    14     1    112.700    488.273
    8    12    14     1    112.700    488.273
    3     2    18     1    110.700    313.800
   36    14    37     1    107.800    276.144
    9     8    12     1    112.700    488.273
   27    10    28     1    107.800    276.144
   23     5    24     1    107.800    276.144
   10     9    26     1    110.700    313.800
   34    13    35     1    107.800    276.144
   31    11    32     1    107.800    276.144
   27    10    29     1    107.800    276.144
   28    10    29     1    107.800    276.144
    6     5    24     1    109.500    292.880
   30    11    31     1    107.800    276.144
   33    13    35     1    107.800    276.144
    5     4    22     1    110.700    313.800
    6     8    12     1    111.100    527.184
    3     2    19     1    110.700    313.800
   12     4    22     1    110.700    313.800
    7     6     8     1    120.400    669.440
   37    14    38     1    107.800    276.144
    4     3    21     1    110.700    313.800
   36    14    38     1    107.800    276.144
   15     1    17     1    107.800    276.144
   16     1    17     1    107.800    276.144
   10     9    11     1    112.700    488.273
   15     1    16     1    107.800    276.144
    6     5    23     1    109.500    292.880
    8    12    13     1    112.700    488.273
    4     3    20     1    110.700    313.800
   20     3    21     1    107.800    276.144
    4    12     8     1    112.700    488.273
   11     9    26     1    110.700    313.800
   30    11    32     1    107.800    276.144
   12     8    25     1    110.700    313.800

[ dihedrals ]
; IMPROPER DIHEDRAL ANGLES 
;  ai    aj    ak    al funct            c0            c1            c2            c3            c4            c5
     8     6     5     7    4        180.000     43.932     2  

[ dihedrals ]
; PROPER DIHEDRAL ANGLES
;  ai    aj    ak    al funct            c0            c1            c2            c3            c4            c5
    6    5    4    3        3      -4.960   6.286   1.310  -2.636  -0.000   0.000
    6    8   12    4        3      -4.960   6.286   1.310  -2.636  -0.000   0.000
    8    6    5    4        3       0.818  -7.906   0.602   6.485  -0.000   0.000
    9    8    6    5        3       0.818  -7.906   0.602   6.485  -0.000   0.000
   12    8    6    5        3       0.818  -7.906   0.602   6.485  -0.000   0.000
   12    8    6    7        3       0.000   0.000   0.000  -0.000  -0.000   0.000
    9    8    6    7        3       0.000   0.000   0.000  -0.000  -0.000   0.000
   13   12    8    6        3      -4.960   6.286   1.310  -2.636  -0.000   0.000
   14   12    8    6        3      -4.960   6.286   1.310  -2.636  -0.000   0.000
   12    4    5    6        3      -4.960   6.286   1.310  -2.636  -0.000   0.000
   10    9    8    6        3      -4.960   6.286   1.310  -2.636  -0.000   0.000
   11    9    8    6        3      -4.960   6.286   1.310  -2.636  -0.000   0.000
   14   12    4    5        3       2.301  -1.464   0.837  -1.674  -0.000   0.000
   12    8    9   11        3       2.301  -1.464   0.837  -1.674  -0.000   0.000
   13   12    8    9        3       2.301  -1.464   0.837  -1.674  -0.000   0.000
   14   12    8    9        3       2.301  -1.464   0.837  -1.674  -0.000   0.000
    4    3    2    1        3       2.301  -1.464   0.837  -1.674  -0.000   0.000
    9    8   12    4        3       2.301  -1.464   0.837  -1.674  -0.000   0.000
    8   12    4    5        3       2.301  -1.464   0.837  -1.674  -0.000   0.000
   12    8    9   10        3       2.301  -1.464   0.837  -1.674  -0.000   0.000
   12    4    3    2        3       2.301  -1.464   0.837  -1.674  -0.000   0.000
   13   12    4    3        3       2.301  -1.464   0.837  -1.674  -0.000   0.000
    8   12    4    3        3       2.301  -1.464   0.837  -1.674  -0.000   0.000
   14   12    4    3        3       2.301  -1.464   0.837  -1.674  -0.000   0.000
   13   12    4    5        3       2.301  -1.464   0.837  -1.674  -0.000   0.000
    5    4    3    2        3       2.301  -1.464   0.837  -1.674  -0.000   0.000
   25    8    6    5        3       0.575   1.726   0.000  -2.301  -0.000   0.000
   23    5    6    8        3       0.575   1.726   0.000  -2.301  -0.000   0.000
   24    5    6    8        3       0.575   1.726   0.000  -2.301  -0.000   0.000
   23    5    6    7        3       0.000   0.000   0.000  -0.000  -0.000   0.000
   24    5    6    7        3       0.000   0.000   0.000  -0.000  -0.000   0.000
   25    8    6    7        3       0.000   0.000   0.000  -0.000  -0.000   0.000
   22    4    5    6        3      -0.209  -0.628   0.000   0.837  -0.000   0.000
   26    9    8    6        3      -0.209  -0.628   0.000   0.837  -0.000   0.000
   21    3    4    5        3       0.628   1.883   0.000  -2.510  -0.000   0.000
   38   14   12    4        3       0.628   1.883   0.000  -2.510  -0.000   0.000
   37   14   12   13        3       0.628   1.883   0.000  -2.510  -0.000   0.000
   30   11    9    8        3       0.628   1.883   0.000  -2.510  -0.000   0.000
   35   13   12   14        3       0.628   1.883   0.000  -2.510  -0.000   0.000
   23    5    4    3        3       0.628   1.883   0.000  -2.510  -0.000   0.000
   15    1    2    3        3       0.628   1.883   0.000  -2.510  -0.000   0.000
   34   13   12    8        3       0.628   1.883   0.000  -2.510  -0.000   0.000
   20    3    4    5        3       0.628   1.883   0.000  -2.510  -0.000   0.000
   22    4   12   14        3       0.628   1.883   0.000  -2.510  -0.000   0.000
   36   14   12    8        3       0.628   1.883   0.000  -2.510  -0.000   0.000
   25    8    9   10        3       0.628   1.883   0.000  -2.510  -0.000   0.000
   25    8   12   14        3       0.628   1.883   0.000  -2.510  -0.000   0.000
   37   14   12    4        3       0.628   1.883   0.000  -2.510  -0.000   0.000
   24    5    4    3        3       0.628   1.883   0.000  -2.510  -0.000   0.000
   36   14   12   13        3       0.628   1.883   0.000  -2.510  -0.000   0.000
   28   10    9   11        3       0.628   1.883   0.000  -2.510  -0.000   0.000
   16    1    2    3        3       0.628   1.883   0.000  -2.510  -0.000   0.000
   22    4   12    8        3       0.628   1.883   0.000  -2.510  -0.000   0.000
   38   14   12    8        3       0.628   1.883   0.000  -2.510  -0.000   0.000
   21    3    2    1        3       0.628   1.883   0.000  -2.510  -0.000   0.000
   34   13   12    4        3       0.628   1.883   0.000  -2.510  -0.000   0.000
   18    2    3    4        3       0.628   1.883   0.000  -2.510  -0.000   0.000
   24    5    4   12        3       0.628   1.883   0.000  -2.510  -0.000   0.000
   37   14   12    8        3       0.628   1.883   0.000  -2.510  -0.000   0.000
   21    3    4   12        3       0.628   1.883   0.000  -2.510  -0.000   0.000
   19    2    3    4        3       0.628   1.883   0.000  -2.510  -0.000   0.000
   31   11    9   10        3       0.628   1.883   0.000  -2.510  -0.000   0.000
   33   13   12    8        3       0.628   1.883   0.000  -2.510  -0.000   0.000
   35   13   12    4        3       0.628   1.883   0.000  -2.510  -0.000   0.000
   27   10    9   11        3       0.628   1.883   0.000  -2.510  -0.000   0.000
   17    1    2    3        3       0.628   1.883   0.000  -2.510  -0.000   0.000
   31   11    9    8        3       0.628   1.883   0.000  -2.510  -0.000   0.000
   22    4    3    2        3       0.628   1.883   0.000  -2.510  -0.000   0.000
   34   13   12   14        3       0.628   1.883   0.000  -2.510  -0.000   0.000
   29   10    9   11        3       0.628   1.883   0.000  -2.510  -0.000   0.000
   25    8   12    4        3       0.628   1.883   0.000  -2.510  -0.000   0.000
   35   13   12    8        3       0.628   1.883   0.000  -2.510  -0.000   0.000
   20    3    4   12        3       0.628   1.883   0.000  -2.510  -0.000   0.000
   33   13   12   14        3       0.628   1.883   0.000  -2.510  -0.000   0.000
   25    8    9   11        3       0.628   1.883   0.000  -2.510  -0.000   0.000
   23    5    4   12        3       0.628   1.883   0.000  -2.510  -0.000   0.000
   25    8   12   13        3       0.628   1.883   0.000  -2.510  -0.000   0.000
   38   14   12   13        3       0.628   1.883   0.000  -2.510  -0.000   0.000
   26    9    8   12        3       0.628   1.883   0.000  -2.510  -0.000   0.000
   22    4   12   13        3       0.628   1.883   0.000  -2.510  -0.000   0.000
   27   10    9    8        3       0.628   1.883   0.000  -2.510  -0.000   0.000
   32   11    9    8        3       0.628   1.883   0.000  -2.510  -0.000   0.000
   30   11    9   10        3       0.628   1.883   0.000  -2.510  -0.000   0.000
   28   10    9    8        3       0.628   1.883   0.000  -2.510  -0.000   0.000
   20    3    2    1        3       0.628   1.883   0.000  -2.510  -0.000   0.000
   36   14   12    4        3       0.628   1.883   0.000  -2.510  -0.000   0.000
   33   13   12    4        3       0.628   1.883   0.000  -2.510  -0.000   0.000
   29   10    9    8        3       0.628   1.883   0.000  -2.510  -0.000   0.000
   32   11    9   10        3       0.628   1.883   0.000  -2.510  -0.000   0.000
   24    5    4   22        3       0.628   1.883   0.000  -2.510  -0.000   0.000
   20    3    2   19        3       0.628   1.883   0.000  -2.510  -0.000   0.000
   23    5    4   22        3       0.628   1.883   0.000  -2.510  -0.000   0.000
   31   11    9   26        3       0.628   1.883   0.000  -2.510  -0.000   0.000
   28   10    9   26        3       0.628   1.883   0.000  -2.510  -0.000   0.000
   22    4    3   20        3       0.628   1.883   0.000  -2.510  -0.000   0.000
   20    3    2   18        3       0.628   1.883   0.000  -2.510  -0.000   0.000
   19    2    1   17        3       0.628   1.883   0.000  -2.510  -0.000   0.000
   18    2    1   16        3       0.628   1.883   0.000  -2.510  -0.000   0.000
   18    2    1   17        3       0.628   1.883   0.000  -2.510  -0.000   0.000
   19    2    1   16        3       0.628   1.883   0.000  -2.510  -0.000   0.000
   21    3    2   19        3       0.628   1.883   0.000  -2.510  -0.000   0.000
   29   10    9   26        3       0.628   1.883   0.000  -2.510  -0.000   0.000
   26    9    8   25        3       0.628   1.883   0.000  -2.510  -0.000   0.000
   27   10    9   26        3       0.628   1.883   0.000  -2.510  -0.000   0.000
   18    2    1   15        3       0.628   1.883   0.000  -2.510  -0.000   0.000
   21    3    2   18        3       0.628   1.883   0.000  -2.510  -0.000   0.000
   22    4    3   21        3       0.628   1.883   0.000  -2.510  -0.000   0.000
   30   11    9   26        3       0.628   1.883   0.000  -2.510  -0.000   0.000
   32   11    9   26        3       0.628   1.883   0.000  -2.510  -0.000   0.000
   19    2    1   15        3       0.628   1.883   0.000  -2.510  -0.000   0.000
    7    6    5    4        3       0.000   0.000   0.000  -0.000  -0.000   0.000

[ pairs ]
     1     4    1
     2     5    1
     3     6    1
     4     7    1
     3     8    1
     4     9    1
     5     9    1
     2    12    1
     7     9    1
     6    10    1
     3    13    1
     6    11    1
     3    14    1
     5    13    1
     3    15    1
     7    12    1
     6    13    1
     5    14    1
     3    16    1
     6    14    1
     3    17    1
     1    20    1
    10    12    1
     9    13    1
     4    18    1
     1    21    1
    11    12    1
     9    14    1
     4    19    1
     2    22    1
     5    20    1
     5    21    1
     3    23    1
     3    24    1
     6    22    1
     4    25    1
     8    22    1
     7    23    1
     5    25    1
     8    23    1
     7    24    1
    12    20    1
     8    24    1
     7    25    1
     6    26    1
    15    18    1
    12    21    1
    16    18    1
    15    19    1
    17    18    1
    16    19    1
    13    22    1
    12    23    1
    10    25    1
     8    27    1
    17    19    1
    14    22    1
    12    24    1
    11    25    1
     8    28    1
     8    29    1
     4    33    1
    18    20    1
    13    25    1
    12    26    1
    11    27    1
     8    30    1
     4    34    1
    19    20    1
    18    21    1
    14    25    1
    11    28    1
     8    31    1
     4    35    1
    19    21    1
    11    29    1
    10    30    1
     8    32    1
     4    36    1
    10    31    1
     8    33    1
     4    37    1
    20    22    1
    10    32    1
     8    34    1
     4    38    1
    21    22    1
     8    35    1
     8    36    1
    22    23    1
     8    37    1
    22    24    1
     8    38    1
    14    33    1
    14    34    1
    14    35    1
    13    36    1
    13    37    1
    25    26    1
    13    38    1
    26    27    1
    26    28    1
    26    29    1
    26    30    1
    26    31    1
    26    32    1

