LIGPARGEN GENERATED GRO FILE
   31
    1UNK    C00    1   0.100   0.100   0.000
    1UNK    C01    2  -0.053   0.100   0.000
    1UNK    C02    3  -0.108   0.100   0.143
    1UNK    C03    4  -0.105  -0.046   0.184
    1UNK    C04    5  -0.139  -0.127   0.056
    1UNK    C05    6  -0.062  -0.259   0.054
    1UNK    C06    7  -0.166  -0.368   0.043
    1UNK    C07    8  -0.296  -0.296   0.039
    1UNK    O08    9  -0.405  -0.348   0.021
    1UNK    O09   10  -0.278  -0.164   0.066
    1UNK    C0A   11  -0.120  -0.025  -0.065
    1UNK    C0B   12  -0.257   0.020  -0.123
    1UNK    C0C   13  -0.041  -0.081  -0.184
    1UNK    H0D   14   0.138   0.186   0.057
    1UNK    H0E   15   0.139   0.109  -0.102
    1UNK    H0F   16   0.142   0.009   0.045
    1UNK    H0G   17  -0.085   0.192  -0.050
    1UNK    H0H   18  -0.211   0.138   0.145
    1UNK    H0I   19  -0.049   0.162   0.211
    1UNK    H0J   20  -0.175  -0.065   0.265
    1UNK    H0K   21  -0.004  -0.070   0.220
    1UNK    H0M   22  -0.005  -0.274   0.146
    1UNK    H0N   23   0.011  -0.267  -0.027
    1UNK    H0O   24  -0.164  -0.433   0.130
    1UNK    H0P   25  -0.153  -0.426  -0.049
    1UNK    H0Q   26  -0.323   0.062  -0.046
    1UNK    H0R   27  -0.310  -0.064  -0.169
    1UNK    H0S   28  -0.244   0.097  -0.199
    1UNK    H0T   29   0.061  -0.110  -0.157
    1UNK    H0U   30  -0.032  -0.006  -0.263
    1UNK    H0V   31  -0.091  -0.168  -0.227
   1.00000   1.00000   1.00000

