LIGPARGEN GENERATED GRO FILE
   28
    1UNK    C00    1   0.100   0.100   0.000
    1UNK    C01    2  -0.052   0.100   0.000
    1UNK    C02    3  -0.109   0.100   0.143
    1UNK    C03    4  -0.265   0.091   0.152
    1UNK    C04    5  -0.321  -0.035   0.079
    1UNK    C05    6  -0.270  -0.168   0.131
    1UNK    C06    7  -0.308   0.090   0.298
    1UNK    O07    8  -0.285   0.215   0.365
    1UNK    C08    9  -0.298   0.335   0.304
    1UNK    O09   10  -0.298   0.440   0.367
    1UNK    O0A   11  -0.302   0.334   0.168
    1UNK    C0B   12  -0.331   0.215   0.093
    1UNK    H0C   13   0.137   0.100  -0.103
    1UNK    H0D   14   0.139   0.011   0.050
    1UNK    H0E   15   0.140   0.188   0.051
    1UNK    H0F   16  -0.086   0.012  -0.055
    1UNK    H0G   17  -0.087   0.188  -0.055
    1UNK    H0H   18  -0.074   0.191   0.194
    1UNK    H0I   19  -0.065   0.016   0.198
    1UNK    H0J   20  -0.300  -0.028  -0.028
    1UNK    H0K   21  -0.430  -0.035   0.088
    1UNK    H0M   22  -0.161  -0.177   0.121
    1UNK    H0N   23  -0.315  -0.250   0.074
    1UNK    H0O   24  -0.296  -0.183   0.236
    1UNK    H0P   25  -0.253   0.014   0.355
    1UNK    H0Q   26  -0.415   0.067   0.309
    1UNK    H0R   27  -0.299   0.233  -0.010
    1UNK    H0S   28  -0.441   0.205   0.090
   1.00000   1.00000   1.00000

