LIGPARGEN GENERATED GRO FILE
   36
    1UNK    C00    1   0.100   0.100   0.000
    1UNK    C01    2  -0.052   0.100   0.000
    1UNK    C02    3  -0.107   0.100   0.143
    1UNK    C03    4  -0.263   0.100   0.154
    1UNK    C04    5  -0.318  -0.027   0.086
    1UNK    N05    6  -0.309   0.110   0.297
    1UNK    C06    7  -0.255   0.229   0.367
    1UNK    C07    8  -0.300   0.366   0.316
    1UNK    C08    9  -0.457   0.106   0.308
    1UNK    C09   10  -0.506   0.107   0.452
    1UNK    O0A   11  -0.543   0.211   0.506
    1UNK    C0B   12  -0.507  -0.027   0.525
    1UNK    C0C   13  -0.557  -0.015   0.668
    1UNK    H0D   14   0.138   0.105  -0.103
    1UNK    H0E   15   0.139   0.009   0.046
    1UNK    H0F   16   0.140   0.186   0.055
    1UNK    H0G   17  -0.086   0.012  -0.056
    1UNK    H0H   18  -0.088   0.189  -0.053
    1UNK    H0I   19  -0.066   0.190   0.190
    1UNK    H0J   20  -0.067   0.014   0.198
    1UNK    H0K   21  -0.301   0.186   0.097
    1UNK    H0M   22  -0.287  -0.117   0.139
    1UNK    H0N   23  -0.283  -0.035  -0.017
    1UNK    H0O   24  -0.427  -0.026   0.079
    1UNK    H0P   25  -0.145   0.225   0.368
    1UNK    H0Q   26  -0.278   0.222   0.474
    1UNK    H0R   27  -0.303   0.372   0.207
    1UNK    H0S   28  -0.230   0.443   0.351
    1UNK    H0T   29  -0.399   0.391   0.355
    1UNK    H0U   30  -0.497   0.013   0.266
    1UNK    H0V   31  -0.505   0.189   0.254
    1UNK    H0W   32  -0.405  -0.067   0.525
    1UNK    H0X   33  -0.572  -0.095   0.470
    1UNK    H0Y   34  -0.494   0.052   0.727
    1UNK    H0Z   35  -0.557  -0.113   0.717
    1UNK    H10   36  -0.659   0.025   0.671
   1.00000   1.00000   1.00000

