
;
; GENERATED BY LigParGen Server
; Jorgensen Lab @ Yale University 
;
[ atomtypes ]
  opls_807  O807    15.9990     0.000    A    2.96000E-01   8.78640E-01
  opls_818  H818     1.0080     0.000    A    2.50000E-01   1.25520E-01
  opls_813  H813     1.0080     0.000    A    2.50000E-01   1.25520E-01
  opls_806  C806    12.0110     0.000    A    3.50000E-01   2.76144E-01
  opls_815  H815     1.0080     0.000    A    2.50000E-01   1.25520E-01
  opls_801  C801    12.0110     0.000    A    3.50000E-01   2.76144E-01
  opls_808  H808     1.0080     0.000    A    2.50000E-01   1.25520E-01
  opls_803  C803    12.0110     0.000    A    3.50000E-01   2.76144E-01
  opls_814  H814     1.0080     0.000    A    2.50000E-01   1.25520E-01
  opls_821  H821     1.0080     0.000    A    2.50000E-01   1.25520E-01
  opls_820  H820     1.0080     0.000    A    2.50000E-01   1.25520E-01
  opls_811  H811     1.0080     0.000    A    2.50000E-01   1.25520E-01
  opls_810  H810     1.0080     0.000    A    2.50000E-01   1.25520E-01
  opls_805  C805    12.0110     0.000    A    3.55000E-01   2.92880E-01
  opls_816  H816     1.0080     0.000    A    2.50000E-01   1.25520E-01
  opls_800  C800    12.0110     0.000    A    3.50000E-01   2.76144E-01
  opls_802  C802    12.0110     0.000    A    3.50000E-01   2.76144E-01
  opls_819  H819     1.0080     0.000    A    2.50000E-01   1.25520E-01
  opls_804  C804    12.0110     0.000    A    3.50000E-01   2.76144E-01
  opls_817  H817     1.0080     0.000    A    2.50000E-01   1.25520E-01
  opls_812  H812     1.0080     0.000    A    2.50000E-01   1.25520E-01
  opls_809  H809     1.0080     0.000    A    2.50000E-01   1.25520E-01
[ moleculetype ]
; Name               nrexcl
UNK                   3
[ atoms ]
;   nr       type  resnr residue  atom   cgnr     charge       mass  
     1   opls_800      1    UNK   C00      1    -0.2374    12.0110 
     2   opls_801      1    UNK   C01      1    -0.1754    12.0110 
     3   opls_802      1    UNK   C02      1    -0.0978    12.0110 
     4   opls_803      1    UNK   C03      1    -0.2384    12.0110 
     5   opls_804      1    UNK   C04      1     -0.236    12.0110 
     6   opls_805      1    UNK   C05      1     0.3663    12.0110 
     7   opls_806      1    UNK   C06      1    -0.3009    12.0110 
     8   opls_807      1    UNK   O07      1    -0.4523    15.9990 
     9   opls_808      1    UNK   H08      1     0.0832     1.0080 
    10   opls_809      1    UNK   H09      1     0.0832     1.0080 
    11   opls_810      1    UNK   H0A      1     0.0832     1.0080 
    12   opls_811      1    UNK   H0B      1     0.0894     1.0080 
    13   opls_812      1    UNK   H0C      1     0.0894     1.0080 
    14   opls_813      1    UNK   H0D      1     0.0979     1.0080 
    15   opls_814      1    UNK   H0E      1     0.0873     1.0080 
    16   opls_815      1    UNK   H0F      1     0.0873     1.0080 
    17   opls_816      1    UNK   H0G      1     0.0873     1.0080 
    18   opls_817      1    UNK   H0H      1     0.1181     1.0080 
    19   opls_818      1    UNK   H0I      1     0.1181     1.0080 
    20   opls_819      1    UNK   H0J      1     0.1159     1.0080 
    21   opls_820      1    UNK   H0K      1     0.1159     1.0080 
    22   opls_821      1    UNK   H0M      1     0.1159     1.0080 
[ bonds ]
    2     1     1      0.1529 224262.400
    3     2     1      0.1529 224262.400
    4     3     1      0.1529 224262.400
    5     3     1      0.1529 224262.400
    6     5     1      0.1522 265265.600
    7     6     1      0.1522 265265.600
    8     6     1      0.1229 476976.000
    9     1     1      0.1090 284512.000
   10     1     1      0.1090 284512.000
   11     1     1      0.1090 284512.000
   12     2     1      0.1090 284512.000
   13     2     1      0.1090 284512.000
   14     3     1      0.1090 284512.000
   15     4     1      0.1090 284512.000
   16     4     1      0.1090 284512.000
   17     4     1      0.1090 284512.000
   18     5     1      0.1090 284512.000
   19     5     1      0.1090 284512.000
   20     7     1      0.1090 284512.000
   21     7     1      0.1090 284512.000
   22     7     1      0.1090 284512.000

[ angles ]
;  ai    aj    ak funct            c0            c1            c2            c3 
    1     2     3     1    112.700    488.273
    2     3     4     1    112.700    488.273
    2     3     5     1    112.700    488.273
    3     5     6     1    111.100    527.184
    5     6     7     1    116.000    585.760
    5     6     8     1    120.400    669.440
    2     1     9     1    110.700    313.800
    2     1    10     1    110.700    313.800
    2     1    11     1    110.700    313.800
    1     2    12     1    110.700    313.800
    1     2    13     1    110.700    313.800
    2     3    14     1    110.700    313.800
    3     4    15     1    110.700    313.800
    3     4    16     1    110.700    313.800
    3     4    17     1    110.700    313.800
    3     5    18     1    110.700    313.800
    3     5    19     1    110.700    313.800
    6     7    20     1    109.500    292.880
    6     7    21     1    109.500    292.880
    6     7    22     1    109.500    292.880
   15     4    16     1    107.800    276.144
    5     3    14     1    110.700    313.800
   12     2    13     1    107.800    276.144
    6     5    19     1    109.500    292.880
   18     5    19     1    107.800    276.144
    4     3     5     1    112.700    488.273
   16     4    17     1    107.800    276.144
   20     7    22     1    107.800    276.144
   20     7    21     1    107.800    276.144
   21     7    22     1    107.800    276.144
    7     6     8     1    120.400    669.440
    3     2    12     1    110.700    313.800
   10     1    11     1    107.800    276.144
    3     2    13     1    110.700    313.800
    9     1    10     1    107.800    276.144
    9     1    11     1    107.800    276.144
    4     3    14     1    110.700    313.800
   15     4    17     1    107.800    276.144
    6     5    18     1    109.500    292.880

[ dihedrals ]
; IMPROPER DIHEDRAL ANGLES 
;  ai    aj    ak    al funct            c0            c1            c2            c3            c4            c5
     8     6     5     7    4        180.000     43.932     2  

[ dihedrals ]
; PROPER DIHEDRAL ANGLES
;  ai    aj    ak    al funct            c0            c1            c2            c3            c4            c5
    6    5    3    2        3      -4.960   6.286   1.310  -2.636  -0.000   0.000
    6    5    3    4        3      -4.960   6.286   1.310  -2.636  -0.000   0.000
    7    6    5    3        3       0.818  -7.906   0.602   6.485  -0.000   0.000
    4    3    2    1        3       2.301  -1.464   0.837  -1.674  -0.000   0.000
    5    3    2    1        3       2.301  -1.464   0.837  -1.674  -0.000   0.000
   21    7    6    5        3       0.575   1.726   0.000  -2.301  -0.000   0.000
   19    5    6    7        3       0.575   1.726   0.000  -2.301  -0.000   0.000
   22    7    6    5        3       0.575   1.726   0.000  -2.301  -0.000   0.000
   18    5    6    7        3       0.575   1.726   0.000  -2.301  -0.000   0.000
   20    7    6    5        3       0.575   1.726   0.000  -2.301  -0.000   0.000
   19    5    6    8        3       0.000   0.000   0.000  -0.000  -0.000   0.000
   22    7    6    8        3       0.000   0.000   0.000  -0.000  -0.000   0.000
   20    7    6    8        3       0.000   0.000   0.000  -0.000  -0.000   0.000
   18    5    6    8        3       0.000   0.000   0.000  -0.000  -0.000   0.000
   21    7    6    8        3       0.000   0.000   0.000  -0.000  -0.000   0.000
   14    3    5    6        3      -0.209  -0.628   0.000   0.837  -0.000   0.000
   17    4    3    5        3       0.628   1.883   0.000  -2.510  -0.000   0.000
   12    2    3    5        3       0.628   1.883   0.000  -2.510  -0.000   0.000
   13    2    3    5        3       0.628   1.883   0.000  -2.510  -0.000   0.000
   16    4    3    2        3       0.628   1.883   0.000  -2.510  -0.000   0.000
   12    2    3    4        3       0.628   1.883   0.000  -2.510  -0.000   0.000
   18    5    3    2        3       0.628   1.883   0.000  -2.510  -0.000   0.000
    9    1    2    3        3       0.628   1.883   0.000  -2.510  -0.000   0.000
   19    5    3    4        3       0.628   1.883   0.000  -2.510  -0.000   0.000
   19    5    3    2        3       0.628   1.883   0.000  -2.510  -0.000   0.000
   10    1    2    3        3       0.628   1.883   0.000  -2.510  -0.000   0.000
   11    1    2    3        3       0.628   1.883   0.000  -2.510  -0.000   0.000
   13    2    3    4        3       0.628   1.883   0.000  -2.510  -0.000   0.000
   15    4    3    2        3       0.628   1.883   0.000  -2.510  -0.000   0.000
   17    4    3    2        3       0.628   1.883   0.000  -2.510  -0.000   0.000
   15    4    3    5        3       0.628   1.883   0.000  -2.510  -0.000   0.000
   14    3    2    1        3       0.628   1.883   0.000  -2.510  -0.000   0.000
   16    4    3    5        3       0.628   1.883   0.000  -2.510  -0.000   0.000
   18    5    3    4        3       0.628   1.883   0.000  -2.510  -0.000   0.000
   13    2    1   10        3       0.628   1.883   0.000  -2.510  -0.000   0.000
   12    2    1   11        3       0.628   1.883   0.000  -2.510  -0.000   0.000
   13    2    1   11        3       0.628   1.883   0.000  -2.510  -0.000   0.000
   13    2    1    9        3       0.628   1.883   0.000  -2.510  -0.000   0.000
   14    3    2   12        3       0.628   1.883   0.000  -2.510  -0.000   0.000
   12    2    1   10        3       0.628   1.883   0.000  -2.510  -0.000   0.000
   19    5    3   14        3       0.628   1.883   0.000  -2.510  -0.000   0.000
   14    3    2   13        3       0.628   1.883   0.000  -2.510  -0.000   0.000
   15    4    3   14        3       0.628   1.883   0.000  -2.510  -0.000   0.000
   17    4    3   14        3       0.628   1.883   0.000  -2.510  -0.000   0.000
   18    5    3   14        3       0.628   1.883   0.000  -2.510  -0.000   0.000
   16    4    3   14        3       0.628   1.883   0.000  -2.510  -0.000   0.000
   12    2    1    9        3       0.628   1.883   0.000  -2.510  -0.000   0.000
    8    6    5    3        3       0.000   0.000   0.000  -0.000  -0.000   0.000

[ pairs ]
     1     4    1
     1     5    1
     2     6    1
     4     6    1
     3     7    1
     3     8    1
     3     9    1
     3    10    1
     3    11    1
     1    14    1
     4    12    1
     5    12    1
     4    13    1
     2    15    1
     5    13    1
     2    16    1
     2    17    1
     6    14    1
     5    15    1
     2    18    1
     9    12    1
     5    16    1
     2    19    1
    10    12    1
     9    13    1
     5    17    1
     4    18    1
    11    12    1
    10    13    1
     4    19    1
    11    13    1
     7    18    1
     5    20    1
    12    14    1
     8    18    1
     7    19    1
     5    21    1
    13    14    1
     8    19    1
     5    22    1
     8    20    1
    14    15    1
     8    21    1
    14    16    1
     8    22    1
    14    17    1
    14    18    1
    14    19    1

