LIGPARGEN GENERATED GRO FILE
   22
    1UNK    C00    1   0.100   0.100   0.000
    1UNK    C01    2  -0.052   0.100   0.000
    1UNK    C02    3  -0.116   0.100   0.141
    1UNK    C03    4  -0.074   0.224   0.221
    1UNK    C04    5  -0.269   0.092   0.125
    1UNK    C05    6  -0.346   0.091   0.255
    1UNK    C06    7  -0.325  -0.024   0.350
    1UNK    O07    8  -0.424   0.182   0.284
    1UNK    H08    9   0.137   0.093  -0.103
    1UNK    H09   10   0.139   0.014   0.056
    1UNK    H0A   11   0.140   0.192   0.043
    1UNK    H0B   12  -0.086   0.011  -0.055
    1UNK    H0C   13  -0.087   0.187  -0.057
    1UNK    H0D   14  -0.081   0.011   0.195
    1UNK    H0E   15  -0.098   0.316   0.167
    1UNK    H0F   16   0.033   0.223   0.242
    1UNK    H0G   17  -0.125   0.227   0.318
    1UNK    H0H   18  -0.296   0.001   0.070
    1UNK    H0I   19  -0.305   0.176   0.065
    1UNK    H0J   20  -0.280  -0.109   0.298
    1UNK    H0K   21  -0.421  -0.056   0.390
    1UNK    H0M   22  -0.259   0.008   0.432
   1.00000   1.00000   1.00000

