
;
; GENERATED BY LigParGen Server
; Jorgensen Lab @ Yale University 
;
[ atomtypes ]
  opls_818  H818     1.0080     0.000    A    2.50000E-01   1.25520E-01
  opls_803  O803    15.9990     0.000    A    2.90000E-01   5.85760E-01
  opls_802  C802    12.0110     0.000    A    3.45000E-01   3.47272E-01
  opls_813  H813     1.0080     0.000    A    2.50000E-01   1.25520E-01
  opls_807  C807    12.0110     0.000    A    3.45000E-01   3.47272E-01
  opls_815  H815     1.0080     0.000    A    2.50000E-01   1.25520E-01
  opls_801  C801    12.0110     0.000    A    3.50000E-01   2.76144E-01
  opls_822  H822     1.0080     0.000    A    2.50000E-01   1.25520E-01
  opls_814  H814     1.0080     0.000    A    2.50000E-01   1.25520E-01
  opls_821  H821     1.0080     0.000    A    2.50000E-01   1.25520E-01
  opls_820  H820     1.0080     0.000    A    2.50000E-01   1.25520E-01
  opls_811  H811     1.0080     0.000    A    2.50000E-01   1.25520E-01
  opls_810  H810     1.0080     0.000    A    2.50000E-01   1.25520E-01
  opls_816  H816     1.0080     0.000    A    2.50000E-01   1.25520E-01
  opls_800  C800    12.0110     0.000    A    3.50000E-01   2.76144E-01
  opls_806  C806    12.0110     0.000    A    3.45000E-01   3.47272E-01
  opls_819  H819     1.0080     0.000    A    2.50000E-01   1.25520E-01
  opls_805  C805    12.0110     0.000    A    3.50000E-01   2.76144E-01
  opls_808  C808    12.0110     0.000    A    3.50000E-01   2.76144E-01
  opls_817  H817     1.0080     0.000    A    2.50000E-01   1.25520E-01
  opls_804  O804    15.9990     0.000    A    2.90000E-01   5.85760E-01
  opls_812  H812     1.0080     0.000    A    2.50000E-01   1.25520E-01
  opls_809  H809     1.0080     0.000    A    2.50000E-01   1.25520E-01
[ moleculetype ]
; Name               nrexcl
UNK                   3
[ atoms ]
;   nr       type  resnr residue  atom   cgnr     charge       mass  
     1   opls_800      1    UNK   C00      1    -0.2338    12.0110 
     2   opls_801      1    UNK   C01      1    -0.1535    12.0110 
     3   opls_802      1    UNK   C02      1     0.0362    12.0110 
     4   opls_803      1    UNK   O03      1    -0.1893    15.9990 
     5   opls_804      1    UNK   O04      1    -0.2155    15.9990 
     6   opls_805      1    UNK   C05      1    -0.0768    12.0110 
     7   opls_806      1    UNK   C06      1    -0.2331    12.0110 
     8   opls_807      1    UNK   C07      1    -0.1599    12.0110 
     9   opls_808      1    UNK   C08      1    -0.2107    12.0110 
    10   opls_809      1    UNK   H09      1     0.0843     1.0080 
    11   opls_810      1    UNK   H0A      1     0.0843     1.0080 
    12   opls_811      1    UNK   H0B      1     0.0843     1.0080 
    13   opls_812      1    UNK   H0C      1     0.1028     1.0080 
    14   opls_813      1    UNK   H0D      1     0.1028     1.0080 
    15   opls_814      1    UNK   H0E      1      0.098     1.0080 
    16   opls_815      1    UNK   H0F      1      0.098     1.0080 
    17   opls_816      1    UNK   H0G      1      0.098     1.0080 
    18   opls_817      1    UNK   H0H      1      0.136     1.0080 
    19   opls_818      1    UNK   H0I      1      0.136     1.0080 
    20   opls_819      1    UNK   H0J      1     0.1389     1.0080 
    21   opls_820      1    UNK   H0K      1     0.0909     1.0080 
    22   opls_821      1    UNK   H0M      1     0.0909     1.0080 
    23   opls_822      1    UNK   H0N      1     0.0909     1.0080 
[ bonds ]
    2     1     1      0.1529 224262.400
    3     2     1      0.1510 234304.000
    4     3     1      0.1410 267776.000
    5     4     1      0.1470 209200.000
    6     5     1      0.1410 267776.000
    7     3     1      0.1520 217568.000
    8     3     1      0.1520 217568.000
    9     8     1      0.1510 234304.000
   10     1     1      0.1090 284512.000
   11     1     1      0.1090 284512.000
   12     1     1      0.1090 284512.000
   13     2     1      0.1090 284512.000
   14     2     1      0.1090 284512.000
   15     6     1      0.1090 284512.000
   16     6     1      0.1090 284512.000
   17     6     1      0.1090 284512.000
   18     7     1      0.1088 284512.000
   19     7     1      0.1088 284512.000
   20     8     1      0.1088 284512.000
   21     9     1      0.1090 284512.000
   22     9     1      0.1090 284512.000
   23     9     1      0.1090 284512.000
    8     7     1      0.1520 217568.000

[ angles ]
;  ai    aj    ak funct            c0            c1            c2            c3 
    1     2     3     1    112.700    488.273
    2     3     4     1    109.500    418.400
    3     4     5     1    114.540    581.660
    4     5     6     1    114.540    581.660
    2     3     7     1    117.200    313.800
    2     3     8     1    117.200    313.800
    3     8     9     1    117.200    313.800
    2     1    10     1    110.700    313.800
    2     1    11     1    110.700    313.800
    2     1    12     1    110.700    313.800
    1     2    13     1    110.700    313.800
    1     2    14     1    110.700    313.800
    5     6    15     1    109.500    292.880
    5     6    16     1    109.500    292.880
    5     6    17     1    109.500    292.880
    3     7    18     1    117.200    313.800
    3     7    19     1    117.200    313.800
    3     8    20     1    117.200    313.800
    8     9    21     1    110.700    313.800
    8     9    22     1    110.700    313.800
    8     9    23     1    110.700    313.800
   21     9    23     1    107.800    276.144
    3     2    14     1    110.700    313.800
   15     6    16     1    107.800    276.144
    9     8    20     1    114.300    292.880
   15     6    17     1    107.800    276.144
    7     3     8     1     83.000    251.040
    4     3     7     1    109.500    418.400
    7     8    20     1    117.200    313.800
   22     9    23     1    107.800    276.144
    3     8     7     1     83.000    251.040
   18     7    19     1    114.300    292.880
   16     6    17     1    107.800    276.144
    8     7    18     1    117.200    313.800
   21     9    22     1    107.800    276.144
   11     1    12     1    107.800    276.144
    8     7    19     1    117.200    313.800
   13     2    14     1    107.800    276.144
   10     1    12     1    107.800    276.144
   10     1    11     1    107.800    276.144
    3     2    13     1    110.700    313.800
    3     7     8     1     83.000    251.040
    7     8     9     1    117.200    313.800
    4     3     8     1    109.500    418.400

[ dihedrals ]
; IMPROPER DIHEDRAL ANGLES 
;  ai    aj    ak    al funct            c0            c1            c2            c3            c4            c5

[ dihedrals ]
; PROPER DIHEDRAL ANGLES
;  ai    aj    ak    al funct            c0            c1            c2            c3            c4            c5
    9    8    3    2        3       0.000   0.000   0.000  -0.000  -0.000   0.000
    9    8    3    7        3       0.000   0.000   0.000  -0.000  -0.000   0.000
    9    8    7    3        3       0.000   0.000   0.000  -0.000  -0.000   0.000
    9    8    3    4        3       0.000   0.000   0.000  -0.000  -0.000   0.000
    6    5    4    3        3       1.715   2.845   1.046  -5.607  -0.000   0.000
    7    3    2    1        3       0.000   0.000   0.000  -0.000  -0.000   0.000
    8    3    2    1        3       0.000   0.000   0.000  -0.000  -0.000   0.000
    8    3    4    5        3       9.079   0.000  -9.079  -0.000  -0.000   0.000
    7    3    4    5        3       9.079   0.000  -9.079  -0.000  -0.000   0.000
   12    1    2    3        3       0.628   1.883   0.000  -2.510  -0.000   0.000
   10    1    2    3        3       0.628   1.883   0.000  -2.510  -0.000   0.000
   11    1    2    3        3       0.628   1.883   0.000  -2.510  -0.000   0.000
   13    2    1   12        3       0.628   1.883   0.000  -2.510  -0.000   0.000
   14    2    1   12        3       0.628   1.883   0.000  -2.510  -0.000   0.000
   14    2    1   11        3       0.628   1.883   0.000  -2.510  -0.000   0.000
   13    2    1   10        3       0.628   1.883   0.000  -2.510  -0.000   0.000
   14    2    1   10        3       0.628   1.883   0.000  -2.510  -0.000   0.000
   13    2    1   11        3       0.628   1.883   0.000  -2.510  -0.000   0.000
   22    9    8    7        3       0.628   1.883   0.000  -2.510  -0.000   0.000
   22    9    8    3        3       0.628   1.883   0.000  -2.510  -0.000   0.000
   13    2    3    8        3       0.628   1.883   0.000  -2.510  -0.000   0.000
   14    2    3    7        3       0.628   1.883   0.000  -2.510  -0.000   0.000
   21    9    8    7        3       0.628   1.883   0.000  -2.510  -0.000   0.000
   23    9    8    3        3       0.628   1.883   0.000  -2.510  -0.000   0.000
   14    2    3    8        3       0.628   1.883   0.000  -2.510  -0.000   0.000
   23    9    8    7        3       0.628   1.883   0.000  -2.510  -0.000   0.000
   21    9    8    3        3       0.628   1.883   0.000  -2.510  -0.000   0.000
   13    2    3    7        3       0.628   1.883   0.000  -2.510  -0.000   0.000
   21    9    8   20        3       0.628   1.883   0.000  -2.510  -0.000   0.000
   23    9    8   20        3       0.628   1.883   0.000  -2.510  -0.000   0.000
   22    9    8   20        3       0.628   1.883   0.000  -2.510  -0.000   0.000
   14    2    3    4        3       0.979   2.937   0.000  -3.916  -0.000   0.000
   13    2    3    4        3       0.979   2.937   0.000  -3.916  -0.000   0.000
   16    6    5    4        3       1.590   4.770   0.000  -6.360  -0.000   0.000
   15    6    5    4        3       1.590   4.770   0.000  -6.360  -0.000   0.000
   17    6    5    4        3       1.590   4.770   0.000  -6.360  -0.000   0.000
   18    7    3    2        3       0.000   0.000   0.000  -0.000  -0.000   0.000
   18    7    8    9        3       0.000   0.000   0.000  -0.000  -0.000   0.000
   19    7    3    2        3       0.000   0.000   0.000  -0.000  -0.000   0.000
   20    8    3    2        3       0.000   0.000   0.000  -0.000  -0.000   0.000
   19    7    8    9        3       0.000   0.000   0.000  -0.000  -0.000   0.000
   18    7    8    3        3       0.000   0.000   0.000  -0.000  -0.000   0.000
   18    7    3    8        3       0.000   0.000   0.000  -0.000  -0.000   0.000
   19    7    3    8        3       0.000   0.000   0.000  -0.000  -0.000   0.000
   20    8    3    7        3       0.000   0.000   0.000  -0.000  -0.000   0.000
   20    8    7    3        3       0.000   0.000   0.000  -0.000  -0.000   0.000
   19    7    8    3        3       0.000   0.000   0.000  -0.000  -0.000   0.000
   20    8    7   19        3       0.000   0.000   0.000  -0.000  -0.000   0.000
   20    8    7   18        3       0.000   0.000   0.000  -0.000  -0.000   0.000
   18    7    3    4        3       0.000   0.000   0.000  -0.000  -0.000   0.000
   20    8    3    4        3       0.000   0.000   0.000  -0.000  -0.000   0.000
   19    7    3    4        3       0.000   0.000   0.000  -0.000  -0.000   0.000
    4    3    2    1        3      -1.157  -3.471   0.000   4.628  -0.000   0.000
    5    4    3    2        3       1.715   2.845   1.046  -5.607  -0.000   0.000

[ pairs ]
     1     4    1
     2     5    1
     1     7    1
     3     6    1
     1     8    1
     2     9    1
     5     7    1
     5     8    1
     4     9    1
     3    10    1
     3    11    1
     3    12    1
     4    13    1
     4    14    1
     4    15    1
     7    13    1
     4    16    1
     2    18    1
     8    13    1
     7    14    1
     4    17    1
     2    19    1
     8    14    1
     4    18    1
     2    20    1
    10    13    1
     4    19    1
    11    13    1
    10    14    1
     4    20    1
     3    21    1
    12    13    1
    11    14    1
     3    22    1
    12    14    1
     3    23    1
     9    18    1
     9    19    1
     7    21    1
     7    22    1
     7    23    1
    18    20    1
    19    20    1
    20    21    1
    20    22    1
    20    23    1

