LIGPARGEN GENERATED GRO FILE
   23
    1UNK    C00    1   0.100   0.100   0.000
    1UNK    C01    2  -0.052   0.100   0.000
    1UNK    C02    3  -0.108   0.100   0.140
    1UNK    O03    4  -0.068   0.213   0.221
    1UNK    O04    5  -0.143   0.327   0.170
    1UNK    C05    6  -0.082   0.440   0.230
    1UNK    C06    7  -0.244   0.041   0.166
    1UNK    C07    8  -0.122  -0.031   0.214
    1UNK    C08    9  -0.092  -0.040   0.360
    1UNK    H09   10   0.138   0.095  -0.102
    1UNK    H0A   11   0.139   0.014   0.055
    1UNK    H0B   12   0.139   0.191   0.047
    1UNK    H0C   13  -0.088   0.012  -0.055
    1UNK    H0D   14  -0.089   0.188  -0.054
    1UNK    H0E   15  -0.145   0.527   0.212
    1UNK    H0F   16   0.017   0.457   0.187
    1UNK    H0G   17  -0.074   0.425   0.338
    1UNK    H0H   18  -0.299  -0.002   0.083
    1UNK    H0I   19  -0.308   0.091   0.239
    1UNK    H0J   20  -0.092  -0.122   0.163
    1UNK    H0K   21  -0.138   0.042   0.417
    1UNK    H0M   22   0.016  -0.036   0.378
    1UNK    H0N   23  -0.130  -0.134   0.401
   1.00000   1.00000   1.00000

