LIGPARGEN GENERATED GRO FILE
   31
    1UNK    C00    1   0.100   0.100   0.000
    1UNK    C01    2  -0.052   0.100   0.000
    1UNK    C02    3  -0.108   0.100   0.142
    1UNK    C03    4  -0.261   0.100   0.142
    1UNK    C04    5  -0.323   0.094   0.283
    1UNK    C05    6  -0.282   0.216   0.367
    1UNK    C06    7  -0.478   0.078   0.284
    1UNK    C07    8  -0.553   0.194   0.218
    1UNK    S08    9  -0.535  -0.077   0.204
    1UNK    O09   10  -0.464  -0.188   0.307
    1UNK    C0A   11  -0.469  -0.322   0.259
    1UNK    H0B   12   0.138   0.100  -0.103
    1UNK    H0C   13   0.139   0.011   0.051
    1UNK    H0D   14   0.139   0.189   0.051
    1UNK    H0E   15  -0.088   0.012  -0.055
    1UNK    H0F   16  -0.088   0.188  -0.054
    1UNK    H0G   17  -0.070   0.189   0.195
    1UNK    H0H   18  -0.071   0.012   0.196
    1UNK    H0I   19  -0.295   0.014   0.083
    1UNK    H0J   20  -0.296   0.190   0.090
    1UNK    H0K   21  -0.280   0.006   0.334
    1UNK    H0M   22  -0.306   0.310   0.316
    1UNK    H0N   23  -0.175   0.216   0.388
    1UNK    H0O   24  -0.334   0.217   0.464
    1UNK    H0P   25  -0.511   0.072   0.388
    1UNK    H0Q   26  -0.527   0.205   0.112
    1UNK    H0R   27  -0.530   0.289   0.267
    1UNK    H0S   28  -0.661   0.180   0.225
    1UNK    H0T   29  -0.420  -0.386   0.333
    1UNK    H0U   30  -0.416  -0.332   0.164
    1UNK    H0V   31  -0.573  -0.354   0.248
   1.00000   1.00000   1.00000

