LIGPARGEN GENERATED GRO FILE
   38
    1UNK    C00    1   0.100   0.100   0.000
    1UNK    C01    2  -0.051   0.100   0.000
    1UNK    O02    3  -0.112   0.100   0.108
    1UNK    C03    4  -0.125   0.100  -0.137
    1UNK    C04    5  -0.091  -0.036  -0.207
    1UNK    C05    6  -0.157  -0.079  -0.341
    1UNK    C06    7  -0.116   0.013  -0.457
    1UNK    C07    8  -0.120  -0.227  -0.379
    1UNK    C08    9  -0.165  -0.330  -0.274
    1UNK    C09   10  -0.179  -0.269  -0.515
    1UNK    C0A   11  -0.277   0.118  -0.113
    1UNK    C0B   12  -0.328   0.196  -0.232
    1UNK    C0C   13  -0.215   0.293  -0.264
    1UNK    C0D   14  -0.086   0.228  -0.213
    1UNK    H0E   15   0.136   0.106   0.103
    1UNK    H0F   16   0.139   0.186  -0.055
    1UNK    H0G   17   0.138   0.007  -0.043
    1UNK    H0H   18  -0.114  -0.113  -0.132
    1UNK    H0I   19   0.018  -0.041  -0.222
    1UNK    H0J   20  -0.266  -0.075  -0.330
    1UNK    H0K   21  -0.009   0.007  -0.476
    1UNK    H0M   22  -0.142   0.117  -0.440
    1UNK    H0N   23  -0.169  -0.012  -0.550
    1UNK    H0O   24  -0.011  -0.234  -0.388
    1UNK    H0P   25  -0.272  -0.322  -0.255
    1UNK    H0Q   26  -0.111  -0.317  -0.180
    1UNK    H0R   27  -0.144  -0.432  -0.309
    1UNK    H0S   28  -0.288  -0.253  -0.517
    1UNK    H0T   29  -0.162  -0.376  -0.534
    1UNK    H0U   30  -0.134  -0.215  -0.598
    1UNK    H0V   31  -0.296   0.178  -0.023
    1UNK    H0W   32  -0.330   0.023  -0.100
    1UNK    H0X   33  -0.421   0.249  -0.210
    1UNK    H0Y   34  -0.349   0.130  -0.317
    1UNK    H0Z   35  -0.232   0.388  -0.213
    1UNK    H10   36  -0.211   0.315  -0.371
    1UNK    H11   37  -0.036   0.301  -0.148
    1UNK    H12   38  -0.015   0.208  -0.294
   1.00000   1.00000   1.00000

