LIGPARGEN GENERATED GRO FILE
   25
    1UNK    C00    1   0.100   0.100   0.000
    1UNK    C01    2  -0.053   0.100   0.000
    1UNK    C02    3  -0.102   0.100   0.145
    1UNK    F03    4  -0.238   0.092   0.148
    1UNK    C04    5  -0.116   0.213  -0.088
    1UNK    C05    6  -0.082   0.354  -0.038
    1UNK    F06    7   0.052   0.375  -0.045
    1UNK    C07    8  -0.077   0.198  -0.235
    1UNK    C08    9  -0.191   0.266  -0.309
    1UNK    O09   10  -0.306   0.260  -0.224
    1UNK    C0A   11  -0.269   0.201  -0.099
    1UNK    H0B   12   0.138   0.010   0.049
    1UNK    H0C   13   0.141   0.186   0.055
    1UNK    H0D   14   0.141   0.101  -0.101
    1UNK    H0E   15  -0.085   0.004  -0.044
    1UNK    H0F   16  -0.072   0.190   0.200
    1UNK    H0G   17  -0.064   0.013   0.199
    1UNK    H0H   18  -0.113   0.370   0.066
    1UNK    H0I   19  -0.130   0.433  -0.098
    1UNK    H0J   20  -0.075   0.092  -0.264
    1UNK    H0K   21   0.020   0.241  -0.261
    1UNK    H0M   22  -0.213   0.218  -0.405
    1UNK    H0N   23  -0.169   0.372  -0.329
    1UNK    H0O   24  -0.301   0.096  -0.102
    1UNK    H0P   25  -0.322   0.251  -0.019
   1.00000   1.00000   1.00000

