LIGPARGEN GENERATED GRO FILE
   38
    1UNK    C00    1   0.100   0.100   0.000
    1UNK    C01    2  -0.052   0.100   0.000
    1UNK    C02    3  -0.116   0.100   0.139
    1UNK    C03    4  -0.078   0.213   0.235
    1UNK    C04    5  -0.188   0.321   0.230
    1UNK    C05    6  -0.149   0.448   0.153
    1UNK    O06    7  -0.219   0.558   0.212
    1UNK    C07    8  -0.177   0.685   0.160
    1UNK    C08    9  -0.192   0.425   0.010
    1UNK    C09   10  -0.318   0.336   0.018
    1UNK    C0A   11  -0.443   0.422  -0.001
    1UNK    C0B   12  -0.308   0.258   0.153
    1UNK    C0C   13  -0.436   0.264   0.238
    1UNK    C0D   14  -0.269   0.109   0.134
    1UNK    H0E   15   0.137   0.116  -0.102
    1UNK    H0F   16   0.139   0.004   0.035
    1UNK    H0G   17   0.142   0.179   0.062
    1UNK    H0H   18  -0.086   0.011  -0.054
    1UNK    H0I   19  -0.087   0.183  -0.060
    1UNK    H0J   20  -0.088   0.004   0.186
    1UNK    H0K   21   0.022   0.254   0.220
    1UNK    H0M   22  -0.079   0.172   0.337
    1UNK    H0N   23  -0.215   0.348   0.333
    1UNK    H0O   24  -0.041   0.467   0.161
    1UNK    H0P   25  -0.215   0.763   0.227
    1UNK    H0Q   26  -0.220   0.702   0.061
    1UNK    H0R   27  -0.068   0.692   0.157
    1UNK    H0S   28  -0.112   0.374  -0.044
    1UNK    H0T   29  -0.212   0.516  -0.046
    1UNK    H0U   30  -0.316   0.265  -0.066
    1UNK    H0V   31  -0.452   0.499   0.076
    1UNK    H0W   32  -0.534   0.360   0.001
    1UNK    H0X   33  -0.440   0.472  -0.098
    1UNK    H0Y   34  -0.463   0.367   0.264
    1UNK    H0Z   35  -0.422   0.210   0.333
    1UNK    H10   36  -0.520   0.217   0.186
    1UNK    H11   37  -0.311   0.067   0.042
    1UNK    H12   38  -0.309   0.050   0.217
   1.00000   1.00000   1.00000

