LIGPARGEN GENERATED GRO FILE
   29
    1UNK    C00    1   0.100   0.100   0.000
    1UNK    C01    2  -0.052   0.100   0.000
    1UNK    C02    3  -0.108   0.100   0.143
    1UNK    C03    4  -0.262   0.106   0.149
    1UNK    S04    5  -0.341  -0.037   0.074
    1UNK    O05    6  -0.473  -0.038   0.175
    1UNK    C06    7  -0.445   0.023   0.302
    1UNK    C07    8  -0.426  -0.094   0.402
    1UNK    C08    9  -0.571   0.100   0.343
    1UNK    C09   10  -0.315   0.107   0.294
    1UNK    C0A   11  -0.327   0.252   0.344
    1UNK    H0B   12   0.138   0.095  -0.103
    1UNK    H0C   13   0.139   0.014   0.054
    1UNK    H0D   14   0.139   0.191   0.046
    1UNK    H0E   15  -0.086   0.011  -0.055
    1UNK    H0F   16  -0.088   0.188  -0.054
    1UNK    H0G   17  -0.067   0.187   0.196
    1UNK    H0H   18  -0.072   0.011   0.196
    1UNK    H0I   19  -0.297   0.195   0.095
    1UNK    H0J   20  -0.514  -0.159   0.402
    1UNK    H0K   21  -0.408  -0.057   0.503
    1UNK    H0M   22  -0.342  -0.157   0.372
    1UNK    H0N   23  -0.659   0.034   0.341
    1UNK    H0O   24  -0.593   0.180   0.271
    1UNK    H0P   25  -0.564   0.142   0.443
    1UNK    H0Q   26  -0.239   0.060   0.359
    1UNK    H0R   27  -0.398   0.309   0.284
    1UNK    H0S   28  -0.231   0.303   0.339
    1UNK    H0T   29  -0.360   0.254   0.449
   1.00000   1.00000   1.00000

