LIGPARGEN GENERATED GRO FILE
   33
    1UNK    C00    1   0.100   0.100   0.000
    1UNK    C01    2  -0.052   0.100   0.000
    1UNK    C02    3  -0.111   0.100   0.141
    1UNK    C03    4  -0.073   0.222   0.220
    1UNK    O04    5  -0.011   0.218   0.326
    1UNK    O05    6  -0.118   0.336   0.160
    1UNK    C06    7  -0.079   0.457   0.223
    1UNK    C07    8   0.065   0.496   0.190
    1UNK    C08    9   0.067   0.644   0.224
    1UNK    C09   10  -0.068   0.697   0.173
    1UNK    C0A   11  -0.124   0.810   0.259
    1UNK    C0B   12  -0.034   0.932   0.264
    1UNK    C0C   13  -0.160   0.574   0.168
    1UNK    H0D   14   0.138   0.095  -0.103
    1UNK    H0E   15   0.139   0.014   0.055
    1UNK    H0F   16   0.140   0.191   0.046
    1UNK    H0G   17  -0.087   0.011  -0.053
    1UNK    H0H   18  -0.088   0.187  -0.056
    1UNK    H0I   19  -0.077   0.011   0.196
    1UNK    H0J   20  -0.221   0.095   0.136
    1UNK    H0K   21  -0.095   0.451   0.332
    1UNK    H0M   22   0.086   0.479   0.084
    1UNK    H0N   23   0.138   0.439   0.248
    1UNK    H0O   24   0.152   0.695   0.177
    1UNK    H0P   25   0.076   0.657   0.332
    1UNK    H0Q   26  -0.055   0.734   0.071
    1UNK    H0R   27  -0.142   0.774   0.362
    1UNK    H0S   28  -0.222   0.840   0.219
    1UNK    H0T   29   0.064   0.908   0.308
    1UNK    H0U   30  -0.080   1.011   0.325
    1UNK    H0V   31  -0.017   0.972   0.163
    1UNK    H0W   32  -0.191   0.555   0.064
    1UNK    H0X   33  -0.253   0.588   0.225
   1.00000   1.00000   1.00000

