LIGPARGEN GENERATED GRO FILE
   36
    1UNK    C00    1   0.100   0.100   0.000
    1UNK    O01    2  -0.043   0.100   0.000
    1UNK    C02    3  -0.099   0.100   0.124
    1UNK    O03    4  -0.036   0.104   0.229
    1UNK    C04    5  -0.252   0.094   0.113
    1UNK    C05    6  -0.297  -0.033   0.040
    1UNK    C06    7  -0.282  -0.158   0.126
    1UNK    C07    8  -0.351  -0.144   0.261
    1UNK    C08    9  -0.305  -0.018   0.338
    1UNK    C09   10  -0.377  -0.006   0.477
    1UNK    C0A   11  -0.349  -0.127   0.567
    1UNK    C0B   12  -0.334   0.121   0.553
    1UNK    C0C   13  -0.322   0.109   0.250
    1UNK    C0D   14  -0.469   0.149   0.230
    1UNK    H0E   15   0.134   0.124  -0.101
    1UNK    H0F   16   0.137   0.000   0.027
    1UNK    H0G   17   0.140   0.176   0.068
    1UNK    H0H   18  -0.278   0.181   0.051
    1UNK    H0I   19  -0.241  -0.047  -0.054
    1UNK    H0J   20  -0.402  -0.023   0.010
    1UNK    H0K   21  -0.175  -0.179   0.141
    1UNK    H0M   22  -0.323  -0.244   0.072
    1UNK    H0N   23  -0.328  -0.235   0.318
    1UNK    H0O   24  -0.460  -0.143   0.247
    1UNK    H0P   25  -0.199  -0.033   0.360
    1UNK    H0Q   26  -0.485  -0.001   0.461
    1UNK    H0R   27  -0.242  -0.142   0.581
    1UNK    H0S   28  -0.392  -0.219   0.526
    1UNK    H0T   29  -0.394  -0.113   0.666
    1UNK    H0U   30  -0.225   0.124   0.565
    1UNK    H0V   31  -0.379   0.123   0.653
    1UNK    H0W   32  -0.365   0.212   0.501
    1UNK    H0X   33  -0.273   0.193   0.302
    1UNK    H0Y   34  -0.527   0.069   0.183
    1UNK    H0Z   35  -0.476   0.237   0.166
    1UNK    H10   36  -0.517   0.174   0.325
   1.00000   1.00000   1.00000

