LIGPARGEN GENERATED GRO FILE
   31
    1UNK    C00    1   0.100   0.100   0.000
    1UNK    C01    2  -0.052   0.100   0.000
    1UNK    C02    3  -0.108   0.100   0.142
    1UNK    C03    4  -0.260   0.100   0.142
    1UNK    O04    5  -0.326   0.051   0.050
    1UNK    C05    6  -0.327   0.164   0.263
    1UNK    C06    7  -0.463   0.101   0.299
    1UNK    C07    8  -0.442  -0.046   0.340
    1UNK    C08    9  -0.536   0.181   0.411
    1UNK    C09   10  -0.564   0.327   0.371
    1UNK    C0A   11  -0.670   0.117   0.452
    1UNK    H0B   12   0.138   0.100  -0.103
    1UNK    H0C   13   0.139   0.011   0.050
    1UNK    H0D   14   0.139   0.189   0.051
    1UNK    H0E   15  -0.088   0.012  -0.055
    1UNK    H0F   16  -0.088   0.188  -0.054
    1UNK    H0G   17  -0.073   0.189   0.195
    1UNK    H0H   18  -0.075   0.012   0.197
    1UNK    H0I   19  -0.338   0.270   0.237
    1UNK    H0J   20  -0.260   0.157   0.349
    1UNK    H0K   21  -0.527   0.101   0.210
    1UNK    H0M   22  -0.387  -0.052   0.435
    1UNK    H0N   23  -0.385  -0.101   0.265
    1UNK    H0O   24  -0.537  -0.098   0.352
    1UNK    H0P   25  -0.472   0.183   0.500
    1UNK    H0Q   26  -0.620   0.332   0.278
    1UNK    H0R   27  -0.471   0.383   0.359
    1UNK    H0S   28  -0.622   0.378   0.449
    1UNK    H0T   29  -0.735   0.104   0.365
    1UNK    H0U   30  -0.722   0.178   0.526
    1UNK    H0V   31  -0.654   0.018   0.498
   1.00000   1.00000   1.00000

