LIGPARGEN GENERATED GRO FILE
   29
    1UNK    C00    1   0.100   0.100   0.000
    1UNK    C01    2  -0.052   0.100   0.000
    1UNK    C02    3  -0.108   0.100   0.142
    1UNK    C03    4  -0.261   0.100   0.141
    1UNK    C04    5  -0.323   0.100   0.281
    1UNK    C05    6  -0.289   0.223   0.360
    1UNK    C06    7  -0.342   0.238   0.500
    1UNK    C07    8  -0.194   0.213   0.478
    1UNK    C08    9  -0.096   0.322   0.502
    1UNK    O09   10  -0.127   0.440   0.508
    1UNK    C0A   11   0.048   0.278   0.520
    1UNK    O0B   12   0.078   0.159   0.509
    1UNK    C0C   13   0.149   0.377   0.549
    1UNK    N0D   14   0.231   0.457   0.573
    1UNK    H0E   15   0.138   0.100  -0.103
    1UNK    H0F   16   0.139   0.011   0.051
    1UNK    H0G   17   0.139   0.189   0.051
    1UNK    H0H   18  -0.088   0.012  -0.054
    1UNK    H0I   19  -0.088   0.189  -0.054
    1UNK    H0J   20  -0.071   0.188   0.195
    1UNK    H0K   21  -0.072   0.012   0.196
    1UNK    H0M   22  -0.297   0.011   0.087
    1UNK    H0N   23  -0.297   0.188   0.085
    1UNK    H0O   24  -0.293   0.009   0.334
    1UNK    H0P   25  -0.432   0.096   0.270
    1UNK    H0Q   26  -0.289   0.313   0.299
    1UNK    H0R   27  -0.402   0.158   0.541
    1UNK    H0S   28  -0.374   0.337   0.530
    1UNK    H0T   29  -0.160   0.114   0.505
   1.00000   1.00000   1.00000

