
;
; GENERATED BY LigParGen Server
; Jorgensen Lab @ Yale University 
;
[ atomtypes ]
  opls_818  H818     1.0080     0.000    A    2.50000E-01   1.25520E-01
  opls_805  C805    12.0110     0.000    A    3.45000E-01   3.47272E-01
  opls_824  H824     1.0080     0.000    A    2.50000E-01   1.25520E-01
  opls_828  H828     1.0080     0.000    A    2.50000E-01   1.25520E-01
  opls_807  C807    12.0110     0.000    A    3.45000E-01   3.47272E-01
  opls_802  C802    12.0110     0.000    A    3.50000E-01   2.76144E-01
  opls_815  H815     1.0080     0.000    A    2.50000E-01   1.25520E-01
  opls_801  C801    12.0110     0.000    A    3.50000E-01   2.76144E-01
  opls_811  O811    15.9990     0.000    A    2.96000E-01   8.78640E-01
  opls_822  H822     1.0080     0.000    A    2.50000E-01   1.25520E-01
  opls_803  C803    12.0110     0.000    A    3.50000E-01   2.76144E-01
  opls_813  N813    14.0070     0.000    A    3.20000E-01   7.11280E-01
  opls_825  H825     1.0080     0.000    A    2.50000E-01   1.25520E-01
  opls_826  H826     1.0080     0.000    A    2.50000E-01   1.25520E-01
  opls_814  H814     1.0080     0.000    A    2.50000E-01   1.25520E-01
  opls_809  O809    15.9990     0.000    A    2.96000E-01   8.78640E-01
  opls_821  H821     1.0080     0.000    A    2.50000E-01   1.25520E-01
  opls_820  H820     1.0080     0.000    A    2.50000E-01   1.25520E-01
  opls_810  C810    12.0110     0.000    A    3.55000E-01   2.92880E-01
  opls_816  H816     1.0080     0.000    A    2.50000E-01   1.25520E-01
  opls_800  C800    12.0110     0.000    A    3.50000E-01   2.76144E-01
  opls_823  H823     1.0080     0.000    A    2.50000E-01   1.25520E-01
  opls_806  C806    12.0110     0.000    A    3.45000E-01   3.47272E-01
  opls_819  H819     1.0080     0.000    A    2.50000E-01   1.25520E-01
  opls_804  C804    12.0110     0.000    A    3.50000E-01   2.76144E-01
  opls_827  H827     1.0080     0.000    A    2.50000E-01   1.25520E-01
  opls_817  H817     1.0080     0.000    A    2.50000E-01   1.25520E-01
  opls_812  C812    12.0110     0.000    A    3.30000E-01   2.76144E-01
  opls_808  C808    12.0110     0.000    A    3.55000E-01   2.92880E-01
[ moleculetype ]
; Name               nrexcl
UNK                   3
[ atoms ]
;   nr       type  resnr residue  atom   cgnr     charge       mass  
     1   opls_800      1    UNK   C00      1    -0.2389    12.0110 
     2   opls_801      1    UNK   C01      1    -0.1801    12.0110 
     3   opls_802      1    UNK   C02      1    -0.1762    12.0110 
     4   opls_803      1    UNK   C03      1    -0.1768    12.0110 
     5   opls_804      1    UNK   C04      1    -0.1541    12.0110 
     6   opls_805      1    UNK   C05      1    -0.1343    12.0110 
     7   opls_806      1    UNK   C06      1    -0.2076    12.0110 
     8   opls_807      1    UNK   C07      1    -0.2608    12.0110 
     9   opls_808      1    UNK   C08      1     0.3839    12.0110 
    10   opls_809      1    UNK   O09      1    -0.3822    15.9990 
    11   opls_810      1    UNK   C0A      1     0.4409    12.0110 
    12   opls_811      1    UNK   O0B      1    -0.3474    15.9990 
    13   opls_812      1    UNK   C0C      1     0.0964    12.0110 
    14   opls_813      1    UNK   N0D      1     -0.263    14.0070 
    15   opls_814      1    UNK   H0E      1     0.0824     1.0080 
    16   opls_815      1    UNK   H0F      1     0.0824     1.0080 
    17   opls_816      1    UNK   H0G      1     0.0824     1.0080 
    18   opls_817      1    UNK   H0H      1     0.0884     1.0080 
    19   opls_818      1    UNK   H0I      1     0.0884     1.0080 
    20   opls_819      1    UNK   H0J      1      0.091     1.0080 
    21   opls_820      1    UNK   H0K      1      0.091     1.0080 
    22   opls_821      1    UNK   H0M      1     0.0924     1.0080 
    23   opls_822      1    UNK   H0N      1     0.0924     1.0080 
    24   opls_823      1    UNK   H0O      1     0.0999     1.0080 
    25   opls_824      1    UNK   H0P      1     0.0999     1.0080 
    26   opls_825      1    UNK   H0Q      1     0.1514     1.0080 
    27   opls_826      1    UNK   H0R      1     0.1417     1.0080 
    28   opls_827      1    UNK   H0S      1     0.1417     1.0080 
    29   opls_828      1    UNK   H0T      1     0.1749     1.0080 
[ bonds ]
    2     1     1      0.1529 224262.400
    3     2     1      0.1529 224262.400
    4     3     1      0.1529 224262.400
    5     4     1      0.1529 224262.400
    6     5     1      0.1510 234304.000
    7     6     1      0.1520 217568.000
    8     6     1      0.1520 217568.000
    9     8     1      0.1522 265265.600
   10     9     1      0.1229 476976.000
   11     9     1      0.1510 292880.000
   12    11     1      0.1229 476976.000
   13    11     1      0.1444 334720.000
   14    13     1      0.1157 543920.000
   15     1     1      0.1090 284512.000
   16     1     1      0.1090 284512.000
   17     1     1      0.1090 284512.000
   18     2     1      0.1090 284512.000
   19     2     1      0.1090 284512.000
   20     3     1      0.1090 284512.000
   21     3     1      0.1090 284512.000
   22     4     1      0.1090 284512.000
   23     4     1      0.1090 284512.000
   24     5     1      0.1090 284512.000
   25     5     1      0.1090 284512.000
   26     6     1      0.1088 284512.000
   27     7     1      0.1088 284512.000
   28     7     1      0.1088 284512.000
   29     8     1      0.1088 284512.000
    8     7     1      0.1520 217568.000

[ angles ]
;  ai    aj    ak funct            c0            c1            c2            c3 
    1     2     3     1    112.700    488.273
    2     3     4     1    112.700    488.273
    3     4     5     1    112.700    488.273
    4     5     6     1    112.700    488.273
    5     6     7     1    117.200    313.800
    5     6     8     1    117.200    313.800
    6     8     9     1    111.100    527.184
    8     9    10     1    120.400    669.440
    8     9    11     1    117.200    669.440
    9    11    12     1    121.400    669.440
    9    11    13     1    118.180    584.923
   11    13    14     1    156.000    924.413
    2     1    15     1    110.700    313.800
    2     1    16     1    110.700    313.800
    2     1    17     1    110.700    313.800
    1     2    18     1    110.700    313.800
    1     2    19     1    110.700    313.800
    2     3    20     1    110.700    313.800
    2     3    21     1    110.700    313.800
    3     4    22     1    110.700    313.800
    3     4    23     1    110.700    313.800
    4     5    24     1    110.700    313.800
    4     5    25     1    110.700    313.800
    5     6    26     1    114.300    292.880
    6     7    27     1    117.200    313.800
    6     7    28     1    117.200    313.800
    6     8    29     1    117.200    313.800
    8     7    27     1    117.200    313.800
    6     5    24     1    110.700    313.800
    3     2    18     1    110.700    313.800
    7     8    29     1    117.200    313.800
   18     2    19     1    107.800    276.144
    9     8    29     1    109.500    292.880
    6     7     8     1     83.000    251.040
    5     4    23     1    110.700    313.800
    7     6    26     1    117.200    313.800
   24     5    25     1    107.800    276.144
    6     5    25     1    110.700    313.800
    8     7    28     1    117.200    313.800
    5     4    22     1    110.700    313.800
    3     2    19     1    110.700    313.800
   15     1    16     1    107.800    276.144
    7     6     8     1     83.000    251.040
    4     3    21     1    110.700    313.800
   22     4    23     1    107.800    276.144
   15     1    17     1    107.800    276.144
   16     1    17     1    107.800    276.144
   10     9    11     1    121.400    669.440
   12    11    13     1    118.180    584.923
    8     6    26     1    117.200    313.800
    6     8     7     1     83.000    251.040
    4     3    20     1    110.700    313.800
   27     7    28     1    114.300    292.880
    7     8     9     1    111.100    527.184
   20     3    21     1    107.800    276.144

[ dihedrals ]
; IMPROPER DIHEDRAL ANGLES 
;  ai    aj    ak    al funct            c0            c1            c2            c3            c4            c5
    11     9     8    10    4        180.000     43.932     2  
    13    11     9    12    4        180.000     43.932     2  

[ dihedrals ]
; PROPER DIHEDRAL ANGLES
;  ai    aj    ak    al funct            c0            c1            c2            c3            c4            c5
   11    9    8    6        3      -4.707   2.920   1.787  -0.000  -0.000   0.000
   11    9    8    7        3      -4.707   2.920   1.787  -0.000  -0.000   0.000
    9    8    6    5        3       0.000   0.000   0.000  -0.000  -0.000   0.000
    9    8    7    6        3       0.000   0.000   0.000  -0.000  -0.000   0.000
    9    8    6    7        3       0.000   0.000   0.000  -0.000  -0.000   0.000
    4    3    2    1        3       2.301  -1.464   0.837  -1.674  -0.000   0.000
    5    4    3    2        3       2.301  -1.464   0.837  -1.674  -0.000   0.000
    6    5    4    3        3       2.301  -1.464   0.837  -1.674  -0.000   0.000
    8    6    5    4        3       0.000   0.000   0.000  -0.000  -0.000   0.000
    7    6    5    4        3       0.000   0.000   0.000  -0.000  -0.000   0.000
    8    6    5    7        3       0.000   0.000   0.000  -0.000  -0.000   0.000
   13   11    9    8        3      -4.812  -1.464   6.276  -0.000  -0.000   0.000
   13   11    9   10        3       2.092   0.000  -2.092  -0.000  -0.000   0.000
   19    2    3    4        3       0.628   1.883   0.000  -2.510  -0.000   0.000
   25    5    4    3        3       0.628   1.883   0.000  -2.510  -0.000   0.000
   21    3    4    5        3       0.628   1.883   0.000  -2.510  -0.000   0.000
   18    2    3    4        3       0.628   1.883   0.000  -2.510  -0.000   0.000
   23    4    3    2        3       0.628   1.883   0.000  -2.510  -0.000   0.000
   22    4    3    2        3       0.628   1.883   0.000  -2.510  -0.000   0.000
   24    5    4    3        3       0.628   1.883   0.000  -2.510  -0.000   0.000
   20    3    4    5        3       0.628   1.883   0.000  -2.510  -0.000   0.000
   21    3    2    1        3       0.628   1.883   0.000  -2.510  -0.000   0.000
   15    1    2    3        3       0.628   1.883   0.000  -2.510  -0.000   0.000
   16    1    2    3        3       0.628   1.883   0.000  -2.510  -0.000   0.000
   20    3    2    1        3       0.628   1.883   0.000  -2.510  -0.000   0.000
   17    1    2    3        3       0.628   1.883   0.000  -2.510  -0.000   0.000
   23    4    5    6        3       0.628   1.883   0.000  -2.510  -0.000   0.000
   22    4    5    6        3       0.628   1.883   0.000  -2.510  -0.000   0.000
   18    2    1   15        3       0.628   1.883   0.000  -2.510  -0.000   0.000
   21    3    2   18        3       0.628   1.883   0.000  -2.510  -0.000   0.000
   24    5    4   23        3       0.628   1.883   0.000  -2.510  -0.000   0.000
   22    4    3   21        3       0.628   1.883   0.000  -2.510  -0.000   0.000
   18    2    1   17        3       0.628   1.883   0.000  -2.510  -0.000   0.000
   21    3    2   19        3       0.628   1.883   0.000  -2.510  -0.000   0.000
   18    2    1   16        3       0.628   1.883   0.000  -2.510  -0.000   0.000
   20    3    2   19        3       0.628   1.883   0.000  -2.510  -0.000   0.000
   23    4    3   20        3       0.628   1.883   0.000  -2.510  -0.000   0.000
   22    4    3   20        3       0.628   1.883   0.000  -2.510  -0.000   0.000
   20    3    2   18        3       0.628   1.883   0.000  -2.510  -0.000   0.000
   19    2    1   15        3       0.628   1.883   0.000  -2.510  -0.000   0.000
   23    4    3   21        3       0.628   1.883   0.000  -2.510  -0.000   0.000
   25    5    4   22        3       0.628   1.883   0.000  -2.510  -0.000   0.000
   24    5    4   22        3       0.628   1.883   0.000  -2.510  -0.000   0.000
   19    2    1   16        3       0.628   1.883   0.000  -2.510  -0.000   0.000
   19    2    1   17        3       0.628   1.883   0.000  -2.510  -0.000   0.000
   25    5    4   23        3       0.628   1.883   0.000  -2.510  -0.000   0.000
   24    5    6    7        3       0.628   1.883   0.000  -2.510  -0.000   0.000
   24    5    6    8        3       0.628   1.883   0.000  -2.510  -0.000   0.000
   25    5    6    7        3       0.628   1.883   0.000  -2.510  -0.000   0.000
   25    5    6    8        3       0.628   1.883   0.000  -2.510  -0.000   0.000
   29    8    9   11        3       0.178   0.533   0.000  -0.711  -0.000   0.000
   29    8    9   10        3       0.000   0.000   0.000  -0.000  -0.000   0.000
   26    6    5    4        3       0.628   1.883   0.000  -2.510  -0.000   0.000
   26    6    5   24        3       0.628   1.883   0.000  -2.510  -0.000   0.000
   26    6    5   25        3       0.628   1.883   0.000  -2.510  -0.000   0.000
   28    7    8    9        3       0.000   0.000   0.000  -0.000  -0.000   0.000
   27    7    8    9        3       0.000   0.000   0.000  -0.000  -0.000   0.000
   26    6    8    9        3       0.000   0.000   0.000  -0.000  -0.000   0.000
   28    7    6    5        3       0.000   0.000   0.000  -0.000  -0.000   0.000
   27    7    6    5        3       0.000   0.000   0.000  -0.000  -0.000   0.000
   29    8    6    5        3       0.000   0.000   0.000  -0.000  -0.000   0.000
   28    7    6    8        3       0.000   0.000   0.000  -0.000  -0.000   0.000
   27    7    6    8        3       0.000   0.000   0.000  -0.000  -0.000   0.000
   28    7    8    6        3       0.000   0.000   0.000  -0.000  -0.000   0.000
   26    6    8    7        3       0.000   0.000   0.000  -0.000  -0.000   0.000
   27    7    8    6        3       0.000   0.000   0.000  -0.000  -0.000   0.000
   26    6    7    8        3       0.000   0.000   0.000  -0.000  -0.000   0.000
   29    8    6    7        3       0.000   0.000   0.000  -0.000  -0.000   0.000
   29    8    7    6        3       0.000   0.000   0.000  -0.000  -0.000   0.000
   29    8    7   28        3       0.000   0.000   0.000  -0.000  -0.000   0.000
   28    7    6   26        3       0.000   0.000   0.000  -0.000  -0.000   0.000
   29    8    6   26        3       0.000   0.000   0.000  -0.000  -0.000   0.000
   27    7    6   26        3       0.000   0.000   0.000  -0.000  -0.000   0.000
   29    8    7   27        3       0.000   0.000   0.000  -0.000  -0.000   0.000
   14   13   11    9        3       0.000   0.000   0.000  -0.000  -0.000   0.000
   14   13   11   12        3       0.000   0.000   0.000  -0.000  -0.000   0.000
   12   11    9    8        3       2.092   0.000  -2.092  -0.000  -0.000   0.000
   12   11    9   10        3      16.736  -3.347  -13.389  -0.000  -0.000   0.000
   10    9    8    7        3       0.000   0.000   0.000  -0.000  -0.000   0.000
   10    9    8    6        3       0.000   0.000   0.000  -0.000  -0.000   0.000

[ pairs ]
     1     4    1
     2     5    1
     3     6    1
     4     7    1
     4     8    1
     5     9    1
     6    10    1
     7    10    1
     6    11    1
     7    11    1
     3    15    1
     3    16    1
     8    12    1
     3    17    1
     8    13    1
     1    20    1
    10    12    1
     4    18    1
     1    21    1
    10    13    1
     9    14    1
     4    19    1
     2    22    1
     5    20    1
     2    23    1
    12    14    1
     5    21    1
     3    24    1
     6    22    1
     3    25    1
     6    23    1
     4    26    1
     7    24    1
     8    24    1
     7    25    1
     5    27    1
    15    18    1
     8    25    1
     5    28    1
    16    18    1
    15    19    1
     5    29    1
    17    18    1
    16    19    1
     9    26    1
    17    19    1
     9    27    1
     9    28    1
    18    20    1
    19    20    1
    18    21    1
    10    29    1
    19    21    1
    11    29    1
    20    22    1
    21    22    1
    20    23    1
    21    23    1
    22    24    1
    23    24    1
    22    25    1
    23    25    1
    24    26    1
    25    26    1
    26    27    1
    26    28    1
    26    29    1
    27    29    1
    28    29    1

