
;
; GENERATED BY LigParGen Server
; Jorgensen Lab @ Yale University 
;
[ atomtypes ]
  opls_818  H818     1.0080     0.000    A    2.50000E-01   1.25520E-01
  opls_824  H824     1.0080     0.000    A    2.50000E-01   1.25520E-01
  opls_805  C805    12.0110     0.000    A    3.50000E-01   2.76144E-01
  opls_828  H828     1.0080     0.000    A    2.50000E-01   1.25520E-01
  opls_813  H813     1.0080     0.000    A    2.50000E-01   1.25520E-01
  opls_802  C802    12.0110     0.000    A    3.50000E-01   2.76144E-01
  opls_815  H815     1.0080     0.000    A    2.50000E-01   1.25520E-01
  opls_809  C809    12.0110     0.000    A    3.50000E-01   2.76144E-01
  opls_811  O811    15.9990     0.000    A    2.96000E-01   8.78640E-01
  opls_822  H822     1.0080     0.000    A    2.50000E-01   1.25520E-01
  opls_803  C803    12.0110     0.000    A    3.50000E-01   2.76144E-01
  opls_825  H825     1.0080     0.000    A    2.50000E-01   1.25520E-01
  opls_814  H814     1.0080     0.000    A    2.50000E-01   1.25520E-01
  opls_821  H821     1.0080     0.000    A    2.50000E-01   1.25520E-01
  opls_820  H820     1.0080     0.000    A    2.50000E-01   1.25520E-01
  opls_829  H829     1.0080     0.000    A    2.50000E-01   1.25520E-01
  opls_810  C810    12.0110     0.000    A    3.55000E-01   2.92880E-01
  opls_816  H816     1.0080     0.000    A    2.50000E-01   1.25520E-01
  opls_800  C800    12.0110     0.000    A    3.50000E-01   2.76144E-01
  opls_806  C806    12.0110     0.000    A    3.50000E-01   2.76144E-01
  opls_823  H823     1.0080     0.000    A    2.50000E-01   1.25520E-01
  opls_826  H826     1.0080     0.000    A    2.50000E-01   1.25520E-01
  opls_819  H819     1.0080     0.000    A    2.50000E-01   1.25520E-01
  opls_804  C804    12.0110     0.000    A    3.50000E-01   2.76144E-01
  opls_827  H827     1.0080     0.000    A    2.50000E-01   1.25520E-01
  opls_801  C801    12.0110     0.000    A    3.50000E-01   2.76144E-01
  opls_808  C808    12.0110     0.000    A    3.50000E-01   2.76144E-01
  opls_817  H817     1.0080     0.000    A    2.50000E-01   1.25520E-01
  opls_812  H812     1.0080     0.000    A    2.50000E-01   1.25520E-01
  opls_807  C807    12.0110     0.000    A    3.50000E-01   2.76144E-01
[ moleculetype ]
; Name               nrexcl
UNK                   3
[ atoms ]
;   nr       type  resnr residue  atom   cgnr     charge       mass  
     1   opls_800      1    UNK   C00      1    -0.2263    12.0110 
     2   opls_801      1    UNK   C01      1    -0.1583    12.0110 
     3   opls_802      1    UNK   C02      1    -0.1616    12.0110 
     4   opls_803      1    UNK   C03      1    -0.1081    12.0110 
     5   opls_804      1    UNK   C04      1    -0.1653    12.0110 
     6   opls_805      1    UNK   C05      1    -0.1678    12.0110 
     7   opls_806      1    UNK   C06      1     -0.091    12.0110 
     8   opls_807      1    UNK   C07      1    -0.2371    12.0110 
     9   opls_808      1    UNK   C08      1    -0.1502    12.0110 
    10   opls_809      1    UNK   C09      1    -0.1629    12.0110 
    11   opls_810      1    UNK   C0A      1     0.3808    12.0110 
    12   opls_811      1    UNK   O0B      1    -0.4598    15.9990 
    13   opls_812      1    UNK   H0C      1     0.0917     1.0080 
    14   opls_813      1    UNK   H0D      1     0.0917     1.0080 
    15   opls_814      1    UNK   H0E      1     0.0917     1.0080 
    16   opls_815      1    UNK   H0F      1     0.1216     1.0080 
    17   opls_816      1    UNK   H0G      1     0.0903     1.0080 
    18   opls_817      1    UNK   H0H      1     0.0903     1.0080 
    19   opls_818      1    UNK   H0I      1     0.0978     1.0080 
    20   opls_819      1    UNK   H0J      1     0.0864     1.0080 
    21   opls_820      1    UNK   H0K      1     0.0864     1.0080 
    22   opls_821      1    UNK   H0M      1     0.0873     1.0080 
    23   opls_822      1    UNK   H0N      1     0.0873     1.0080 
    24   opls_823      1    UNK   H0O      1     0.1064     1.0080 
    25   opls_824      1    UNK   H0P      1     0.0846     1.0080 
    26   opls_825      1    UNK   H0Q      1     0.0846     1.0080 
    27   opls_826      1    UNK   H0R      1     0.0846     1.0080 
    28   opls_827      1    UNK   H0S      1     0.1275     1.0080 
    29   opls_828      1    UNK   H0T      1     0.0987     1.0080 
    30   opls_829      1    UNK   H0U      1     0.0987     1.0080 
[ bonds ]
    2     1     1      0.1529 224262.400
    3     2     1      0.1529 224262.400
    4     3     1      0.1529 224262.400
    5     4     1      0.1529 224262.400
    6     5     1      0.1529 224262.400
    7     6     1      0.1529 224262.400
    8     7     1      0.1529 224262.400
    9     7     1      0.1529 224262.400
   10     4     1      0.1529 224262.400
   11     2     1      0.1522 265265.600
   12    11     1      0.1229 476976.000
   13     1     1      0.1090 284512.000
   14     1     1      0.1090 284512.000
   15     1     1      0.1090 284512.000
   16     2     1      0.1090 284512.000
   17     3     1      0.1090 284512.000
   18     3     1      0.1090 284512.000
   19     4     1      0.1090 284512.000
   20     5     1      0.1090 284512.000
   21     5     1      0.1090 284512.000
   22     6     1      0.1090 284512.000
   23     6     1      0.1090 284512.000
   24     7     1      0.1090 284512.000
   25     8     1      0.1090 284512.000
   26     8     1      0.1090 284512.000
   27     8     1      0.1090 284512.000
   28     9     1      0.1090 284512.000
   29    10     1      0.1090 284512.000
   30    10     1      0.1090 284512.000
   10     9     1      0.1529 224262.400
   11     9     1      0.1522 265265.600

[ angles ]
;  ai    aj    ak funct            c0            c1            c2            c3 
    1     2     3     1    112.700    488.273
    2     3     4     1    112.700    488.273
    3     4     5     1    112.700    488.273
    4     5     6     1    112.700    488.273
    5     6     7     1    112.700    488.273
    6     7     8     1    112.700    488.273
    6     7     9     1    112.700    488.273
    3     4    10     1    112.700    488.273
    1     2    11     1    111.100    527.184
    2    11    12     1    120.400    669.440
    2     1    13     1    110.700    313.800
    2     1    14     1    110.700    313.800
    2     1    15     1    110.700    313.800
    1     2    16     1    110.700    313.800
    2     3    17     1    110.700    313.800
    2     3    18     1    110.700    313.800
    3     4    19     1    110.700    313.800
    4     5    20     1    110.700    313.800
    4     5    21     1    110.700    313.800
    5     6    22     1    110.700    313.800
    5     6    23     1    110.700    313.800
    6     7    24     1    110.700    313.800
    7     8    25     1    110.700    313.800
    7     8    26     1    110.700    313.800
    7     8    27     1    110.700    313.800
    7     9    28     1    110.700    313.800
    4    10    29     1    110.700    313.800
    4    10    30     1    110.700    313.800
   25     8    27     1    107.800    276.144
    8     7     9     1    112.700    488.273
   11     2    16     1    109.500    292.880
   13     1    14     1    107.800    276.144
    9     7    24     1    110.700    313.800
   10     9    28     1    110.700    313.800
    9    10    29     1    110.700    313.800
    7     6    22     1    110.700    313.800
   29    10    30     1    107.800    276.144
    7     6    23     1    110.700    313.800
   13     1    15     1    107.800    276.144
    9    10    30     1    110.700    313.800
    4    10     9     1    112.700    488.273
    3     2    16     1    110.700    313.800
   14     1    15     1    107.800    276.144
    4     3    18     1    110.700    313.800
    3     2    11     1    111.100    527.184
    2    11     9     1    116.000    585.760
    7     9    11     1    111.100    527.184
   10     4    19     1    110.700    313.800
   20     5    21     1    107.800    276.144
    6     5    20     1    110.700    313.800
   22     6    23     1    107.800    276.144
    5     4    19     1    110.700    313.800
    9    11    12     1    120.400    669.440
   25     8    26     1    107.800    276.144
   11     9    28     1    109.500    292.880
    6     5    21     1    110.700    313.800
   10     9    11     1    111.100    527.184
    4     3    17     1    110.700    313.800
    8     7    24     1    110.700    313.800
    7     9    10     1    112.700    488.273
   17     3    18     1    107.800    276.144
    5     4    10     1    112.700    488.273
   26     8    27     1    107.800    276.144

[ dihedrals ]
; IMPROPER DIHEDRAL ANGLES 
;  ai    aj    ak    al funct            c0            c1            c2            c3            c4            c5
    12    11     2     9    4        180.000     43.932     2  

[ dihedrals ]
; PROPER DIHEDRAL ANGLES
;  ai    aj    ak    al funct            c0            c1            c2            c3            c4            c5
   11    9    7    6        3      -4.960   6.286   1.310  -2.636  -0.000   0.000
   11    2    3    4        3      -4.960   6.286   1.310  -2.636  -0.000   0.000
   11    9   10    4        3      -4.960   6.286   1.310  -2.636  -0.000   0.000
   11    9    7    8        3      -4.960   6.286   1.310  -2.636  -0.000   0.000
    9   11    2    1        3       0.818  -7.906   0.602   6.485  -0.000   0.000
    9   11    2    3        3       0.818  -7.906   0.602   6.485  -0.000   0.000
   10    9   11    2        3       0.818  -7.906   0.602   6.485  -0.000   0.000
    7    9   11    2        3       0.818  -7.906   0.602   6.485  -0.000   0.000
    4    3    2    1        3       2.301  -1.464   0.837  -1.674  -0.000   0.000
   10    9    7    8        3       2.301  -1.464   0.837  -1.674  -0.000   0.000
    9   10    4    3        3       2.301  -1.464   0.837  -1.674  -0.000   0.000
    9   10    4    5        3       2.301  -1.464   0.837  -1.674  -0.000   0.000
    9    7    6    5        3       2.301  -1.464   0.837  -1.674  -0.000   0.000
   10    4    3    2        3       2.301  -1.464   0.837  -1.674  -0.000   0.000
    7    9   10    4        3       2.301  -1.464   0.837  -1.674  -0.000   0.000
   10    4    5    6        3       2.301  -1.464   0.837  -1.674  -0.000   0.000
    5    4    3    2        3       2.301  -1.464   0.837  -1.674  -0.000   0.000
   10    9    7    6        3       2.301  -1.464   0.837  -1.674  -0.000   0.000
    6    5    4    3        3       2.301  -1.464   0.837  -1.674  -0.000   0.000
    8    7    6    5        3       2.301  -1.464   0.837  -1.674  -0.000   0.000
    7    6    5    4        3       2.301  -1.464   0.837  -1.674  -0.000   0.000
   28    9   11    2        3       0.575   1.726   0.000  -2.301  -0.000   0.000
   16    2   11    9        3       0.575   1.726   0.000  -2.301  -0.000   0.000
   28    9   11   12        3       0.000   0.000   0.000  -0.000  -0.000   0.000
   16    2   11   12        3       0.000   0.000   0.000  -0.000  -0.000   0.000
   24    7    9   11        3      -0.209  -0.628   0.000   0.837  -0.000   0.000
   17    3    2   11        3      -0.209  -0.628   0.000   0.837  -0.000   0.000
   29   10    9   11        3      -0.209  -0.628   0.000   0.837  -0.000   0.000
   14    1    2   11        3      -0.209  -0.628   0.000   0.837  -0.000   0.000
   18    3    2   11        3      -0.209  -0.628   0.000   0.837  -0.000   0.000
   13    1    2   11        3      -0.209  -0.628   0.000   0.837  -0.000   0.000
   30   10    9   11        3      -0.209  -0.628   0.000   0.837  -0.000   0.000
   15    1    2   11        3      -0.209  -0.628   0.000   0.837  -0.000   0.000
   22    6    5    4        3       0.628   1.883   0.000  -2.510  -0.000   0.000
   29   10    4    5        3       0.628   1.883   0.000  -2.510  -0.000   0.000
   19    4    5    6        3       0.628   1.883   0.000  -2.510  -0.000   0.000
   18    3    2    1        3       0.628   1.883   0.000  -2.510  -0.000   0.000
   25    8    7    6        3       0.628   1.883   0.000  -2.510  -0.000   0.000
   19    4    3    2        3       0.628   1.883   0.000  -2.510  -0.000   0.000
   17    3    4    5        3       0.628   1.883   0.000  -2.510  -0.000   0.000
   30   10    4    3        3       0.628   1.883   0.000  -2.510  -0.000   0.000
   24    7    6    5        3       0.628   1.883   0.000  -2.510  -0.000   0.000
   15    1    2    3        3       0.628   1.883   0.000  -2.510  -0.000   0.000
   23    6    7    9        3       0.628   1.883   0.000  -2.510  -0.000   0.000
   20    5    4   10        3       0.628   1.883   0.000  -2.510  -0.000   0.000
   28    9   10    4        3       0.628   1.883   0.000  -2.510  -0.000   0.000
   30   10    4    5        3       0.628   1.883   0.000  -2.510  -0.000   0.000
   26    8    7    6        3       0.628   1.883   0.000  -2.510  -0.000   0.000
   13    1    2    3        3       0.628   1.883   0.000  -2.510  -0.000   0.000
   26    8    7    9        3       0.628   1.883   0.000  -2.510  -0.000   0.000
   21    5    6    7        3       0.628   1.883   0.000  -2.510  -0.000   0.000
   17    3    2    1        3       0.628   1.883   0.000  -2.510  -0.000   0.000
   14    1    2    3        3       0.628   1.883   0.000  -2.510  -0.000   0.000
   22    6    7    8        3       0.628   1.883   0.000  -2.510  -0.000   0.000
   18    3    4    5        3       0.628   1.883   0.000  -2.510  -0.000   0.000
   30   10    9    7        3       0.628   1.883   0.000  -2.510  -0.000   0.000
   17    3    4   10        3       0.628   1.883   0.000  -2.510  -0.000   0.000
   18    3    4   10        3       0.628   1.883   0.000  -2.510  -0.000   0.000
   21    5    4    3        3       0.628   1.883   0.000  -2.510  -0.000   0.000
   28    9    7    6        3       0.628   1.883   0.000  -2.510  -0.000   0.000
   23    6    5    4        3       0.628   1.883   0.000  -2.510  -0.000   0.000
   23    6    7    8        3       0.628   1.883   0.000  -2.510  -0.000   0.000
   16    2    3    4        3       0.628   1.883   0.000  -2.510  -0.000   0.000
   27    8    7    6        3       0.628   1.883   0.000  -2.510  -0.000   0.000
   19    4   10    9        3       0.628   1.883   0.000  -2.510  -0.000   0.000
   28    9    7    8        3       0.628   1.883   0.000  -2.510  -0.000   0.000
   22    6    7    9        3       0.628   1.883   0.000  -2.510  -0.000   0.000
   24    7    9   10        3       0.628   1.883   0.000  -2.510  -0.000   0.000
   21    5    4   10        3       0.628   1.883   0.000  -2.510  -0.000   0.000
   20    5    4    3        3       0.628   1.883   0.000  -2.510  -0.000   0.000
   27    8    7    9        3       0.628   1.883   0.000  -2.510  -0.000   0.000
   29   10    9    7        3       0.628   1.883   0.000  -2.510  -0.000   0.000
   20    5    6    7        3       0.628   1.883   0.000  -2.510  -0.000   0.000
   25    8    7    9        3       0.628   1.883   0.000  -2.510  -0.000   0.000
   29   10    4    3        3       0.628   1.883   0.000  -2.510  -0.000   0.000
   27    8    7   24        3       0.628   1.883   0.000  -2.510  -0.000   0.000
   16    2    1   13        3       0.628   1.883   0.000  -2.510  -0.000   0.000
   28    9    7   24        3       0.628   1.883   0.000  -2.510  -0.000   0.000
   29   10    4   19        3       0.628   1.883   0.000  -2.510  -0.000   0.000
   22    6    5   20        3       0.628   1.883   0.000  -2.510  -0.000   0.000
   29   10    9   28        3       0.628   1.883   0.000  -2.510  -0.000   0.000
   16    2    1   14        3       0.628   1.883   0.000  -2.510  -0.000   0.000
   16    2    1   15        3       0.628   1.883   0.000  -2.510  -0.000   0.000
   17    3    2   16        3       0.628   1.883   0.000  -2.510  -0.000   0.000
   24    7    6   23        3       0.628   1.883   0.000  -2.510  -0.000   0.000
   26    8    7   24        3       0.628   1.883   0.000  -2.510  -0.000   0.000
   21    5    4   19        3       0.628   1.883   0.000  -2.510  -0.000   0.000
   20    5    4   19        3       0.628   1.883   0.000  -2.510  -0.000   0.000
   19    4    3   17        3       0.628   1.883   0.000  -2.510  -0.000   0.000
   19    4    3   18        3       0.628   1.883   0.000  -2.510  -0.000   0.000
   22    6    5   21        3       0.628   1.883   0.000  -2.510  -0.000   0.000
   30   10    4   19        3       0.628   1.883   0.000  -2.510  -0.000   0.000
   23    6    5   20        3       0.628   1.883   0.000  -2.510  -0.000   0.000
   24    7    6   22        3       0.628   1.883   0.000  -2.510  -0.000   0.000
   23    6    5   21        3       0.628   1.883   0.000  -2.510  -0.000   0.000
   25    8    7   24        3       0.628   1.883   0.000  -2.510  -0.000   0.000
   18    3    2   16        3       0.628   1.883   0.000  -2.510  -0.000   0.000
   30   10    9   28        3       0.628   1.883   0.000  -2.510  -0.000   0.000
   12   11    2    3        3       0.000   0.000   0.000  -0.000  -0.000   0.000
   12   11    9    7        3       0.000   0.000   0.000  -0.000  -0.000   0.000
   12   11    2    1        3       0.000   0.000   0.000  -0.000  -0.000   0.000
   12   11    9   10        3       0.000   0.000   0.000  -0.000  -0.000   0.000

[ pairs ]
     1     4    1
     2     5    1
     3     6    1
     2     7    1
     1     9    1
     4     7    1
     3     9    1
     2    10    1
     5     8    1
     1    12    1
     5     9    1
     4    11    1
     3    12    1
     6    10    1
     3    13    1
     6    11    1
     3    14    1
     8    10    1
     3    15    1
     1    17    1
     8    11    1
     7    12    1
     1    18    1
     4    16    1
     2    19    1
    10    12    1
     5    17    1
     5    18    1
     3    20    1
    11    13    1
     3    21    1
    11    14    1
     9    16    1
     6    19    1
    11    15    1
     4    22    1
    10    17    1
     7    20    1
     4    23    1
    12    16    1
    11    17    1
    10    18    1
     9    19    1
     7    21    1
    13    16    1
    11    18    1
     5    24    1
    14    16    1
    10    20    1
     8    22    1
     2    28    1
    15    16    1
    10    21    1
     9    22    1
     8    23    1
     6    25    1
     9    23    1
     6    26    1
     4    28    1
     3    29    1
    16    17    1
     6    27    1
     3    30    1
    16    18    1
    10    24    1
     9    25    1
     6    28    1
     5    29    1
    11    24    1
     9    26    1
     5    30    1
    17    19    1
     9    27    1
     8    28    1
     7    29    1
    18    19    1
     7    30    1
    19    20    1
    19    21    1
    12    28    1
    11    29    1
    11    30    1
    20    22    1
    21    22    1
    20    23    1
    21    23    1
    22    24    1
    23    24    1
    19    29    1
    24    25    1
    19    30    1
    24    26    1
    24    27    1
    24    28    1
    28    29    1
    28    30    1

