LIGPARGEN GENERATED GRO FILE
   29
    1UNK    C00    1   0.100   0.100   0.000
    1UNK    C01    2  -0.053   0.100   0.000
    1UNK    N02    3  -0.120   0.100   0.130
    1UNK    C03    4  -0.107   0.221   0.214
    1UNK    C04    5  -0.055   0.351   0.153
    1UNK    C05    6  -0.024   0.180   0.336
    1UNK    C06    7  -0.059   0.036   0.351
    1UNK    O07    8  -0.052  -0.028   0.456
    1UNK    C08    9  -0.100  -0.018   0.219
    1UNK    C09   10  -0.202  -0.129   0.213
    1UNK    C0A   11  -0.060  -0.155   0.169
    1UNK    C0B   12   0.030  -0.242   0.250
    1UNK    H0C   13   0.136   0.146  -0.092
    1UNK    H0D   14   0.140  -0.002   0.004
    1UNK    H0E   15   0.143   0.155   0.083
    1UNK    H0F   16  -0.087   0.014  -0.058
    1UNK    H0G   17  -0.088   0.186  -0.058
    1UNK    H0H   18  -0.209   0.242   0.249
    1UNK    H0I   19   0.050   0.344   0.121
    1UNK    H0J   20  -0.060   0.431   0.227
    1UNK    H0K   21  -0.116   0.381   0.067
    1UNK    H0M   22  -0.053   0.237   0.425
    1UNK    H0N   23   0.084   0.188   0.319
    1UNK    H0O   24  -0.279  -0.125   0.137
    1UNK    H0P   25  -0.236  -0.172   0.307
    1UNK    H0Q   26  -0.045  -0.171   0.064
    1UNK    H0R   27   0.001  -0.250   0.355
    1UNK    H0S   28   0.133  -0.202   0.246
    1UNK    H0T   29   0.032  -0.343   0.209
   1.00000   1.00000   1.00000

