LIGPARGEN GENERATED GRO FILE
   34
    1UNK    C00    1   0.100   0.100   0.000
    1UNK    C01    2  -0.053   0.100   0.000
    1UNK    C02    3  -0.124   0.100   0.140
    1UNK    C03    4  -0.087  -0.029   0.214
    1UNK    C04    5  -0.086   0.225   0.224
    1UNK    C05    6  -0.162   0.337   0.157
    1UNK    C06    7  -0.298   0.386   0.195
    1UNK    C07    8  -0.356   0.369   0.331
    1UNK    C08    9  -0.284   0.275   0.092
    1UNK    C09   10  -0.277   0.124   0.115
    1UNK    C0A   11  -0.378   0.074   0.218
    1UNK    O0B   12  -0.354   0.006   0.317
    1UNK    O0C   13  -0.504   0.117   0.183
    1UNK    C0D   14  -0.607   0.076   0.273
    1UNK    H0E   15   0.136   0.105  -0.103
    1UNK    H0F   16   0.141   0.009   0.045
    1UNK    H0G   17   0.141   0.187   0.053
    1UNK    H0H   18  -0.086   0.012  -0.056
    1UNK    H0I   19  -0.084   0.187  -0.059
    1UNK    H0J   20   0.022  -0.040   0.224
    1UNK    H0K   21  -0.124  -0.117   0.160
    1UNK    H0M   22  -0.126  -0.033   0.316
    1UNK    H0N   23   0.022   0.244   0.225
    1UNK    H0O   24  -0.118   0.213   0.328
    1UNK    H0P   25  -0.098   0.400   0.095
    1UNK    H0Q   26  -0.327   0.483   0.155
    1UNK    H0R   27  -0.326   0.278   0.381
    1UNK    H0S   28  -0.465   0.371   0.325
    1UNK    H0T   29  -0.325   0.454   0.394
    1UNK    H0U   30  -0.305   0.300  -0.011
    1UNK    H0V   31  -0.305   0.072   0.022
    1UNK    H0W   32  -0.696   0.134   0.250
    1UNK    H0X   33  -0.579   0.096   0.377
    1UNK    H0Y   34  -0.629  -0.030   0.258
   1.00000   1.00000   1.00000

