
;
; GENERATED BY LigParGen Server
; Jorgensen Lab @ Yale University 
;
[ atomtypes ]
  opls_818  H818     1.0080     0.000    A    2.50000E-01   1.25520E-01
  opls_824  H824     1.0080     0.000    A    2.50000E-01   1.25520E-01
  opls_805  O805    15.9990     0.000    A    2.96000E-01   8.78640E-01
  opls_828  H828     1.0080     0.000    A    2.50000E-01   1.25520E-01
  opls_806  C806    12.0110     0.000    A    3.50000E-01   2.76144E-01
  opls_815  H815     1.0080     0.000    A    2.50000E-01   1.25520E-01
  opls_809  C809    12.0110     0.000    A    3.50000E-01   2.76144E-01
  opls_830  H830     1.0080     0.000    A    2.50000E-01   1.25520E-01
  opls_822  H822     1.0080     0.000    A    2.50000E-01   1.25520E-01
  opls_803  C803    12.0110     0.000    A    3.50000E-01   2.76144E-01
  opls_825  H825     1.0080     0.000    A    2.50000E-01   1.25520E-01
  opls_807  C807    12.0110     0.000    A    3.30000E-01   2.76144E-01
  opls_814  H814     1.0080     0.000    A    2.50000E-01   1.25520E-01
  opls_821  H821     1.0080     0.000    A    2.50000E-01   1.25520E-01
  opls_808  N808    14.0070     0.000    A    3.20000E-01   7.11280E-01
  opls_820  H820     1.0080     0.000    A    2.50000E-01   1.25520E-01
  opls_826  H826     1.0080     0.000    A    2.50000E-01   1.25520E-01
  opls_829  H829     1.0080     0.000    A    2.50000E-01   1.25520E-01
  opls_804  C804    12.0110     0.000    A    3.55000E-01   2.92880E-01
  opls_816  H816     1.0080     0.000    A    2.50000E-01   1.25520E-01
  opls_800  C800    12.0110     0.000    A    3.50000E-01   2.76144E-01
  opls_813  C813    12.0110     0.000    A    3.45000E-01   3.47272E-01
  opls_811  C811    12.0110     0.000    A    3.50000E-01   2.76144E-01
  opls_823  H823     1.0080     0.000    A    2.50000E-01   1.25520E-01
  opls_802  C802    12.0110     0.000    A    3.45000E-01   3.47272E-01
  opls_819  H819     1.0080     0.000    A    2.50000E-01   1.25520E-01
  opls_810  C810    12.0110     0.000    A    3.50000E-01   2.76144E-01
  opls_827  H827     1.0080     0.000    A    2.50000E-01   1.25520E-01
  opls_812  C812    12.0110     0.000    A    3.50000E-01   2.76144E-01
  opls_817  H817     1.0080     0.000    A    2.50000E-01   1.25520E-01
  opls_801  C801    12.0110     0.000    A    3.45000E-01   3.47272E-01
[ moleculetype ]
; Name               nrexcl
UNK                   3
[ atoms ]
;   nr       type  resnr residue  atom   cgnr     charge       mass  
     1   opls_800      1    UNK   C00      1    -0.2131    12.0110 
     2   opls_801      1    UNK   C01      1     -0.158    12.0110 
     3   opls_802      1    UNK   C02      1    -0.1772    12.0110 
     4   opls_803      1    UNK   C03      1    -0.1923    12.0110 
     5   opls_804      1    UNK   C04      1     0.3763    12.0110 
     6   opls_805      1    UNK   O05      1    -0.4166    15.9990 
     7   opls_806      1    UNK   C06      1    -0.0145    12.0110 
     8   opls_807      1    UNK   C07      1     0.1438    12.0110 
     9   opls_808      1    UNK   N08      1    -0.3769    14.0070 
    10   opls_809      1    UNK   C09      1    -0.0238    12.0110 
    11   opls_810      1    UNK   C0A      1    -0.2452    12.0110 
    12   opls_811      1    UNK   C0B      1    -0.2357    12.0110 
    13   opls_812      1    UNK   C0C      1    -0.1405    12.0110 
    14   opls_813      1    UNK   C0D      1    -0.1765    12.0110 
    15   opls_814      1    UNK   H0E      1     0.0898     1.0080 
    16   opls_815      1    UNK   H0F      1     0.0898     1.0080 
    17   opls_816      1    UNK   H0G      1     0.0898     1.0080 
    18   opls_817      1    UNK   H0H      1     0.1478     1.0080 
    19   opls_818      1    UNK   H0I      1     0.1408     1.0080 
    20   opls_819      1    UNK   H0J      1     0.1227     1.0080 
    21   opls_820      1    UNK   H0K      1     0.1227     1.0080 
    22   opls_821      1    UNK   H0M      1     0.1513     1.0080 
    23   opls_822      1    UNK   H0N      1     0.0922     1.0080 
    24   opls_823      1    UNK   H0O      1     0.0922     1.0080 
    25   opls_824      1    UNK   H0P      1     0.0922     1.0080 
    26   opls_825      1    UNK   H0Q      1     0.0957     1.0080 
    27   opls_826      1    UNK   H0R      1     0.0957     1.0080 
    28   opls_827      1    UNK   H0S      1     0.0957     1.0080 
    29   opls_828      1    UNK   H0T      1     0.0983     1.0080 
    30   opls_829      1    UNK   H0U      1     0.0983     1.0080 
    31   opls_830      1    UNK   H0V      1     0.1353     1.0080 
[ bonds ]
    2     1     1      0.1510 234304.000
    3     2     1      0.1520 217568.000
    4     3     1      0.1510 234304.000
    5     4     1      0.1522 265265.600
    6     5     1      0.1229 476976.000
    7     5     1      0.1522 265265.600
    8     7     1      0.1470 326352.000
    9     8     1      0.1157 543920.000
   10     7     1      0.1529 224262.400
   11    10     1      0.1529 224262.400
   12    10     1      0.1529 224262.400
   13    10     1      0.1529 224262.400
   14     2     1      0.1520 217568.000
   15     1     1      0.1090 284512.000
   16     1     1      0.1090 284512.000
   17     1     1      0.1090 284512.000
   18     2     1      0.1088 284512.000
   19     3     1      0.1088 284512.000
   20     4     1      0.1090 284512.000
   21     4     1      0.1090 284512.000
   22     7     1      0.1090 284512.000
   23    11     1      0.1090 284512.000
   24    11     1      0.1090 284512.000
   25    11     1      0.1090 284512.000
   26    12     1      0.1090 284512.000
   27    12     1      0.1090 284512.000
   28    12     1      0.1090 284512.000
   29    13     1      0.1090 284512.000
   30    13     1      0.1090 284512.000
   31    14     1      0.1088 284512.000
   14     3     1      0.1520 217568.000
   14    13     1      0.1510 234304.000

[ angles ]
;  ai    aj    ak funct            c0            c1            c2            c3 
    1     2     3     1    117.200    313.800
    2     3     4     1    117.200    313.800
    3     4     5     1    111.100    527.184
    4     5     6     1    120.400    669.440
    4     5     7     1    116.000    585.760
    5     7     8     1    110.580    432.207
    7     8     9     1    180.000   1255.200
    5     7    10     1    111.100    527.184
    7    10    11     1    112.700    488.273
    7    10    12     1    112.700    488.273
    7    10    13     1    112.700    488.273
    1     2    14     1    117.200    313.800
    2     1    15     1    110.700    313.800
    2     1    16     1    110.700    313.800
    2     1    17     1    110.700    313.800
    1     2    18     1    114.300    292.880
    2     3    19     1    117.200    313.800
    3     4    20     1    110.700    313.800
    3     4    21     1    110.700    313.800
    5     7    22     1    109.500    292.880
   10    11    23     1    110.700    313.800
   10    11    24     1    110.700    313.800
   10    11    25     1    110.700    313.800
   10    12    26     1    110.700    313.800
   10    12    27     1    110.700    313.800
   10    12    28     1    110.700    313.800
   10    13    29     1    110.700    313.800
   10    13    30     1    110.700    313.800
    2    14    31     1    117.200    313.800
   11    10    12     1    112.700    488.273
   14    13    29     1    110.700    313.800
    3     2    14     1     83.000    251.040
   26    12    27     1    107.800    276.144
    3     2    18     1    117.200    313.800
    4     3    14     1    117.200    313.800
   24    11    25     1    107.800    276.144
   14    13    30     1    110.700    313.800
    3    14    13     1    117.200    313.800
   10    13    14     1    112.700    488.273
    4     3    19     1    114.300    292.880
   23    11    24     1    107.800    276.144
   10     7    22     1    110.700    313.800
   14     2    18     1    117.200    313.800
   27    12    28     1    107.800    276.144
   26    12    28     1    107.800    276.144
    2    14     3     1     83.000    251.040
   12    10    13     1    112.700    488.273
    6     5     7     1    120.400    669.440
   15     1    16     1    107.800    276.144
   29    13    30     1    107.800    276.144
    3    14    31     1    117.200    313.800
   14     3    19     1    117.200    313.800
    8     7    22     1    108.500    292.880
    2    14    13     1    117.200    313.800
   15     1    17     1    107.800    276.144
    5     4    20     1    109.500    292.880
    2     3    14     1     83.000    251.040
   11    10    13     1    112.700    488.273
   13    14    31     1    114.300    292.880
   23    11    25     1    107.800    276.144
    5     4    21     1    109.500    292.880
   16     1    17     1    107.800    276.144
    8     7    10     1    112.700    488.273
   20     4    21     1    107.800    276.144

[ dihedrals ]
; IMPROPER DIHEDRAL ANGLES 
;  ai    aj    ak    al funct            c0            c1            c2            c3            c4            c5
     7     5     4     6    4        180.000     43.932     2  

[ dihedrals ]
; PROPER DIHEDRAL ANGLES
;  ai    aj    ak    al funct            c0            c1            c2            c3            c4            c5
    5    4    3    2        3      -4.960   6.286   1.310  -2.636  -0.000   0.000
    7    5    4    3        3       0.818  -7.906   0.602   6.485  -0.000   0.000
   10    7    5    4        3       0.818  -7.906   0.602   6.485  -0.000   0.000
   10    7    5    6        3       0.000   0.000   0.000  -0.000  -0.000   0.000
   13   10    7    5        3      -4.960   6.286   1.310  -2.636  -0.000   0.000
   11   10    7    5        3      -4.960   6.286   1.310  -2.636  -0.000   0.000
   12   10    7    5        3      -4.960   6.286   1.310  -2.636  -0.000   0.000
   13   10    7    8        3      -2.720   0.000   2.720  -0.000  -0.000   0.000
   11   10    7    8        3      -2.720   0.000   2.720  -0.000  -0.000   0.000
   12   10    7    8        3      -2.720   0.000   2.720  -0.000  -0.000   0.000
   10   13   14    2        3       0.000   0.000   0.000  -0.000  -0.000   0.000
   10   13   14    3        3       0.000   0.000   0.000  -0.000  -0.000   0.000
   10    7    8    9        3       0.000   0.000   0.000  -0.000  -0.000   0.000
   13   14    3    4        3       0.000   0.000   0.000  -0.000  -0.000   0.000
   13   14    2    1        3       0.000   0.000   0.000  -0.000  -0.000   0.000
    4    3    2    1        3       0.000   0.000   0.000  -0.000  -0.000   0.000
   13   14    2    3        3       0.000   0.000   0.000  -0.000  -0.000   0.000
   13   14    3    2        3       0.000   0.000   0.000  -0.000  -0.000   0.000
    4    3   14    2        3       0.000   0.000   0.000  -0.000  -0.000   0.000
   14   13   10   12        3       2.301  -1.464   0.837  -1.674  -0.000   0.000
   14   13   10    7        3       2.301  -1.464   0.837  -1.674  -0.000   0.000
   14   13   10   11        3       2.301  -1.464   0.837  -1.674  -0.000   0.000
   14    3    4    5        3      -4.960   6.286   1.310  -2.636  -0.000   0.000
   14    2    1    3        3       0.000   0.000   0.000  -0.000  -0.000   0.000
    8    7    5    4        3       0.818  -7.906   0.602   6.485  -0.000   0.000
    8    7    5    6        3       0.000   0.000   0.000  -0.000  -0.000   0.000
   20    4    5    7        3       0.575   1.726   0.000  -2.301  -0.000   0.000
   21    4    5    7        3       0.575   1.726   0.000  -2.301  -0.000   0.000
   22    7    5    4        3       0.575   1.726   0.000  -2.301  -0.000   0.000
   21    4    5    6        3       0.000   0.000   0.000  -0.000  -0.000   0.000
   22    7    5    6        3       0.000   0.000   0.000  -0.000  -0.000   0.000
   20    4    5    6        3       0.000   0.000   0.000  -0.000  -0.000   0.000
   27   12   10   13        3       0.628   1.883   0.000  -2.510  -0.000   0.000
   25   11   10   12        3       0.628   1.883   0.000  -2.510  -0.000   0.000
   23   11   10   12        3       0.628   1.883   0.000  -2.510  -0.000   0.000
   23   11   10    7        3       0.628   1.883   0.000  -2.510  -0.000   0.000
   24   11   10   13        3       0.628   1.883   0.000  -2.510  -0.000   0.000
   24   11   10    7        3       0.628   1.883   0.000  -2.510  -0.000   0.000
   29   13   10    7        3       0.628   1.883   0.000  -2.510  -0.000   0.000
   30   13   10   12        3       0.628   1.883   0.000  -2.510  -0.000   0.000
   29   13   10   11        3       0.628   1.883   0.000  -2.510  -0.000   0.000
   28   12   10   13        3       0.628   1.883   0.000  -2.510  -0.000   0.000
   22    7   10   11        3       0.628   1.883   0.000  -2.510  -0.000   0.000
   27   12   10    7        3       0.628   1.883   0.000  -2.510  -0.000   0.000
   24   11   10   12        3       0.628   1.883   0.000  -2.510  -0.000   0.000
   28   12   10   11        3       0.628   1.883   0.000  -2.510  -0.000   0.000
   22    7   10   13        3       0.628   1.883   0.000  -2.510  -0.000   0.000
   27   12   10   11        3       0.628   1.883   0.000  -2.510  -0.000   0.000
   26   12   10   13        3       0.628   1.883   0.000  -2.510  -0.000   0.000
   25   11   10   13        3       0.628   1.883   0.000  -2.510  -0.000   0.000
   26   12   10    7        3       0.628   1.883   0.000  -2.510  -0.000   0.000
   22    7   10   12        3       0.628   1.883   0.000  -2.510  -0.000   0.000
   23   11   10   13        3       0.628   1.883   0.000  -2.510  -0.000   0.000
   30   13   10    7        3       0.628   1.883   0.000  -2.510  -0.000   0.000
   26   12   10   11        3       0.628   1.883   0.000  -2.510  -0.000   0.000
   29   13   10   12        3       0.628   1.883   0.000  -2.510  -0.000   0.000
   25   11   10    7        3       0.628   1.883   0.000  -2.510  -0.000   0.000
   30   13   10   11        3       0.628   1.883   0.000  -2.510  -0.000   0.000
   28   12   10    7        3       0.628   1.883   0.000  -2.510  -0.000   0.000
   16    1    2   14        3       0.628   1.883   0.000  -2.510  -0.000   0.000
   20    4    3    2        3       0.628   1.883   0.000  -2.510  -0.000   0.000
   21    4    3    2        3       0.628   1.883   0.000  -2.510  -0.000   0.000
   17    1    2    3        3       0.628   1.883   0.000  -2.510  -0.000   0.000
   29   13   14    3        3       0.628   1.883   0.000  -2.510  -0.000   0.000
   30   13   14    2        3       0.628   1.883   0.000  -2.510  -0.000   0.000
   15    1    2    3        3       0.628   1.883   0.000  -2.510  -0.000   0.000
   15    1    2   14        3       0.628   1.883   0.000  -2.510  -0.000   0.000
   30   13   14    3        3       0.628   1.883   0.000  -2.510  -0.000   0.000
   29   13   14    2        3       0.628   1.883   0.000  -2.510  -0.000   0.000
   16    1    2    3        3       0.628   1.883   0.000  -2.510  -0.000   0.000
   17    1    2   14        3       0.628   1.883   0.000  -2.510  -0.000   0.000
   20    4    3   14        3       0.628   1.883   0.000  -2.510  -0.000   0.000
   21    4    3   14        3       0.628   1.883   0.000  -2.510  -0.000   0.000
   20    4    3   19        3       0.628   1.883   0.000  -2.510  -0.000   0.000
   21    4    3   19        3       0.628   1.883   0.000  -2.510  -0.000   0.000
   22    7    8    9        3       0.000   0.000   0.000  -0.000  -0.000   0.000
   19    3    4    5        3      -0.209  -0.628   0.000   0.837  -0.000   0.000
   31   14   13   10        3       0.628   1.883   0.000  -2.510  -0.000   0.000
   31   14   13   29        3       0.628   1.883   0.000  -2.510  -0.000   0.000
   18    2    1   16        3       0.628   1.883   0.000  -2.510  -0.000   0.000
   31   14   13   30        3       0.628   1.883   0.000  -2.510  -0.000   0.000
   18    2    1   17        3       0.628   1.883   0.000  -2.510  -0.000   0.000
   18    2    1   15        3       0.628   1.883   0.000  -2.510  -0.000   0.000
   19    3    2    1        3       0.000   0.000   0.000  -0.000  -0.000   0.000
   19    3   14   13        3       0.000   0.000   0.000  -0.000  -0.000   0.000
   18    2   14   13        3       0.000   0.000   0.000  -0.000  -0.000   0.000
   18    2    3    4        3       0.000   0.000   0.000  -0.000  -0.000   0.000
   31   14    2    1        3       0.000   0.000   0.000  -0.000  -0.000   0.000
   31   14    3    4        3       0.000   0.000   0.000  -0.000  -0.000   0.000
   19    3    2   14        3       0.000   0.000   0.000  -0.000  -0.000   0.000
   18    2   14    3        3       0.000   0.000   0.000  -0.000  -0.000   0.000
   19    3   14    2        3       0.000   0.000   0.000  -0.000  -0.000   0.000
   31   14    3    2        3       0.000   0.000   0.000  -0.000  -0.000   0.000
   31   14    2    3        3       0.000   0.000   0.000  -0.000  -0.000   0.000
   18    2    3   14        3       0.000   0.000   0.000  -0.000  -0.000   0.000
   19    3    2   18        3       0.000   0.000   0.000  -0.000  -0.000   0.000
   31   14    2   18        3       0.000   0.000   0.000  -0.000  -0.000   0.000
   31   14    3   19        3       0.000   0.000   0.000  -0.000  -0.000   0.000
    9    8    7    5        3       0.000   0.000   0.000  -0.000  -0.000   0.000
    6    5    4    3        3       0.000   0.000   0.000  -0.000  -0.000   0.000

[ pairs ]
     1     4    1
     2     5    1
     3     6    1
     3     7    1
     4     8    1
     2    10    1
     3    10    1
     6     8    1
     5     9    1
     4    10    1
     1    13    1
     6    10    1
     5    11    1
     5    12    1
     4    13    1
     5    13    1
     3    15    1
     9    10    1
     8    11    1
     5    14    1
     3    16    1
     8    12    1
     3    17    1
     1    19    1
     8    13    1
     7    14    1
     4    18    1
     2    20    1
     2    21    1
     5    19    1
    11    14    1
    12    14    1
     6    20    1
     4    22    1
     7    20    1
     6    21    1
     7    21    1
     6    22    1
    14    15    1
    14    16    1
     7    23    1
    14    17    1
    13    18    1
     9    22    1
     7    24    1
     2    29    1
    13    19    1
     7    25    1
     3    29    1
     2    30    1
     1    31    1
    15    18    1
    11    22    1
     7    26    1
     3    30    1
    16    18    1
    14    20    1
    12    22    1
     7    27    1
    17    18    1
    14    21    1
    13    22    1
    12    23    1
     7    28    1
     4    31    1
    13    23    1
    12    24    1
     7    29    1
    18    19    1
    13    24    1
    12    25    1
    11    26    1
     7    30    1
    13    25    1
    11    27    1
    19    20    1
    13    26    1
    11    28    1
    19    21    1
    13    27    1
    11    29    1
    13    28    1
    12    29    1
    11    30    1
    10    31    1
    12    30    1
    18    31    1
    19    31    1
    29    31    1
    30    31    1

