LIGPARGEN GENERATED GRO FILE
   31
    1UNK    C00    1   0.100   0.100   0.000
    1UNK    C01    2  -0.049   0.100   0.000
    1UNK    C02    3  -0.133   0.100   0.126
    1UNK    C03    4  -0.265   0.028   0.134
    1UNK    C04    5  -0.328  -0.005   0.000
    1UNK    O05    6  -0.315  -0.118  -0.047
    1UNK    C06    7  -0.406   0.105  -0.070
    1UNK    C07    8  -0.489   0.049  -0.184
    1UNK    N08    9  -0.558   0.003  -0.279
    1UNK    C09   10  -0.317   0.220  -0.130
    1UNK    C0A   11  -0.411   0.331  -0.188
    1UNK    C0B   12  -0.229   0.175  -0.249
    1UNK    C0C   13  -0.235   0.292  -0.020
    1UNK    C0D   14  -0.119   0.226   0.045
    1UNK    H0E   15   0.138  -0.002  -0.004
    1UNK    H0F   16   0.142   0.149   0.088
    1UNK    H0G   17   0.136   0.153  -0.089
    1UNK    H0H   18  -0.084   0.036  -0.079
    1UNK    H0I   19  -0.081   0.097   0.222
    1UNK    H0J   20  -0.336   0.088   0.193
    1UNK    H0K   21  -0.251  -0.066   0.189
    1UNK    H0M   22  -0.476   0.146   0.003
    1UNK    H0N   23  -0.469   0.295  -0.274
    1UNK    H0O   24  -0.353   0.417  -0.224
    1UNK    H0P   25  -0.482   0.367  -0.113
    1UNK    H0Q   26  -0.286   0.173  -0.343
    1UNK    H0R   27  -0.191   0.073  -0.238
    1UNK    H0S   28  -0.145   0.243  -0.265
    1UNK    H0T   29  -0.304   0.324   0.060
    1UNK    H0U   30  -0.196   0.386  -0.062
    1UNK    H0V   31  -0.056   0.303   0.090
   1.00000   1.00000   1.00000

