LIGPARGEN GENERATED GRO FILE
   13
    1UNK    C00    1   0.100   0.100   0.000
    1UNK    C01    2  -0.050   0.100   0.000
    1UNK    O02    3  -0.119   0.100   0.101
    1UNK    O03    4  -0.095   0.094  -0.128
    1UNK    C04    5  -0.233   0.057  -0.142
    1UNK    P05    6  -0.262  -0.126  -0.161
    1UNK    H06    7   0.136   0.100   0.103
    1UNK    H07    8   0.138   0.189  -0.051
    1UNK    H08    9   0.136   0.009  -0.049
    1UNK    H09   10  -0.268   0.105  -0.234
    1UNK    H0A   11  -0.294   0.098  -0.061
    1UNK    H0B   12  -0.198  -0.139  -0.286
    1UNK    H0C   13  -0.393  -0.118  -0.211
   1.00000   1.00000   1.00000

