
;
; GENERATED BY LigParGen Server
; Jorgensen Lab @ Yale University 
;
[ atomtypes ]
  opls_812  H812     1.0080     0.000    A    0.00000E+00   0.00000E+00
  opls_810  H810     1.0080     0.000    A    2.50000E-01   1.25520E-01
  opls_800  C800    12.0110     0.000    A    3.50000E-01   2.76144E-01
  opls_807  H807     1.0080     0.000    A    2.50000E-01   1.25520E-01
  opls_802  O802    15.9990     0.000    A    2.96000E-01   8.78640E-01
  opls_806  H806     1.0080     0.000    A    2.50000E-01   1.25520E-01
  opls_805  P805    30.9738     0.000    A    3.74000E-01   8.36800E-01
  opls_809  H809     1.0080     0.000    A    2.50000E-01   1.25520E-01
  opls_803  O803    15.9990     0.000    A    2.90000E-01   5.85760E-01
  opls_808  H808     1.0080     0.000    A    2.50000E-01   1.25520E-01
  opls_801  C801    12.0110     0.000    A    3.55000E-01   2.92880E-01
  opls_811  H811     1.0080     0.000    A    0.00000E+00   0.00000E+00
  opls_804  C804    12.0110     0.000    A    3.50000E-01   2.76144E-01
[ moleculetype ]
; Name               nrexcl
UNK                   3
[ atoms ]
;   nr       type  resnr residue  atom   cgnr     charge       mass  
     1   opls_800      1    UNK   C00      1    -0.2626    12.0110 
     2   opls_801      1    UNK   C01      1     0.4435    12.0110 
     3   opls_802      1    UNK   O02      1    -0.4302    15.9990 
     4   opls_803      1    UNK   O03      1    -0.3485    15.9990 
     5   opls_804      1    UNK   C04      1    -0.0861    12.0110 
     6   opls_805      1    UNK   P05      1     0.0188    30.9738 
     7   opls_806      1    UNK   H06      1     0.1286     1.0080 
     8   opls_807      1    UNK   H07      1     0.1286     1.0080 
     9   opls_808      1    UNK   H08      1     0.1286     1.0080 
    10   opls_809      1    UNK   H09      1     0.1189     1.0080 
    11   opls_810      1    UNK   H0A      1     0.1189     1.0080 
    12   opls_811      1    UNK   H0B      1     0.0207     1.0080 
    13   opls_812      1    UNK   H0C      1     0.0207     1.0080 
[ bonds ]
    2     1     1      0.1522 265265.600
    3     2     1      0.1229 476976.000
    4     2     1      0.1327 179075.200
    5     4     1      0.1410 267776.000
    6     5     1      0.1843 177401.600
    7     1     1      0.1090 284512.000
    8     1     1      0.1090 284512.000
    9     1     1      0.1090 284512.000
   10     5     1      0.1090 284512.000
   11     5     1      0.1090 284512.000
   12     6     1      0.1310 214806.560
   13     6     1      0.1310 214806.560

[ angles ]
;  ai    aj    ak funct            c0            c1            c2            c3 
    1     2     3     1    120.400    669.440
    1     2     4     1    111.400    677.808
    2     4     5     1    116.900    694.544
    4     5     6     1    110.580    432.207
    2     1     7     1    109.500    292.880
    2     1     8     1    109.500    292.880
    2     1     9     1    109.500    292.880
    4     5    10     1    109.500    292.880
    4     5    11     1    109.500    292.880
    5     6    12     1    108.400    531.954
    5     6    13     1    108.400    531.954
    7     1     8     1    107.800    276.144
    3     2     4     1    123.400    694.544
    6     5    10     1    109.500    343.088
   12     6    13     1    108.400    531.954
    6     5    11     1    109.500    343.088
    7     1     9     1    107.800    276.144
   10     5    11     1    107.800    276.144
    8     1     9     1    107.800    276.144

[ dihedrals ]
; IMPROPER DIHEDRAL ANGLES 
;  ai    aj    ak    al funct            c0            c1            c2            c3            c4            c5
     4     2     1     3    4        180.000     43.932     2  

[ dihedrals ]
; PROPER DIHEDRAL ANGLES
;  ai    aj    ak    al funct            c0            c1            c2            c3            c4            c5
    5    4    2    1        3      31.206  -9.768  -21.439  -0.000  -0.000   0.000
    5    4    2    3        3      21.439   0.000  -21.439  -0.000  -0.000   0.000
   13    6    5   11        3       0.000   0.000   0.000  -0.000  -0.000   0.000
   12    6    5   10        3       0.000   0.000   0.000  -0.000  -0.000   0.000
   13    6    5   10        3       0.000   0.000   0.000  -0.000  -0.000   0.000
   12    6    5   11        3       0.000   0.000   0.000  -0.000  -0.000   0.000
   12    6    5    4        3       0.000   0.000   0.000  -0.000  -0.000   0.000
   13    6    5    4        3       0.000   0.000   0.000  -0.000  -0.000   0.000
    7    1    2    3        3       0.000   0.000   0.000  -0.000  -0.000   0.000
    8    1    2    3        3       0.000   0.000   0.000  -0.000  -0.000   0.000
    9    1    2    3        3       0.000   0.000   0.000  -0.000  -0.000   0.000
    8    1    2    4        3       0.276   0.828   0.000  -1.105  -0.000   0.000
    7    1    2    4        3       0.276   0.828   0.000  -1.105  -0.000   0.000
    9    1    2    4        3       0.276   0.828   0.000  -1.105  -0.000   0.000
   10    5    4    2        3       0.414   1.243   0.000  -1.657  -0.000   0.000
   11    5    4    2        3       0.414   1.243   0.000  -1.657  -0.000   0.000
    6    5    4    2        3       0.414   1.243   0.000  -1.657  -0.000   0.000

[ pairs ]
     1     5    1
     3     5    1
     2     6    1
     3     7    1
     4     7    1
     3     8    1
     4     8    1
     3     9    1
     2    10    1
     4     9    1
     2    11    1
     4    12    1
     4    13    1
    10    12    1
    11    12    1
    10    13    1
    11    13    1

