
;
; GENERATED BY LigParGen Server
; Jorgensen Lab @ Yale University 
;
[ atomtypes ]
  opls_807  O807    15.9990     0.000    A    2.96000E-01   8.78640E-01
  opls_818  H818     1.0080     0.000    A    2.50000E-01   1.25520E-01
  opls_824  H824     1.0080     0.000    A    2.50000E-01   1.25520E-01
  opls_810  O810    15.9990     0.000    A    2.90000E-01   5.85760E-01
  opls_813  H813     1.0080     0.000    A    2.50000E-01   1.25520E-01
  opls_802  C802    12.0110     0.000    A    3.50000E-01   2.76144E-01
  opls_815  H815     1.0080     0.000    A    2.50000E-01   1.25520E-01
  opls_801  C801    12.0110     0.000    A    3.50000E-01   2.76144E-01
  opls_822  H822     1.0080     0.000    A    2.50000E-01   1.25520E-01
  opls_803  C803    12.0110     0.000    A    3.50000E-01   2.76144E-01
  opls_808  C808    12.0110     0.000    A    3.45000E-01   3.47272E-01
  opls_825  H825     1.0080     0.000    A    2.50000E-01   1.25520E-01
  opls_814  H814     1.0080     0.000    A    2.50000E-01   1.25520E-01
  opls_821  H821     1.0080     0.000    A    2.50000E-01   1.25520E-01
  opls_820  H820     1.0080     0.000    A    2.50000E-01   1.25520E-01
  opls_811  H811     1.0080     0.000    A    2.50000E-01   1.25520E-01
  opls_816  H816     1.0080     0.000    A    2.50000E-01   1.25520E-01
  opls_800  C800    12.0110     0.000    A    3.50000E-01   2.76144E-01
  opls_805  C805    12.0110     0.000    A    3.50000E-01   2.76144E-01
  opls_823  H823     1.0080     0.000    A    2.50000E-01   1.25520E-01
  opls_806  C806    12.0110     0.000    A    3.55000E-01   2.92880E-01
  opls_826  H826     1.0080     0.000    A    2.50000E-01   1.25520E-01
  opls_819  H819     1.0080     0.000    A    2.50000E-01   1.25520E-01
  opls_804  C804    12.0110     0.000    A    3.50000E-01   2.76144E-01
  opls_817  H817     1.0080     0.000    A    2.50000E-01   1.25520E-01
  opls_809  C809    12.0110     0.000    A    3.45000E-01   3.47272E-01
  opls_812  H812     1.0080     0.000    A    2.50000E-01   1.25520E-01
[ moleculetype ]
; Name               nrexcl
UNK                   3
[ atoms ]
;   nr       type  resnr residue  atom   cgnr     charge       mass  
     1   opls_800      1    UNK   C00      1    -0.2387    12.0110 
     2   opls_801      1    UNK   C01      1    -0.1796    12.0110 
     3   opls_802      1    UNK   C02      1    -0.1755    12.0110 
     4   opls_803      1    UNK   C03      1    -0.1721    12.0110 
     5   opls_804      1    UNK   C04      1    -0.1562    12.0110 
     6   opls_805      1    UNK   C05      1    -0.2293    12.0110 
     7   opls_806      1    UNK   C06      1     0.3913    12.0110 
     8   opls_807      1    UNK   O07      1    -0.4266    15.9990 
     9   opls_808      1    UNK   C08      1    -0.1097    12.0110 
    10   opls_809      1    UNK   C09      1    -0.0642    12.0110 
    11   opls_810      1    UNK   O0A      1    -0.3311    15.9990 
    12   opls_811      1    UNK   H0B      1     0.0815     1.0080 
    13   opls_812      1    UNK   H0C      1     0.0815     1.0080 
    14   opls_813      1    UNK   H0D      1     0.0815     1.0080 
    15   opls_814      1    UNK   H0E      1     0.0903     1.0080 
    16   opls_815      1    UNK   H0F      1     0.0903     1.0080 
    17   opls_816      1    UNK   H0G      1     0.0907     1.0080 
    18   opls_817      1    UNK   H0H      1     0.0907     1.0080 
    19   opls_818      1    UNK   H0I      1     0.1017     1.0080 
    20   opls_819      1    UNK   H0J      1     0.1017     1.0080 
    21   opls_820      1    UNK   H0K      1     0.1367     1.0080 
    22   opls_821      1    UNK   H0M      1     0.0921     1.0080 
    23   opls_822      1    UNK   H0N      1     0.0921     1.0080 
    24   opls_823      1    UNK   H0O      1     0.0921     1.0080 
    25   opls_824      1    UNK   H0P      1      0.179     1.0080 
    26   opls_825      1    UNK   H0Q      1     0.1449     1.0080 
    27   opls_826      1    UNK   H0R      1     0.1449     1.0080 
[ bonds ]
    2     1     1      0.1529 224262.400
    3     2     1      0.1529 224262.400
    4     3     1      0.1529 224262.400
    5     4     1      0.1529 224262.400
    6     5     1      0.1529 224262.400
    7     5     1      0.1522 265265.600
    8     7     1      0.1229 476976.000
    9     7     1      0.1522 265265.600
   10     9     1      0.1520 217568.000
   11     9     1      0.1410 267776.000
   12     1     1      0.1090 284512.000
   13     1     1      0.1090 284512.000
   14     1     1      0.1090 284512.000
   15     2     1      0.1090 284512.000
   16     2     1      0.1090 284512.000
   17     3     1      0.1090 284512.000
   18     3     1      0.1090 284512.000
   19     4     1      0.1090 284512.000
   20     4     1      0.1090 284512.000
   21     5     1      0.1090 284512.000
   22     6     1      0.1090 284512.000
   23     6     1      0.1090 284512.000
   24     6     1      0.1090 284512.000
   25     9     1      0.1088 284512.000
   26    10     1      0.1088 284512.000
   27    10     1      0.1088 284512.000
   11    10     1      0.1410 267776.000

[ angles ]
;  ai    aj    ak funct            c0            c1            c2            c3 
    1     2     3     1    112.700    488.273
    2     3     4     1    112.700    488.273
    3     4     5     1    112.700    488.273
    4     5     6     1    112.700    488.273
    4     5     7     1    111.100    527.184
    5     7     8     1    120.400    669.440
    5     7     9     1    116.000    585.760
    7     9    10     1    111.100    527.184
    7     9    11     1    109.500    418.400
    2     1    12     1    110.700    313.800
    2     1    13     1    110.700    313.800
    2     1    14     1    110.700    313.800
    1     2    15     1    110.700    313.800
    1     2    16     1    110.700    313.800
    2     3    17     1    110.700    313.800
    2     3    18     1    110.700    313.800
    3     4    19     1    110.700    313.800
    3     4    20     1    110.700    313.800
    4     5    21     1    110.700    313.800
    5     6    22     1    110.700    313.800
    5     6    23     1    110.700    313.800
    5     6    24     1    110.700    313.800
    7     9    25     1    109.500    292.880
    9    10    26     1    117.200    313.800
    9    10    27     1    117.200    313.800
   26    10    27     1    114.300    292.880
   11    10    27     1    117.200    313.800
    9    11    10     1     90.000    502.080
    3     2    15     1    110.700    313.800
   13     1    14     1    107.800    276.144
   22     6    24     1    107.800    276.144
   15     2    16     1    107.800    276.144
   12     1    14     1    107.800    276.144
    8     7     9     1    120.400    669.440
   19     4    20     1    107.800    276.144
    3     2    16     1    110.700    313.800
    4     3    18     1    110.700    313.800
    7     5    21     1    109.500    292.880
    9    10    11     1     90.000    418.400
    6     5     7     1    111.100    527.184
   12     1    13     1    107.800    276.144
   22     6    23     1    107.800    276.144
    5     4    19     1    110.700    313.800
   10     9    25     1    117.200    313.800
   23     6    24     1    107.800    276.144
   11    10    26     1    117.200    313.800
    6     5    21     1    110.700    313.800
    5     4    20     1    110.700    313.800
   10     9    11     1     90.000    418.400
    4     3    17     1    110.700    313.800
   17     3    18     1    107.800    276.144
   11     9    25     1    117.200    313.800

[ dihedrals ]
; IMPROPER DIHEDRAL ANGLES 
;  ai    aj    ak    al funct            c0            c1            c2            c3            c4            c5
     9     7     5     8    4        180.000     43.932     2  

[ dihedrals ]
; PROPER DIHEDRAL ANGLES
;  ai    aj    ak    al funct            c0            c1            c2            c3            c4            c5
    7    5    4    3        3      -4.960   6.286   1.310  -2.636  -0.000   0.000
    4    3    2    1        3       2.301  -1.464   0.837  -1.674  -0.000   0.000
    5    4    3    2        3       2.301  -1.464   0.837  -1.674  -0.000   0.000
    6    5    4    3        3       2.301  -1.464   0.837  -1.674  -0.000   0.000
    9    7    5    4        3       0.000   0.000   0.000  -0.000  -0.000   0.000
    9    7    5    6        3       0.000   0.000   0.000  -0.000  -0.000   0.000
   10    9    7    5        3       0.000   0.000   0.000  -0.000  -0.000   0.000
   10    9    7    8        3       0.000   0.000   0.000  -0.000  -0.000   0.000
   21    5    7    9        3       0.575   1.726   0.000  -2.301  -0.000   0.000
   21    5    7    8        3       0.000   0.000   0.000  -0.000  -0.000   0.000
   24    6    5    7        3      -0.209  -0.628   0.000   0.837  -0.000   0.000
   23    6    5    7        3      -0.209  -0.628   0.000   0.837  -0.000   0.000
   22    6    5    7        3      -0.209  -0.628   0.000   0.837  -0.000   0.000
   19    4    5    7        3      -0.209  -0.628   0.000   0.837  -0.000   0.000
   20    4    5    7        3      -0.209  -0.628   0.000   0.837  -0.000   0.000
   23    6    5    4        3       0.628   1.883   0.000  -2.510  -0.000   0.000
   17    3    4    5        3       0.628   1.883   0.000  -2.510  -0.000   0.000
   19    4    3    2        3       0.628   1.883   0.000  -2.510  -0.000   0.000
   20    4    3    2        3       0.628   1.883   0.000  -2.510  -0.000   0.000
   17    3    2    1        3       0.628   1.883   0.000  -2.510  -0.000   0.000
   18    3    4    5        3       0.628   1.883   0.000  -2.510  -0.000   0.000
   19    4    5    6        3       0.628   1.883   0.000  -2.510  -0.000   0.000
   15    2    3    4        3       0.628   1.883   0.000  -2.510  -0.000   0.000
   20    4    5    6        3       0.628   1.883   0.000  -2.510  -0.000   0.000
   13    1    2    3        3       0.628   1.883   0.000  -2.510  -0.000   0.000
   24    6    5    4        3       0.628   1.883   0.000  -2.510  -0.000   0.000
   12    1    2    3        3       0.628   1.883   0.000  -2.510  -0.000   0.000
   18    3    2    1        3       0.628   1.883   0.000  -2.510  -0.000   0.000
   22    6    5    4        3       0.628   1.883   0.000  -2.510  -0.000   0.000
   21    5    4    3        3       0.628   1.883   0.000  -2.510  -0.000   0.000
   14    1    2    3        3       0.628   1.883   0.000  -2.510  -0.000   0.000
   16    2    3    4        3       0.628   1.883   0.000  -2.510  -0.000   0.000
   17    3    2   15        3       0.628   1.883   0.000  -2.510  -0.000   0.000
   18    3    2   16        3       0.628   1.883   0.000  -2.510  -0.000   0.000
   19    4    3   17        3       0.628   1.883   0.000  -2.510  -0.000   0.000
   16    2    1   14        3       0.628   1.883   0.000  -2.510  -0.000   0.000
   20    4    3   18        3       0.628   1.883   0.000  -2.510  -0.000   0.000
   15    2    1   14        3       0.628   1.883   0.000  -2.510  -0.000   0.000
   21    5    4   19        3       0.628   1.883   0.000  -2.510  -0.000   0.000
   16    2    1   13        3       0.628   1.883   0.000  -2.510  -0.000   0.000
   16    2    1   12        3       0.628   1.883   0.000  -2.510  -0.000   0.000
   19    4    3   18        3       0.628   1.883   0.000  -2.510  -0.000   0.000
   21    5    4   20        3       0.628   1.883   0.000  -2.510  -0.000   0.000
   15    2    1   13        3       0.628   1.883   0.000  -2.510  -0.000   0.000
   22    6    5   21        3       0.628   1.883   0.000  -2.510  -0.000   0.000
   23    6    5   21        3       0.628   1.883   0.000  -2.510  -0.000   0.000
   24    6    5   21        3       0.628   1.883   0.000  -2.510  -0.000   0.000
   20    4    3   17        3       0.628   1.883   0.000  -2.510  -0.000   0.000
   15    2    1   12        3       0.628   1.883   0.000  -2.510  -0.000   0.000
   18    3    2   15        3       0.628   1.883   0.000  -2.510  -0.000   0.000
   17    3    2   16        3       0.628   1.883   0.000  -2.510  -0.000   0.000
   25    9    7    5        3       0.575   1.726   0.000  -2.301  -0.000   0.000
   25    9    7    8        3       0.000   0.000   0.000  -0.000  -0.000   0.000
   27   10    9    7        3       0.000   0.000   0.000  -0.000  -0.000   0.000
   26   10    9    7        3       0.000   0.000   0.000  -0.000  -0.000   0.000
   27   10    9   25        3       0.000   0.000   0.000  -0.000  -0.000   0.000
   26   10    9   25        3       0.000   0.000   0.000  -0.000  -0.000   0.000
   25    9   10   11        3       0.000   0.000   0.000  -0.000  -0.000   0.000
   26   10    9   11        3       0.000   0.000   0.000  -0.000  -0.000   0.000
   27   10    9   11        3       0.000   0.000   0.000  -0.000  -0.000   0.000
   25    9   11   10        3       0.000   0.000   0.000  -0.000  -0.000   0.000
   27   10   11    9        3       0.000   0.000   0.000  -0.000  -0.000   0.000
   26   10   11    9        3       0.000   0.000   0.000  -0.000  -0.000   0.000
   11    9    7    5        3       2.092   0.000  -2.092  -0.000  -0.000   0.000
   11    9    7   10        3       0.000   0.000   0.000  -0.000  -0.000   0.000
   11    9    7    8        3       0.000   0.000   0.000  -0.000  -0.000   0.000
    8    7    5    4        3       0.000   0.000   0.000  -0.000  -0.000   0.000
    8    7    5    6        3       0.000   0.000   0.000  -0.000  -0.000   0.000

[ pairs ]
     1     4    1
     2     5    1
     3     6    1
     3     7    1
     4     8    1
     4     9    1
     6     8    1
     6     9    1
     5    10    1
     3    12    1
     5    11    1
     3    13    1
     3    14    1
     8    10    1
     1    17    1
     8    11    1
     4    15    1
     1    18    1
     4    16    1
     2    19    1
     5    17    1
     2    20    1
     5    18    1
     3    21    1
     6    19    1
     7    19    1
     6    20    1
     4    22    1
    12    15    1
     7    20    1
     4    23    1
    13    15    1
    12    16    1
     4    24    1
    14    15    1
    13    16    1
     8    21    1
     7    22    1
    14    16    1
     9    21    1
     7    23    1
     5    25    1
     7    24    1
    15    17    1
    16    17    1
    15    18    1
     8    25    1
     7    26    1
    16    18    1
     7    27    1
    17    19    1
    18    19    1
    17    20    1
    18    20    1
    19    21    1
    20    21    1
    21    22    1
    21    23    1
    21    24    1
    25    26    1
    25    27    1

