LIGPARGEN GENERATED GRO FILE
   27
    1UNK    C00    1   0.100   0.100   0.000
    1UNK    C01    2  -0.052   0.100   0.000
    1UNK    C02    3  -0.108   0.100   0.142
    1UNK    C03    4  -0.262   0.100   0.140
    1UNK    C04    5  -0.327   0.100   0.279
    1UNK    C05    6  -0.291   0.224   0.362
    1UNK    C06    7  -0.478   0.094   0.264
    1UNK    O07    8  -0.539   0.148   0.172
    1UNK    C08    9  -0.554   0.028   0.372
    1UNK    C09   10  -0.637  -0.094   0.339
    1UNK    O0A   11  -0.511  -0.105   0.407
    1UNK    H0B   12   0.138   0.100  -0.103
    1UNK    H0C   13   0.139   0.011   0.051
    1UNK    H0D   14   0.139   0.189   0.051
    1UNK    H0E   15  -0.088   0.012  -0.055
    1UNK    H0F   16  -0.088   0.189  -0.054
    1UNK    H0G   17  -0.071   0.189   0.195
    1UNK    H0H   18  -0.072   0.012   0.197
    1UNK    H0I   19  -0.296   0.012   0.085
    1UNK    H0J   20  -0.296   0.187   0.083
    1UNK    H0K   21  -0.293   0.011   0.333
    1UNK    H0M   22  -0.319   0.316   0.309
    1UNK    H0N   23  -0.184   0.228   0.384
    1UNK    H0O   24  -0.345   0.223   0.458
    1UNK    H0P   25  -0.590   0.093   0.451
    1UNK    H0Q   26  -0.642  -0.127   0.236
    1UNK    H0R   27  -0.727  -0.111   0.397
   1.00000   1.00000   1.00000

