LIGPARGEN GENERATED GRO FILE
   37
    1UNK    C00    1   0.100   0.100   0.000
    1UNK    C01    2  -0.052   0.100   0.000
    1UNK    C02    3  -0.107   0.100   0.142
    1UNK    C03    4  -0.260   0.094   0.144
    1UNK    C04    5  -0.313   0.087   0.286
    1UNK    O05    6  -0.250   0.143   0.377
    1UNK    C06    7  -0.445   0.011   0.318
    1UNK    C07    8  -0.505  -0.059   0.194
    1UNK    C08    9  -0.405  -0.102   0.416
    1UNK    C09   10  -0.553   0.107   0.381
    1UNK    C0A   11  -0.512   0.171   0.515
    1UNK    C0B   12  -0.601   0.217   0.282
    1UNK    C0C   13  -0.710   0.307   0.337
    1UNK    H0D   14   0.138   0.100  -0.103
    1UNK    H0E   15   0.139   0.011   0.051
    1UNK    H0F   16   0.139   0.189   0.051
    1UNK    H0G   17  -0.088   0.012  -0.054
    1UNK    H0H   18  -0.088   0.188  -0.054
    1UNK    H0I   19  -0.073   0.190   0.195
    1UNK    H0J   20  -0.067   0.014   0.197
    1UNK    H0K   21  -0.289   0.004   0.088
    1UNK    H0M   22  -0.304   0.181   0.095
    1UNK    H0N   23  -0.439  -0.139   0.157
    1UNK    H0O   24  -0.521   0.010   0.110
    1UNK    H0P   25  -0.601  -0.106   0.218
    1UNK    H0Q   26  -0.334  -0.171   0.369
    1UNK    H0R   27  -0.493  -0.160   0.447
    1UNK    H0S   28  -0.356  -0.064   0.506
    1UNK    H0T   29  -0.641   0.044   0.404
    1UNK    H0U   30  -0.438   0.250   0.501
    1UNK    H0V   31  -0.471   0.097   0.585
    1UNK    H0W   32  -0.598   0.215   0.565
    1UNK    H0X   33  -0.642   0.169   0.192
    1UNK    H0Y   34  -0.517   0.278   0.250
    1UNK    H0Z   35  -0.795   0.249   0.375
    1UNK    H10   36  -0.748   0.373   0.258
    1UNK    H11   37  -0.673   0.371   0.417
   1.00000   1.00000   1.00000

