
;
; GENERATED BY LigParGen Server
; Jorgensen Lab @ Yale University 
;
[ atomtypes ]
  opls_818  H818     1.0080     0.000    A    2.50000E-01   1.25520E-01
  opls_810  C810    12.0110     0.000    A    3.45000E-01   3.47272E-01
  opls_805  O805    15.9990     0.000    A    2.96000E-01   8.78640E-01
  opls_813  H813     1.0080     0.000    A    2.50000E-01   1.25520E-01
  opls_802  C802    12.0110     0.000    A    3.50000E-01   2.76144E-01
  opls_815  H815     1.0080     0.000    A    2.50000E-01   1.25520E-01
  opls_801  C801    12.0110     0.000    A    3.50000E-01   2.76144E-01
  opls_822  H822     1.0080     0.000    A    2.50000E-01   1.25520E-01
  opls_803  C803    12.0110     0.000    A    3.50000E-01   2.76144E-01
  opls_807  C807    12.0110     0.000    A    3.30000E-01   2.76144E-01
  opls_814  H814     1.0080     0.000    A    2.50000E-01   1.25520E-01
  opls_821  H821     1.0080     0.000    A    2.50000E-01   1.25520E-01
  opls_808  N808    14.0070     0.000    A    3.20000E-01   7.11280E-01
  opls_820  H820     1.0080     0.000    A    2.50000E-01   1.25520E-01
  opls_811  H811     1.0080     0.000    A    2.50000E-01   1.25520E-01
  opls_804  C804    12.0110     0.000    A    3.55000E-01   2.92880E-01
  opls_816  H816     1.0080     0.000    A    2.50000E-01   1.25520E-01
  opls_800  C800    12.0110     0.000    A    3.50000E-01   2.76144E-01
  opls_823  H823     1.0080     0.000    A    2.50000E-01   1.25520E-01
  opls_806  C806    12.0110     0.000    A    3.45000E-01   3.47272E-01
  opls_819  H819     1.0080     0.000    A    2.50000E-01   1.25520E-01
  opls_817  H817     1.0080     0.000    A    2.50000E-01   1.25520E-01
  opls_809  C809    12.0110     0.000    A    3.45000E-01   3.47272E-01
  opls_812  H812     1.0080     0.000    A    2.50000E-01   1.25520E-01
[ moleculetype ]
; Name               nrexcl
UNK                   3
[ atoms ]
;   nr       type  resnr residue  atom   cgnr     charge       mass  
     1   opls_800      1    UNK   C00      1    -0.2365    12.0110 
     2   opls_801      1    UNK   C01      1    -0.1666    12.0110 
     3   opls_802      1    UNK   C02      1    -0.1514    12.0110 
     4   opls_803      1    UNK   C03      1    -0.2331    12.0110 
     5   opls_804      1    UNK   C04      1     0.4196    12.0110 
     6   opls_805      1    UNK   O05      1    -0.4201    15.9990 
     7   opls_806      1    UNK   C06      1    -0.1095    12.0110 
     8   opls_807      1    UNK   C07      1      0.173    12.0110 
     9   opls_808      1    UNK   N08      1    -0.3378    14.0070 
    10   opls_809      1    UNK   C09      1    -0.1921    12.0110 
    11   opls_810      1    UNK   C0A      1    -0.1915    12.0110 
    12   opls_811      1    UNK   H0B      1      0.087     1.0080 
    13   opls_812      1    UNK   H0C      1      0.087     1.0080 
    14   opls_813      1    UNK   H0D      1      0.087     1.0080 
    15   opls_814      1    UNK   H0E      1     0.0945     1.0080 
    16   opls_815      1    UNK   H0F      1     0.0945     1.0080 
    17   opls_816      1    UNK   H0G      1     0.1259     1.0080 
    18   opls_817      1    UNK   H0H      1     0.0952     1.0080 
    19   opls_818      1    UNK   H0I      1     0.0952     1.0080 
    20   opls_819      1    UNK   H0J      1     0.0952     1.0080 
    21   opls_820      1    UNK   H0K      1     0.1497     1.0080 
    22   opls_821      1    UNK   H0M      1     0.1497     1.0080 
    23   opls_822      1    UNK   H0N      1     0.1425     1.0080 
    24   opls_823      1    UNK   H0O      1     0.1425     1.0080 
[ bonds ]
    2     1     1      0.1529 224262.400
    3     2     1      0.1529 224262.400
    4     3     1      0.1529 224262.400
    5     3     1      0.1522 265265.600
    6     5     1      0.1229 476976.000
    7     5     1      0.1522 265265.600
    8     7     1      0.1451 334720.000
    9     8     1      0.1157 543920.000
   10     7     1      0.1520 217568.000
   11     7     1      0.1520 217568.000
   12     1     1      0.1090 284512.000
   13     1     1      0.1090 284512.000
   14     1     1      0.1090 284512.000
   15     2     1      0.1090 284512.000
   16     2     1      0.1090 284512.000
   17     3     1      0.1090 284512.000
   18     4     1      0.1090 284512.000
   19     4     1      0.1090 284512.000
   20     4     1      0.1090 284512.000
   21    10     1      0.1088 284512.000
   22    10     1      0.1088 284512.000
   23    11     1      0.1088 284512.000
   24    11     1      0.1088 284512.000
   11    10     1      0.1520 217568.000

[ angles ]
;  ai    aj    ak funct            c0            c1            c2            c3 
    1     2     3     1    112.700    488.273
    2     3     4     1    112.700    488.273
    2     3     5     1    111.100    527.184
    3     5     6     1    120.400    669.440
    3     5     7     1    116.000    585.760
    5     7     8     1    109.430    358.401
    7     8     9     1    180.000   1255.200
    5     7    10     1    111.100    527.184
    5     7    11     1    111.100    527.184
    2     1    12     1    110.700    313.800
    2     1    13     1    110.700    313.800
    2     1    14     1    110.700    313.800
    1     2    15     1    110.700    313.800
    1     2    16     1    110.700    313.800
    2     3    17     1    110.700    313.800
    3     4    18     1    110.700    313.800
    3     4    19     1    110.700    313.800
    3     4    20     1    110.700    313.800
    7    10    21     1    117.200    313.800
    7    10    22     1    117.200    313.800
    7    11    23     1    117.200    313.800
    7    11    24     1    117.200    313.800
    8     7    11     1    109.430    358.401
   13     1    14     1    107.800    276.144
   15     2    16     1    107.800    276.144
    3     2    15     1    110.700    313.800
   18     4    20     1    107.800    276.144
    7    10    11     1     83.000    251.040
   10    11    23     1    117.200    313.800
    8     7    10     1    109.430    358.401
   11    10    21     1    117.200    313.800
   23    11    24     1    114.300    292.880
   19     4    20     1    107.800    276.144
    5     3    17     1    109.500    292.880
    3     2    16     1    110.700    313.800
   12     1    14     1    107.800    276.144
    4     3     5     1    111.100    527.184
   21    10    22     1    114.300    292.880
    6     5     7     1    120.400    669.440
   12     1    13     1    107.800    276.144
   10    11    24     1    117.200    313.800
   11    10    22     1    117.200    313.800
   10     7    11     1     83.000    251.040
    7    11    10     1     83.000    251.040
    4     3    17     1    110.700    313.800
   18     4    19     1    107.800    276.144

[ dihedrals ]
; IMPROPER DIHEDRAL ANGLES 
;  ai    aj    ak    al funct            c0            c1            c2            c3            c4            c5
     7     5     3     6    4        180.000     43.932     2  

[ dihedrals ]
; PROPER DIHEDRAL ANGLES
;  ai    aj    ak    al funct            c0            c1            c2            c3            c4            c5
    5    3    2    1        3      -4.960   6.286   1.310  -2.636  -0.000   0.000
    4    3    2    1        3       2.301  -1.464   0.837  -1.674  -0.000   0.000
    7    5    3    4        3       0.000   0.000   0.000  -0.000  -0.000   0.000
    7    5    3    2        3       0.000   0.000   0.000  -0.000  -0.000   0.000
   10    7    5    3        3       0.000   0.000   0.000  -0.000  -0.000   0.000
   11    7    5    3        3       0.000   0.000   0.000  -0.000  -0.000   0.000
   10    7    5    6        3       0.000   0.000   0.000  -0.000  -0.000   0.000
   11    7    5    6        3       0.000   0.000   0.000  -0.000  -0.000   0.000
   11    7    8    9        3       0.000   0.000   0.000  -0.000  -0.000   0.000
   10    7    8    9        3       0.000   0.000   0.000  -0.000  -0.000   0.000
    8    7    5    3        3       0.818  -7.906   0.602   6.485  -0.000   0.000
    8    7    5    6        3      29.288   0.000  -29.288  -0.000  -0.000   0.000
   17    3    5    7        3       0.575   1.726   0.000  -2.301  -0.000   0.000
   17    3    5    6        3       0.000   0.000   0.000  -0.000  -0.000   0.000
   19    4    3    5        3      -0.209  -0.628   0.000   0.837  -0.000   0.000
   16    2    3    5        3      -0.209  -0.628   0.000   0.837  -0.000   0.000
   18    4    3    5        3      -0.209  -0.628   0.000   0.837  -0.000   0.000
   20    4    3    5        3      -0.209  -0.628   0.000   0.837  -0.000   0.000
   15    2    3    5        3      -0.209  -0.628   0.000   0.837  -0.000   0.000
   15    2    3    4        3       0.628   1.883   0.000  -2.510  -0.000   0.000
   19    4    3    2        3       0.628   1.883   0.000  -2.510  -0.000   0.000
   20    4    3    2        3       0.628   1.883   0.000  -2.510  -0.000   0.000
   17    3    2    1        3       0.628   1.883   0.000  -2.510  -0.000   0.000
   18    4    3    2        3       0.628   1.883   0.000  -2.510  -0.000   0.000
   14    1    2    3        3       0.628   1.883   0.000  -2.510  -0.000   0.000
   13    1    2    3        3       0.628   1.883   0.000  -2.510  -0.000   0.000
   12    1    2    3        3       0.628   1.883   0.000  -2.510  -0.000   0.000
   16    2    3    4        3       0.628   1.883   0.000  -2.510  -0.000   0.000
   18    4    3   17        3       0.628   1.883   0.000  -2.510  -0.000   0.000
   17    3    2   15        3       0.628   1.883   0.000  -2.510  -0.000   0.000
   19    4    3   17        3       0.628   1.883   0.000  -2.510  -0.000   0.000
   16    2    1   14        3       0.628   1.883   0.000  -2.510  -0.000   0.000
   16    2    1   13        3       0.628   1.883   0.000  -2.510  -0.000   0.000
   15    2    1   14        3       0.628   1.883   0.000  -2.510  -0.000   0.000
   16    2    1   12        3       0.628   1.883   0.000  -2.510  -0.000   0.000
   15    2    1   12        3       0.628   1.883   0.000  -2.510  -0.000   0.000
   17    3    2   16        3       0.628   1.883   0.000  -2.510  -0.000   0.000
   20    4    3   17        3       0.628   1.883   0.000  -2.510  -0.000   0.000
   15    2    1   13        3       0.628   1.883   0.000  -2.510  -0.000   0.000
   24   11    7    5        3       0.000   0.000   0.000  -0.000  -0.000   0.000
   21   10    7    5        3       0.000   0.000   0.000  -0.000  -0.000   0.000
   23   11    7    5        3       0.000   0.000   0.000  -0.000  -0.000   0.000
   22   10    7    5        3       0.000   0.000   0.000  -0.000  -0.000   0.000
   22   10   11    7        3       0.000   0.000   0.000  -0.000  -0.000   0.000
   24   11    7   10        3       0.000   0.000   0.000  -0.000  -0.000   0.000
   24   11   10    7        3       0.000   0.000   0.000  -0.000  -0.000   0.000
   23   11    7   10        3       0.000   0.000   0.000  -0.000  -0.000   0.000
   23   11   10    7        3       0.000   0.000   0.000  -0.000  -0.000   0.000
   21   10    7   11        3       0.000   0.000   0.000  -0.000  -0.000   0.000
   21   10   11    7        3       0.000   0.000   0.000  -0.000  -0.000   0.000
   22   10    7   11        3       0.000   0.000   0.000  -0.000  -0.000   0.000
   24   11    7    8        3       0.000   0.000   0.000  -0.000  -0.000   0.000
   22   10    7    8        3       0.000   0.000   0.000  -0.000  -0.000   0.000
   23   11    7    8        3       0.000   0.000   0.000  -0.000  -0.000   0.000
   21   10    7    8        3       0.000   0.000   0.000  -0.000  -0.000   0.000
   23   11   10   21        3       0.000   0.000   0.000  -0.000  -0.000   0.000
   23   11   10   22        3       0.000   0.000   0.000  -0.000  -0.000   0.000
   24   11   10   22        3       0.000   0.000   0.000  -0.000  -0.000   0.000
   24   11   10   21        3       0.000   0.000   0.000  -0.000  -0.000   0.000
    9    8    7    5        3       0.000   0.000   0.000  -0.000  -0.000   0.000
    6    5    3    4        3       0.000   0.000   0.000  -0.000  -0.000   0.000
    6    5    3    2        3       0.000   0.000   0.000  -0.000  -0.000   0.000

[ pairs ]
     1     4    1
     1     5    1
     2     6    1
     2     7    1
     4     6    1
     4     7    1
     3     8    1
     3    10    1
     6     8    1
     5     9    1
     3    11    1
     3    12    1
     6    10    1
     3    13    1
     6    11    1
     3    14    1
     1    17    1
     9    10    1
     4    15    1
     9    11    1
     5    15    1
     4    16    1
     2    18    1
     5    16    1
     2    19    1
     2    20    1
     6    17    1
     5    18    1
     7    17    1
     5    19    1
     5    20    1
     5    21    1
    12    15    1
     5    22    1
    13    15    1
    12    16    1
     5    23    1
    14    15    1
    13    16    1
     8    21    1
     5    24    1
    14    16    1
     8    22    1
     8    23    1
    15    17    1
     8    24    1
    16    17    1
    17    18    1
    17    19    1
    17    20    1
    21    23    1
    22    23    1
    21    24    1
    22    24    1

