
;
; GENERATED BY LigParGen Server
; Jorgensen Lab @ Yale University 
;
[ atomtypes ]
  opls_818  H818     1.0080     0.000    A    2.50000E-01   1.25520E-01
  opls_810  O810    15.9990     0.000    A    2.90000E-01   5.85760E-01
  opls_805  C805    12.0110     0.000    A    3.55000E-01   2.92880E-01
  opls_823  H823     1.0080     0.000    A    2.42000E-01   1.25520E-01
  opls_808  C808    12.0110     0.000    A    3.50000E-01   3.34720E-01
  opls_802  C802    12.0110     0.000    A    3.50000E-01   2.76144E-01
  opls_815  H815     1.0080     0.000    A    2.50000E-01   1.25520E-01
  opls_801  C801    12.0110     0.000    A    3.50000E-01   2.76144E-01
  opls_822  H822     1.0080     0.000    A    2.50000E-01   1.25520E-01
  opls_803  C803    12.0110     0.000    A    3.50000E-01   2.76144E-01
  opls_812  F812    18.9984     0.000    A    2.90000E-01   2.51040E-01
  opls_814  H814     1.0080     0.000    A    2.50000E-01   1.25520E-01
  opls_821  H821     1.0080     0.000    A    2.50000E-01   1.25520E-01
  opls_820  H820     1.0080     0.000    A    2.50000E-01   1.25520E-01
  opls_809  C809    12.0110     0.000    A    3.55000E-01   2.92880E-01
  opls_807  C807    12.0110     0.000    A    3.50000E-01   3.34720E-01
  opls_804  C804    12.0110     0.000    A    3.55000E-01   2.92880E-01
  opls_816  H816     1.0080     0.000    A    2.50000E-01   1.25520E-01
  opls_800  C800    12.0110     0.000    A    3.50000E-01   2.76144E-01
  opls_806  C806    12.0110     0.000    A    3.55000E-01   2.92880E-01
  opls_813  O813    15.9990     0.000    A    2.90000E-01   5.85760E-01
  opls_824  H824     1.0080     0.000    A    2.42000E-01   1.25520E-01
  opls_819  H819     1.0080     0.000    A    2.50000E-01   1.25520E-01
  opls_825  H825     1.0080     0.000    A    2.42000E-01   1.25520E-01
  opls_817  H817     1.0080     0.000    A    2.50000E-01   1.25520E-01
  opls_811  N811    14.0070     0.000    A    3.30000E-01   7.11280E-01
[ moleculetype ]
; Name               nrexcl
UNK                   3
[ atoms ]
;   nr       type  resnr residue  atom   cgnr     charge       mass  
     1   opls_800      1    UNK   C00      1    -0.2315    12.0110 
     2   opls_801      1    UNK   C01      1    -0.0024    12.0110 
     3   opls_802      1    UNK   C02      1    -0.2317    12.0110 
     4   opls_803      1    UNK   C03      1    -0.2331    12.0110 
     5   opls_804      1    UNK   C04      1    -0.0484    12.0110 
     6   opls_805      1    UNK   C05      1    -0.1297    12.0110 
     7   opls_806      1    UNK   C06      1    -0.1143    12.0110 
     8   opls_807      1    UNK   C07      1     0.0136    12.0110 
     9   opls_808      1    UNK   C08      1     0.0175    12.0110 
    10   opls_809      1    UNK   C09      1    -0.1135    12.0110 
    11   opls_810      1    UNK   O0A      1    -0.2055    15.9990 
    12   opls_811      1    UNK   N0B      1     0.2256    14.0070 
    13   opls_812      1    UNK   F0C      1    -0.0191    18.9984 
    14   opls_813      1    UNK   O0D      1    -0.2038    15.9990 
    15   opls_814      1    UNK   H0E      1     0.0877     1.0080 
    16   opls_815      1    UNK   H0F      1     0.0877     1.0080 
    17   opls_816      1    UNK   H0G      1     0.0877     1.0080 
    18   opls_817      1    UNK   H0H      1      0.087     1.0080 
    19   opls_818      1    UNK   H0I      1      0.087     1.0080 
    20   opls_819      1    UNK   H0J      1      0.087     1.0080 
    21   opls_820      1    UNK   H0K      1     0.0878     1.0080 
    22   opls_821      1    UNK   H0M      1     0.0878     1.0080 
    23   opls_822      1    UNK   H0N      1     0.0878     1.0080 
    24   opls_823      1    UNK   H0O      1     0.1533     1.0080 
    25   opls_824      1    UNK   H0P      1     0.1679     1.0080 
    26   opls_825      1    UNK   H0Q      1     0.1676     1.0080 
[ bonds ]
    2     1     1      0.1529 224262.400
    3     2     1      0.1529 224262.400
    4     2     1      0.1529 224262.400
    5     2     1      0.1510 265265.600
    6     5     1      0.1400 392459.200
    7     6     1      0.1400 392459.200
    8     7     1      0.1404 392459.200
    9     8     1      0.1370 435136.000
   10     5     1      0.1400 392459.200
   11     9     1      0.1360 284512.000
   12    11     1      0.1450 267776.000
   13    12     1      0.1360 307105.600
   14     8     1      0.1360 284512.000
   15     1     1      0.1090 284512.000
   16     1     1      0.1090 284512.000
   17     1     1      0.1090 284512.000
   18     3     1      0.1090 284512.000
   19     3     1      0.1090 284512.000
   20     3     1      0.1090 284512.000
   21     4     1      0.1090 284512.000
   22     4     1      0.1090 284512.000
   23     4     1      0.1090 284512.000
   24     6     1      0.1080 307105.600
   25     7     1      0.1080 307105.600
   26    10     1      0.1080 307105.600
   10     9     1      0.1404 392459.200
   14    12     1      0.1450 267776.000

[ angles ]
;  ai    aj    ak funct            c0            c1            c2            c3 
    1     2     3     1    112.700    488.273
    1     2     4     1    112.700    488.273
    1     2     5     1    114.000    527.184
    2     5     6     1    120.000    585.760
    5     6     7     1    120.000    527.184
    6     7     8     1    120.000    527.184
    7     8     9     1    117.300    711.280
    2     5    10     1    120.000    585.760
    8     9    11     1    110.600    585.760
    9    11    12     1    111.000    627.600
   11    12    13     1    109.020    383.673
    7     8    14     1    120.000    585.760
    2     1    15     1    110.700    313.800
    2     1    16     1    110.700    313.800
    2     1    17     1    110.700    313.800
    2     3    18     1    110.700    313.800
    2     3    19     1    110.700    313.800
    2     3    20     1    110.700    313.800
    2     4    21     1    110.700    313.800
    2     4    22     1    110.700    313.800
    2     4    23     1    110.700    313.800
    5     6    24     1    120.000    292.880
    6     7    25     1    120.000    292.880
    5    10    26     1    120.000    292.880
   11    12    14     1    109.020    383.673
    7     6    24     1    120.000    292.880
    6     5    10     1    120.000    527.184
    5    10     9     1    120.000    527.184
   21     4    22     1    107.800    276.144
   15     1    16     1    107.800    276.144
   18     3    19     1    107.800    276.144
    8     7    25     1    120.000    292.880
    8    14    12     1    111.000    627.600
    3     2     4     1    112.700    488.273
   13    12    14     1    109.020    383.673
    3     2     5     1    114.000    527.184
    4     2     5     1    114.000    527.184
   21     4    23     1    107.800    276.144
    9     8    14     1    110.600    585.760
   18     3    20     1    107.800    276.144
   15     1    17     1    107.800    276.144
   16     1    17     1    107.800    276.144
   10     9    11     1    120.000    585.760
   19     3    20     1    107.800    276.144
   22     4    23     1    107.800    276.144
    8     9    10     1    117.300    711.280
    9    10    26     1    120.000    292.880

[ dihedrals ]
; IMPROPER DIHEDRAL ANGLES 
;  ai    aj    ak    al funct            c0            c1            c2            c3            c4            c5
    10     5     2     6    4        180.000     10.460     2  
    24     6     5     7    4        180.000     10.460     2  
    25     7     6     8    4        180.000     10.460     2  
    26    10     5     9    4        180.000     10.460     2  
    14     8     7     9    4        180.000     10.460     2  
    11     9     8    10    4        180.000     10.460     2  

[ dihedrals ]
; PROPER DIHEDRAL ANGLES
;  ai    aj    ak    al funct            c0            c1            c2            c3            c4            c5
   10    5    6    7        3      30.334   0.000  -30.334  -0.000  -0.000   0.000
    7    6    5    2        3      30.334   0.000  -30.334  -0.000  -0.000   0.000
   10    5    2    4        3       0.000   0.000   0.000  -0.000  -0.000   0.000
    6    5    2    1        3       0.000   0.000   0.000  -0.000  -0.000   0.000
    6    5    2    4        3       0.000   0.000   0.000  -0.000  -0.000   0.000
    6    5    2    3        3       0.000   0.000   0.000  -0.000  -0.000   0.000
   10    5    2    3        3       0.000   0.000   0.000  -0.000  -0.000   0.000
   10    5    2    1        3       0.000   0.000   0.000  -0.000  -0.000   0.000
   10    9    8    7        3      30.334   0.000  -30.334  -0.000  -0.000   0.000
    8    7    6    5        3      30.334   0.000  -30.334  -0.000  -0.000   0.000
    9   10    5    6        3      30.334   0.000  -30.334  -0.000  -0.000   0.000
    9   10    5    2        3      30.334   0.000  -30.334  -0.000  -0.000   0.000
    9    8    7    6        3      29.288   0.000  -29.288  -0.000  -0.000   0.000
    8    9   10    5        3      29.288   0.000  -29.288  -0.000  -0.000   0.000
   13   12   14    8        3       0.628   1.883   0.000  -2.510  -0.000   0.000
   13   12   11    9        3       0.628   1.883   0.000  -2.510  -0.000   0.000
   26   10    5    6        3      30.334   0.000  -30.334  -0.000  -0.000   0.000
   24    6    5   10        3      30.334   0.000  -30.334  -0.000  -0.000   0.000
   25    7    6    5        3      30.334   0.000  -30.334  -0.000  -0.000   0.000
   24    6    7    8        3      30.334   0.000  -30.334  -0.000  -0.000   0.000
   26   10    5    2        3      30.334   0.000  -30.334  -0.000  -0.000   0.000
   24    6    5    2        3      30.334   0.000  -30.334  -0.000  -0.000   0.000
   25    7    6   24        3      30.334   0.000  -30.334  -0.000  -0.000   0.000
   25    7    8    9        3      30.334   0.000  -30.334  -0.000  -0.000   0.000
   26   10    9    8        3      30.334   0.000  -30.334  -0.000  -0.000   0.000
   26   10    9   11        3      30.334   0.000  -30.334  -0.000  -0.000   0.000
   25    7    8   14        3      30.334   0.000  -30.334  -0.000  -0.000   0.000
   21    4    2    5        3       0.967   2.900   0.000  -3.866  -0.000   0.000
   17    1    2    5        3       0.967   2.900   0.000  -3.866  -0.000   0.000
   23    4    2    5        3       0.967   2.900   0.000  -3.866  -0.000   0.000
   19    3    2    5        3       0.967   2.900   0.000  -3.866  -0.000   0.000
   16    1    2    5        3       0.967   2.900   0.000  -3.866  -0.000   0.000
   22    4    2    5        3       0.967   2.900   0.000  -3.866  -0.000   0.000
   18    3    2    5        3       0.967   2.900   0.000  -3.866  -0.000   0.000
   15    1    2    5        3       0.967   2.900   0.000  -3.866  -0.000   0.000
   20    3    2    5        3       0.967   2.900   0.000  -3.866  -0.000   0.000
   17    1    2    3        3       0.628   1.883   0.000  -2.510  -0.000   0.000
   16    1    2    4        3       0.628   1.883   0.000  -2.510  -0.000   0.000
   22    4    2    1        3       0.628   1.883   0.000  -2.510  -0.000   0.000
   17    1    2    4        3       0.628   1.883   0.000  -2.510  -0.000   0.000
   20    3    2    4        3       0.628   1.883   0.000  -2.510  -0.000   0.000
   23    4    2    3        3       0.628   1.883   0.000  -2.510  -0.000   0.000
   15    1    2    3        3       0.628   1.883   0.000  -2.510  -0.000   0.000
   16    1    2    3        3       0.628   1.883   0.000  -2.510  -0.000   0.000
   15    1    2    4        3       0.628   1.883   0.000  -2.510  -0.000   0.000
   18    3    2    4        3       0.628   1.883   0.000  -2.510  -0.000   0.000
   19    3    2    4        3       0.628   1.883   0.000  -2.510  -0.000   0.000
   21    4    2    1        3       0.628   1.883   0.000  -2.510  -0.000   0.000
   18    3    2    1        3       0.628   1.883   0.000  -2.510  -0.000   0.000
   21    4    2    3        3       0.628   1.883   0.000  -2.510  -0.000   0.000
   22    4    2    3        3       0.628   1.883   0.000  -2.510  -0.000   0.000
   23    4    2    1        3       0.628   1.883   0.000  -2.510  -0.000   0.000
   19    3    2    1        3       0.628   1.883   0.000  -2.510  -0.000   0.000
   20    3    2    1        3       0.628   1.883   0.000  -2.510  -0.000   0.000
   12   14    8    7        3      29.288   0.000  -29.288  -0.000  -0.000   0.000
   12   11    9   10        3      29.288   0.000  -29.288  -0.000  -0.000   0.000
   12   14    8    9        3      29.288   0.000  -29.288  -0.000  -0.000   0.000
   12   11    9    8        3      29.288   0.000  -29.288  -0.000  -0.000   0.000
   11    9   10    5        3       0.000   0.000   0.000  -0.000  -0.000   0.000
   14    8    7    6        3       0.000   0.000   0.000  -0.000  -0.000   0.000
   14    8    9   10        3      30.334   0.000  -30.334  -0.000  -0.000   0.000
   11    9    8    7        3      30.334   0.000  -30.334  -0.000  -0.000   0.000
   14    8    9   11        3      30.334   0.000  -30.334  -0.000  -0.000   0.000
   11   12   14    8        3       0.628   1.883   0.000  -2.510  -0.000   0.000
   14   12   11    9        3       0.628   1.883   0.000  -2.510  -0.000   0.000

[ pairs ]
     1     6    1
     3     6    1
     2     7    1
     4     6    1
     2     9    1
     1    10    1
     5     8    1
     3    10    1
     4    10    1
     6     9    1
     5    11    1
     7    10    1
     7    11    1
     3    15    1
     7    12    1
     4    15    1
     3    16    1
     1    18    1
     6    14    1
     5    15    1
     4    16    1
     3    17    1
     1    19    1
     8    13    1
     5    16    1
     4    17    1
     1    20    1
    10    12    1
     9    13    1
     5    17    1
     4    18    1
     1    21    1
     5    18    1
     4    19    1
     1    22    1
    10    14    1
     5    19    1
     4    20    1
     3    21    1
     1    23    1
     5    20    1
     3    22    1
     5    21    1
     3    23    1
     2    24    1
     5    22    1
     5    23    1
     2    26    1
     5    25    1
     8    24    1
     6    26    1
    10    24    1
     9    25    1
     8    26    1
    11    26    1
    14    25    1
    24    25    1

