LIGPARGEN GENERATED GRO FILE
   26
    1UNK    C00    1   0.100   0.100   0.000
    1UNK    C01    2  -0.054   0.100   0.000
    1UNK    C02    3  -0.103   0.100   0.147
    1UNK    C03    4  -0.103   0.233  -0.062
    1UNK    C04    5  -0.103  -0.024  -0.078
    1UNK    C05    6  -0.121  -0.149  -0.014
    1UNK    C06    7  -0.165  -0.262  -0.083
    1UNK    C07    8  -0.192  -0.249  -0.217
    1UNK    C08    9  -0.176  -0.129  -0.282
    1UNK    C09   10  -0.132  -0.016  -0.216
    1UNK    O0A   11  -0.208  -0.137  -0.413
    1UNK    N0B   12  -0.248  -0.278  -0.430
    1UNK    F0C   13  -0.169  -0.339  -0.525
    1UNK    O0D   14  -0.236  -0.347  -0.301
    1UNK    H0E   15   0.139   0.186   0.056
    1UNK    H0F   16   0.140   0.105  -0.102
    1UNK    H0G   17   0.140   0.009   0.046
    1UNK    H0H   18  -0.075   0.193   0.198
    1UNK    H0I   19  -0.060   0.018   0.205
    1UNK    H0J   20  -0.212   0.091   0.152
    1UNK    H0K   21  -0.075   0.319   0.000
    1UNK    H0M   22  -0.212   0.234  -0.072
    1UNK    H0N   23  -0.060   0.251  -0.161
    1UNK    H0O   24  -0.100  -0.160   0.092
    1UNK    H0P   25  -0.178  -0.357  -0.032
    1UNK    H0Q   26  -0.121   0.076  -0.273
   1.00000   1.00000   1.00000

