LIGPARGEN GENERATED GRO FILE
   18
    1UNK    O00    1   0.100   0.100   0.000
    1UNK    S01    2  -0.046   0.100   0.000
    1UNK    O02    3  -0.109   0.100   0.132
    1UNK    O03    4  -0.107   0.188  -0.099
    1UNK    C04    5  -0.087  -0.066  -0.061
    1UNK    C05    6   0.001  -0.172  -0.036
    1UNK    C06    7  -0.028  -0.298  -0.088
    1UNK    C07    8  -0.144  -0.319  -0.163
    1UNK    C08    9  -0.176  -0.455  -0.219
    1UNK    C09   10  -0.231  -0.212  -0.187
    1UNK    C0A   11  -0.203  -0.085  -0.136
    1UNK    H0B   12   0.091  -0.154   0.023
    1UNK    H0C   13   0.041  -0.380  -0.068
    1UNK    H0D   14  -0.097  -0.527  -0.197
    1UNK    H0E   15  -0.185  -0.449  -0.328
    1UNK    H0F   16  -0.269  -0.492  -0.177
    1UNK    H0G   17  -0.321  -0.226  -0.246
    1UNK    H0H   18  -0.270  -0.001  -0.154
   1.00000   1.00000   1.00000

