
;
; GENERATED BY LigParGen Server
; Jorgensen Lab @ Yale University 
;
[ atomtypes ]
  opls_804  C804    12.0110     0.000    A    3.55000E-01   2.92880E-01
  opls_810  C810    12.0110     0.000    A    3.55000E-01   2.92880E-01
  opls_808  C808    12.0110     0.000    A    3.50000E-01   2.76144E-01
  opls_807  C807    12.0110     0.000    A    3.55000E-01   2.92880E-01
  opls_811  H811     1.0080     0.000    A    2.42000E-01   1.25520E-01
  opls_802  O802    15.9990     0.000    A    2.96000E-01   7.11280E-01
  opls_805  C805    12.0110     0.000    A    3.55000E-01   2.92880E-01
  opls_800  O800    15.9990     0.000    A    2.96000E-01   7.11280E-01
  opls_816  H816     1.0080     0.000    A    2.42000E-01   1.25520E-01
  opls_814  H814     1.0080     0.000    A    2.50000E-01   1.25520E-01
  opls_803  O803    15.9990     0.000    A    2.96000E-01   7.11280E-01
  opls_817  H817     1.0080     0.000    A    2.42000E-01   1.25520E-01
  opls_806  C806    12.0110     0.000    A    3.55000E-01   2.92880E-01
  opls_812  H812     1.0080     0.000    A    2.42000E-01   1.25520E-01
  opls_813  H813     1.0080     0.000    A    2.50000E-01   1.25520E-01
  opls_809  C809    12.0110     0.000    A    3.55000E-01   2.92880E-01
  opls_815  H815     1.0080     0.000    A    2.50000E-01   1.25520E-01
  opls_801  S801    32.0600     0.000    A    3.55000E-01   1.04600E+00
[ moleculetype ]
; Name               nrexcl
UNK                   3
[ atoms ]
;   nr       type  resnr residue  atom   cgnr     charge       mass  
     1   opls_800      1    UNK   O00      1    -0.6360    15.9990 
     2   opls_801      1    UNK   S01      1     1.3118    32.0600 
     3   opls_802      1    UNK   O02      1    -0.6360    15.9990 
     4   opls_803      1    UNK   O03      1    -0.6360    15.9990 
     5   opls_804      1    UNK   C04      1    -0.4432    12.0110 
     6   opls_805      1    UNK   C05      1    -0.0435    12.0110 
     7   opls_806      1    UNK   C06      1    -0.1650    12.0110 
     8   opls_807      1    UNK   C07      1    -0.0783    12.0110 
     9   opls_808      1    UNK   C08      1    -0.1644    12.0110 
    10   opls_809      1    UNK   C09      1    -0.1650    12.0110 
    11   opls_810      1    UNK   C0A      1    -0.0435    12.0110 
    12   opls_811      1    UNK   H0B      1     0.1451     1.0080 
    13   opls_812      1    UNK   H0C      1     0.1055     1.0080 
    14   opls_813      1    UNK   H0D      1     0.0660     1.0080 
    15   opls_814      1    UNK   H0E      1     0.0660     1.0080 
    16   opls_815      1    UNK   H0F      1     0.0660     1.0080 
    17   opls_816      1    UNK   H0G      1     0.1055     1.0080 
    18   opls_817      1    UNK   H0H      1     0.1451     1.0080 
[ bonds ]
    2     1     1      0.1440 585760.000
    3     2     1      0.1440 585760.000
    4     2     1      0.1440 585760.000
    5     2     1      0.1770 284512.000
    6     5     1      0.1400 392459.200
    7     6     1      0.1400 392459.200
    8     7     1      0.1400 392459.200
    9     8     1      0.1510 265265.600
   10     8     1      0.1400 392459.200
   11     5     1      0.1400 392459.200
   12     6     1      0.1080 307105.600
   13     7     1      0.1080 307105.600
   14     9     1      0.1090 284512.000
   15     9     1      0.1090 284512.000
   16     9     1      0.1090 284512.000
   17    10     1      0.1080 307105.600
   18    11     1      0.1080 307105.600
   11    10     1      0.1400 392459.200

[ angles ]
;  ai    aj    ak funct            c0            c1            c2            c3 
    1     2     3     1    119.000    870.272
    1     2     4     1    119.000    870.272
    1     2     5     1    107.200    619.232
    2     5     6     1    119.400    711.280
    5     6     7     1    120.000    527.184
    6     7     8     1    120.000    527.184
    7     8     9     1    120.000    585.760
    7     8    10     1    120.000    527.184
    2     5    11     1    119.400    711.280
    5     6    12     1    120.000    292.880
    6     7    13     1    120.000    292.880
    8     9    14     1    109.500    292.880
    8     9    15     1    109.500    292.880
    8     9    16     1    109.500    292.880
    8    10    17     1    120.000    292.880
    5    11    18     1    120.000    292.880
   10    11    18     1    120.000    292.880
   15     9    16     1    107.800    276.144
    6     5    11     1    120.000    527.184
    8     7    13     1    120.000    292.880
   14     9    16     1    107.800    276.144
    8    10    11     1    120.000    527.184
    5    11    10     1    120.000    527.184
    3     2     4     1    119.000    870.272
   11    10    17     1    120.000    292.880
    3     2     5     1    107.200    619.232
    4     2     5     1    107.200    619.232
   14     9    15     1    107.800    276.144
    9     8    10     1    120.000    585.760
    7     6    12     1    120.000    292.880

[ dihedrals ]
; IMPROPER DIHEDRAL ANGLES 
;  ai    aj    ak    al funct            c0            c1            c2            c3            c4            c5
    10     8     7     9    4        180.000     10.460     2  
    11     5     2     6    4        180.000     10.460     2  
    17    10     8    11    4        180.000     10.460     2  
    12     6     5     7    4        180.000     10.460     2  
    13     7     6     8    4        180.000     10.460     2  
    18    11     5    10    4        180.000     10.460     2  

[ dihedrals ]
; PROPER DIHEDRAL ANGLES
;  ai    aj    ak    al funct            c0            c1            c2            c3            c4            c5
   10   11    5    6        3      30.334   0.000  -30.334  -0.000  -0.000   0.000
   11   10    8    7        3      30.334   0.000  -30.334  -0.000  -0.000   0.000
    8    7    6    5        3      30.334   0.000  -30.334  -0.000  -0.000   0.000
   10    8    7    6        3      30.334   0.000  -30.334  -0.000  -0.000   0.000
   11    5    6    7        3      30.334   0.000  -30.334  -0.000  -0.000   0.000
    8   10   11    5        3      30.334   0.000  -30.334  -0.000  -0.000   0.000
   11   10    8    9        3      30.334   0.000  -30.334  -0.000  -0.000   0.000
   10   11    5    2        3      30.334   0.000  -30.334  -0.000  -0.000   0.000
    7    6    5    2        3      30.334   0.000  -30.334  -0.000  -0.000   0.000
   11    5    2    4        3       0.000   0.000   0.000  -0.000  -0.000   0.000
   11    5    2    1        3       0.000   0.000   0.000  -0.000  -0.000   0.000
   11    5    2    3        3       0.000   0.000   0.000  -0.000  -0.000   0.000
    6    5    2    4        3       0.000   0.000   0.000  -0.000  -0.000   0.000
    6    5    2    3        3       0.000   0.000   0.000  -0.000  -0.000   0.000
    6    5    2    1        3       0.000   0.000   0.000  -0.000  -0.000   0.000
    9    8    7    6        3      30.334   0.000  -30.334  -0.000  -0.000   0.000
   17   10   11    5        3      30.334   0.000  -30.334  -0.000  -0.000   0.000
   13    7    6    5        3      30.334   0.000  -30.334  -0.000  -0.000   0.000
   12    6    5   11        3      30.334   0.000  -30.334  -0.000  -0.000   0.000
   18   11   10    8        3      30.334   0.000  -30.334  -0.000  -0.000   0.000
   12    6    7    8        3      30.334   0.000  -30.334  -0.000  -0.000   0.000
   18   11    5    6        3      30.334   0.000  -30.334  -0.000  -0.000   0.000
   17   10    8    7        3      30.334   0.000  -30.334  -0.000  -0.000   0.000
   13    7    8   10        3      30.334   0.000  -30.334  -0.000  -0.000   0.000
   17   10    8    9        3      30.334   0.000  -30.334  -0.000  -0.000   0.000
   13    7    8    9        3      30.334   0.000  -30.334  -0.000  -0.000   0.000
   18   11   10   17        3      30.334   0.000  -30.334  -0.000  -0.000   0.000
   13    7    6   12        3      30.334   0.000  -30.334  -0.000  -0.000   0.000
   18   11    5    2        3      30.334   0.000  -30.334  -0.000  -0.000   0.000
   12    6    5    2        3      30.334   0.000  -30.334  -0.000  -0.000   0.000
   16    9    8    7        3       0.000   0.000   0.000  -0.000  -0.000   0.000
   16    9    8   10        3       0.000   0.000   0.000  -0.000  -0.000   0.000
   15    9    8    7        3       0.000   0.000   0.000  -0.000  -0.000   0.000
   14    9    8    7        3       0.000   0.000   0.000  -0.000  -0.000   0.000
   15    9    8   10        3       0.000   0.000   0.000  -0.000  -0.000   0.000
   14    9    8   10        3       0.000   0.000   0.000  -0.000  -0.000   0.000

[ pairs ]
     1     6    1
     3     6    1
     2     7    1
     4     6    1
     2    10    1
     1    11    1
     5     8    1
     3    11    1
     2    12    1
     6     9    1
     4    11    1
     6    10    1
     7    11    1
     5    13    1
     9    11    1
     8    12    1
     2    18    1
     7    14    1
     9    13    1
     7    15    1
     5    17    1
    11    12    1
    10    13    1
     7    16    1
    10    14    1
     7    17    1
     6    18    1
    12    13    1
    10    15    1
    10    16    1
     9    17    1
     8    18    1
    17    18    1

