LIGPARGEN GENERATED GRO FILE
   26
    1UNK    C00    1   0.100   0.100   0.000
    1UNK    C01    2  -0.052   0.100   0.000
    1UNK    C02    3  -0.116   0.100   0.140
    1UNK    C03    4  -0.265   0.109   0.127
    1UNK    O04    5  -0.337   0.029   0.070
    1UNK    O05    6  -0.311   0.222   0.190
    1UNK    C06    7  -0.453   0.239   0.182
    1UNK    S07    8  -0.076  -0.047   0.234
    1UNK    O08    9  -0.113  -0.164   0.157
    1UNK    O09   10   0.061  -0.031   0.280
    1UNK    C0A   11  -0.178  -0.041   0.380
    1UNK    C0B   12  -0.151  -0.162   0.468
    1UNK    H0C   13   0.138   0.100  -0.103
    1UNK    H0D   14   0.141   0.011   0.048
    1UNK    H0E   15   0.139   0.189   0.051
    1UNK    H0F   16  -0.087   0.013  -0.058
    1UNK    H0G   17  -0.086   0.189  -0.055
    1UNK    H0H   18  -0.078   0.185   0.198
    1UNK    H0I   19  -0.477   0.339   0.220
    1UNK    H0J   20  -0.503   0.165   0.246
    1UNK    H0K   21  -0.489   0.232   0.079
    1UNK    H0M   22  -0.283  -0.038   0.350
    1UNK    H0N   23  -0.153   0.051   0.433
    1UNK    H0O   24  -0.179  -0.254   0.416
    1UNK    H0P   25  -0.210  -0.156   0.560
    1UNK    H0Q   26  -0.046  -0.170   0.494
   1.00000   1.00000   1.00000

