LIGPARGEN GENERATED GRO FILE
   50
    1UNK    C00    1   0.100   0.100   0.000
    1UNK    C01    2  -0.053   0.100   0.000
    1UNK    C02    3  -0.111   0.100   0.142
    1UNK    C03    4  -0.204   0.216   0.181
    1UNK    C04    5  -0.294   0.255   0.065
    1UNK    C05    6  -0.209   0.310  -0.049
    1UNK    C06    7  -0.302   0.349  -0.166
    1UNK    C07    8  -0.110   0.202  -0.100
    1UNK    C08    9  -0.134   0.437  -0.004
    1UNK    C09   10  -0.087   0.448   0.144
    1UNK    C0A   11   0.067   0.464   0.147
    1UNK    C0B   12  -0.144   0.579   0.205
    1UNK    O0C   13  -0.075   0.672   0.245
    1UNK    O0D   14  -0.281   0.578   0.208
    1UNK    C0E   15  -0.340   0.696   0.263
    1UNK    C0F   16  -0.346   0.810   0.161
    1UNK    C0G   17  -0.461   0.896   0.211
    1UNK    C0H   18  -0.565   0.793   0.255
    1UNK    C0I   19  -0.486   0.670   0.300
    1UNK    C0J   20  -0.127   0.335   0.239
    1UNK    H0K   21   0.140   0.025   0.070
    1UNK    H0M   22   0.141   0.197   0.028
    1UNK    H0N   23   0.138   0.075  -0.100
    1UNK    H0O   24  -0.078   0.001  -0.041
    1UNK    H0P   25  -0.032   0.088   0.217
    1UNK    H0Q   26  -0.172   0.008   0.150
    1UNK    H0R   27  -0.268   0.178   0.262
    1UNK    H0S   28  -0.367   0.330   0.098
    1UNK    H0T   29  -0.352   0.168   0.032
    1UNK    H0U   30  -0.359   0.263  -0.203
    1UNK    H0V   31  -0.244   0.389  -0.250
    1UNK    H0W   32  -0.374   0.425  -0.136
    1UNK    H0X   33  -0.029   0.250  -0.156
    1UNK    H0Y   34  -0.162   0.142  -0.176
    1UNK    H0Z   35  -0.199   0.523  -0.025
    1UNK    H10   36  -0.049   0.453  -0.071
    1UNK    H11   37   0.099   0.548   0.084
    1UNK    H12   38   0.117   0.374   0.110
    1UNK    H13   39   0.103   0.484   0.248
    1UNK    H14   40  -0.287   0.728   0.353
    1UNK    H15   41  -0.366   0.772   0.060
    1UNK    H16   42  -0.252   0.866   0.157
    1UNK    H17   43  -0.499   0.963   0.134
    1UNK    H18   44  -0.429   0.956   0.297
    1UNK    H19   45  -0.630   0.767   0.171
    1UNK    H1A   46  -0.629   0.833   0.335
    1UNK    H1B   47  -0.526   0.580   0.252
    1UNK    H1C   48  -0.496   0.656   0.408
    1UNK    H1D   49  -0.191   0.377   0.318
    1UNK    H1E   50  -0.039   0.299   0.293
   1.00000   1.00000   1.00000

