
;
; GENERATED BY LigParGen Server
; Jorgensen Lab @ Yale University 
;
[ atomtypes ]
  opls_814  C814    12.0110     0.000    A    3.50000E-01   2.76144E-01
  opls_824  H824     1.0080     0.000    A    2.50000E-01   1.25520E-01
  opls_805  C805    12.0110     0.000    A    3.50000E-01   2.76144E-01
  opls_818  C818    12.0110     0.000    A    3.50000E-01   2.76144E-01
  opls_843  H843     1.0080     0.000    A    2.50000E-01   1.25520E-01
  opls_836  H836     1.0080     0.000    A    2.50000E-01   1.25520E-01
  opls_834  H834     1.0080     0.000    A    2.50000E-01   1.25520E-01
  opls_810  C810    12.0110     0.000    A    3.50000E-01   2.76144E-01
  opls_828  H828     1.0080     0.000    A    2.50000E-01   1.25520E-01
  opls_802  C802    12.0110     0.000    A    3.50000E-01   2.76144E-01
  opls_827  H827     1.0080     0.000    A    2.50000E-01   1.25520E-01
  opls_809  C809    12.0110     0.000    A    3.50000E-01   2.76144E-01
  opls_806  C806    12.0110     0.000    A    3.50000E-01   2.76144E-01
  opls_822  H822     1.0080     0.000    A    2.50000E-01   1.25520E-01
  opls_803  C803    12.0110     0.000    A    3.50000E-01   2.76144E-01
  opls_838  H838     1.0080     0.000    A    2.50000E-01   1.25520E-01
  opls_830  H830     1.0080     0.000    A    2.50000E-01   1.25520E-01
  opls_804  C804    12.0110     0.000    A    3.50000E-01   2.76144E-01
  opls_842  H842     1.0080     0.000    A    2.50000E-01   1.25520E-01
  opls_820  H820     1.0080     0.000    A    2.50000E-01   1.25520E-01
  opls_837  H837     1.0080     0.000    A    2.50000E-01   1.25520E-01
  opls_821  H821     1.0080     0.000    A    2.50000E-01   1.25520E-01
  opls_831  H831     1.0080     0.000    A    2.50000E-01   1.25520E-01
  opls_812  O812    15.9990     0.000    A    2.96000E-01   8.78640E-01
  opls_832  H832     1.0080     0.000    A    2.50000E-01   1.25520E-01
  opls_800  C800    12.0110     0.000    A    3.50000E-01   2.76144E-01
  opls_846  H846     1.0080     0.000    A    2.50000E-01   1.25520E-01
  opls_848  H848     1.0080     0.000    A    2.50000E-01   1.25520E-01
  opls_815  C815    12.0110     0.000    A    3.50000E-01   2.76144E-01
  opls_811  C811    12.0110     0.000    A    3.55000E-01   2.92880E-01
  opls_823  H823     1.0080     0.000    A    2.50000E-01   1.25520E-01
  opls_813  O813    15.9990     0.000    A    2.90000E-01   5.85760E-01
  opls_819  C819    12.0110     0.000    A    3.50000E-01   2.76144E-01
  opls_826  H826     1.0080     0.000    A    2.50000E-01   1.25520E-01
  opls_835  H835     1.0080     0.000    A    2.50000E-01   1.25520E-01
  opls_841  H841     1.0080     0.000    A    2.50000E-01   1.25520E-01
  opls_847  H847     1.0080     0.000    A    2.50000E-01   1.25520E-01
  opls_825  H825     1.0080     0.000    A    2.50000E-01   1.25520E-01
  opls_816  C816    12.0110     0.000    A    3.50000E-01   2.76144E-01
  opls_833  H833     1.0080     0.000    A    2.50000E-01   1.25520E-01
  opls_839  H839     1.0080     0.000    A    2.50000E-01   1.25520E-01
  opls_817  C817    12.0110     0.000    A    3.50000E-01   2.76144E-01
  opls_801  C801    12.0110     0.000    A    3.50000E-01   2.76144E-01
  opls_808  C808    12.0110     0.000    A    3.50000E-01   2.76144E-01
  opls_840  H840     1.0080     0.000    A    2.50000E-01   1.25520E-01
  opls_849  H849     1.0080     0.000    A    2.50000E-01   1.25520E-01
  opls_829  H829     1.0080     0.000    A    2.50000E-01   1.25520E-01
  opls_844  H844     1.0080     0.000    A    2.50000E-01   1.25520E-01
  opls_845  H845     1.0080     0.000    A    2.50000E-01   1.25520E-01
  opls_807  C807    12.0110     0.000    A    3.50000E-01   2.76144E-01
[ moleculetype ]
; Name               nrexcl
UNK                   3
[ atoms ]
;   nr       type  resnr residue  atom   cgnr     charge       mass  
     1   opls_800      1    UNK   C00      1    -0.2364    12.0110 
     2   opls_801      1    UNK   C01      1    -0.1027    12.0110 
     3   opls_802      1    UNK   C02      1    -0.1619    12.0110 
     4   opls_803      1    UNK   C03      1    -0.0978    12.0110 
     5   opls_804      1    UNK   C04      1    -0.1573    12.0110 
     6   opls_805      1    UNK   C05      1    -0.0346    12.0110 
     7   opls_806      1    UNK   C06      1    -0.2348    12.0110 
     8   opls_807      1    UNK   C07      1     -0.155    12.0110 
     9   opls_808      1    UNK   C08      1    -0.1483    12.0110 
    10   opls_809      1    UNK   C09      1    -0.0176    12.0110 
    11   opls_810      1    UNK   C0A      1    -0.2343    12.0110 
    12   opls_811      1    UNK   C0B      1     0.4284    12.0110 
    13   opls_812      1    UNK   O0C      1    -0.4534    15.9990 
    14   opls_813      1    UNK   O0D      1    -0.3504    15.9990 
    15   opls_814      1    UNK   C0E      1     0.0573    12.0110 
    16   opls_815      1    UNK   C0F      1     -0.209    12.0110 
    17   opls_816      1    UNK   C0G      1    -0.1811    12.0110 
    18   opls_817      1    UNK   C0H      1    -0.1829    12.0110 
    19   opls_818      1    UNK   C0I      1    -0.1854    12.0110 
    20   opls_819      1    UNK   C0J      1    -0.1569    12.0110 
    21   opls_820      1    UNK   H0K      1     0.0806     1.0080 
    22   opls_821      1    UNK   H0M      1     0.0806     1.0080 
    23   opls_822      1    UNK   H0N      1     0.0806     1.0080 
    24   opls_823      1    UNK   H0O      1      0.081     1.0080 
    25   opls_824      1    UNK   H0P      1     0.0842     1.0080 
    26   opls_825      1    UNK   H0Q      1     0.0842     1.0080 
    27   opls_826      1    UNK   H0R      1     0.0936     1.0080 
    28   opls_827      1    UNK   H0S      1     0.0988     1.0080 
    29   opls_828      1    UNK   H0T      1     0.0988     1.0080 
    30   opls_829      1    UNK   H0U      1     0.0836     1.0080 
    31   opls_830      1    UNK   H0V      1     0.0836     1.0080 
    32   opls_831      1    UNK   H0W      1     0.0836     1.0080 
    33   opls_832      1    UNK   H0X      2     0.0851     1.0080 
    34   opls_833      1    UNK   H0Y      2     0.0851     1.0080 
    35   opls_834      1    UNK   H0Z      2     0.0957     1.0080 
    36   opls_835      1    UNK   H10      2     0.0957     1.0080 
    37   opls_836      1    UNK   H11      2     0.0954     1.0080 
    38   opls_837      1    UNK   H12      2     0.0954     1.0080 
    39   opls_838      1    UNK   H13      2     0.0954     1.0080 
    40   opls_839      1    UNK   H14      2     0.1239     1.0080 
    41   opls_840      1    UNK   H15      2     0.1109     1.0080 
    42   opls_841      1    UNK   H16      2     0.1109     1.0080 
    43   opls_842      1    UNK   H17      2     0.0983     1.0080 
    44   opls_843      1    UNK   H18      2     0.0983     1.0080 
    45   opls_844      1    UNK   H19      2     0.0949     1.0080 
    46   opls_845      1    UNK   H1A      2     0.0949     1.0080 
    47   opls_846      1    UNK   H1B      2     0.1047     1.0080 
    48   opls_847      1    UNK   H1C      2     0.1047     1.0080 
    49   opls_848      1    UNK   H1D      2     0.0957     1.0080 
    50   opls_849      1    UNK   H1E      2     0.0957     1.0080 
[ bonds ]
    2     1     1      0.1529 224262.400
    3     2     1      0.1529 224262.400
    4     3     1      0.1529 224262.400
    5     4     1      0.1529 224262.400
    6     5     1      0.1529 224262.400
    7     6     1      0.1529 224262.400
    8     2     1      0.1529 224262.400
    9     6     1      0.1529 224262.400
   10     9     1      0.1529 224262.400
   11    10     1      0.1529 224262.400
   12    10     1      0.1522 265265.600
   13    12     1      0.1229 476976.000
   14    12     1      0.1327 179075.200
   15    14     1      0.1410 267776.000
   16    15     1      0.1529 224262.400
   17    16     1      0.1529 224262.400
   18    17     1      0.1529 224262.400
   19    15     1      0.1529 224262.400
   20     4     1      0.1529 224262.400
   21     1     1      0.1090 284512.000
   22     1     1      0.1090 284512.000
   23     1     1      0.1090 284512.000
   24     2     1      0.1090 284512.000
   25     3     1      0.1090 284512.000
   26     3     1      0.1090 284512.000
   27     4     1      0.1090 284512.000
   28     5     1      0.1090 284512.000
   29     5     1      0.1090 284512.000
   30     7     1      0.1090 284512.000
   31     7     1      0.1090 284512.000
   32     7     1      0.1090 284512.000
   33     8     1      0.1090 284512.000
   34     8     1      0.1090 284512.000
   35     9     1      0.1090 284512.000
   36     9     1      0.1090 284512.000
   37    11     1      0.1090 284512.000
   38    11     1      0.1090 284512.000
   39    11     1      0.1090 284512.000
   40    15     1      0.1090 284512.000
   41    16     1      0.1090 284512.000
   42    16     1      0.1090 284512.000
   43    17     1      0.1090 284512.000
   44    17     1      0.1090 284512.000
   45    18     1      0.1090 284512.000
   46    18     1      0.1090 284512.000
   47    19     1      0.1090 284512.000
   48    19     1      0.1090 284512.000
   49    20     1      0.1090 284512.000
   50    20     1      0.1090 284512.000
    8     6     1      0.1529 224262.400
   20    10     1      0.1529 224262.400
   19    18     1      0.1529 224262.400

[ angles ]
;  ai    aj    ak funct            c0            c1            c2            c3 
    1     2     3     1    112.700    488.273
    2     3     4     1    112.700    488.273
    3     4     5     1    112.700    488.273
    4     5     6     1    112.700    488.273
    5     6     7     1    112.700    488.273
    1     2     8     1    112.700    488.273
    5     6     9     1    112.700    488.273
    6     9    10     1    112.700    488.273
    9    10    11     1    112.700    488.273
    9    10    12     1    111.100    527.184
   10    12    13     1    120.400    669.440
   10    12    14     1    111.400    677.808
   12    14    15     1    116.900    694.544
   14    15    16     1    109.500    418.400
   15    16    17     1    112.700    488.273
   16    17    18     1    112.700    488.273
   14    15    19     1    109.500    418.400
    3     4    20     1    112.700    488.273
    2     1    21     1    110.700    313.800
    2     1    22     1    110.700    313.800
    2     1    23     1    110.700    313.800
    1     2    24     1    110.700    313.800
    2     3    25     1    110.700    313.800
    2     3    26     1    110.700    313.800
    3     4    27     1    110.700    313.800
    4     5    28     1    110.700    313.800
    4     5    29     1    110.700    313.800
    6     7    30     1    110.700    313.800
    6     7    31     1    110.700    313.800
    6     7    32     1    110.700    313.800
    2     8    33     1    110.700    313.800
    2     8    34     1    110.700    313.800
    6     9    35     1    110.700    313.800
    6     9    36     1    110.700    313.800
   10    11    37     1    110.700    313.800
   10    11    38     1    110.700    313.800
   10    11    39     1    110.700    313.800
   14    15    40     1    109.500    292.880
   15    16    41     1    110.700    313.800
   15    16    42     1    110.700    313.800
   16    17    43     1    110.700    313.800
   16    17    44     1    110.700    313.800
   17    18    45     1    110.700    313.800
   17    18    46     1    110.700    313.800
   15    19    47     1    110.700    313.800
   15    19    48     1    110.700    313.800
    4    20    49     1    110.700    313.800
    4    20    50     1    110.700    313.800
    6     8    33     1    110.700    313.800
   16    15    40     1    110.700    313.800
   13    12    14     1    123.400    694.544
   11    10    12     1    111.100    527.184
   19    15    40     1    110.700    313.800
   18    19    48     1    110.700    313.800
   37    11    39     1    107.800    276.144
   41    16    42     1    107.800    276.144
   49    20    50     1    107.800    276.144
   30     7    32     1    107.800    276.144
    5     4    27     1    110.700    313.800
   21     1    23     1    107.800    276.144
   28     5    29     1    107.800    276.144
   19    18    45     1    110.700    313.800
   45    18    46     1    107.800    276.144
   38    11    39     1    107.800    276.144
   31     7    32     1    107.800    276.144
   35     9    36     1    107.800    276.144
   16    15    19     1    112.700    488.273
   10    20    49     1    110.700    313.800
   10     9    36     1    110.700    313.800
   43    17    44     1    107.800    276.144
    8     2    24     1    110.700    313.800
    6     8    34     1    110.700    313.800
   17    16    41     1    110.700    313.800
   10    20    50     1    110.700    313.800
    4    20    10     1    112.700    488.273
   47    19    48     1    107.800    276.144
   18    19    47     1    110.700    313.800
   33     8    34     1    107.800    276.144
   18    17    43     1    110.700    313.800
    3     2     8     1    112.700    488.273
    4     3    25     1    110.700    313.800
    2     8     6     1    112.700    488.273
   10     9    35     1    110.700    313.800
   21     1    22     1    107.800    276.144
   17    18    19     1    112.700    488.273
    5     4    20     1    112.700    488.273
    8     6     9     1    112.700    488.273
    4     3    26     1    110.700    313.800
   37    11    38     1    107.800    276.144
   15    19    18     1    112.700    488.273
   25     3    26     1    107.800    276.144
    7     6     9     1    112.700    488.273
   11    10    20     1    112.700    488.273
   18    17    44     1    110.700    313.800
    5     6     8     1    112.700    488.273
   20     4    27     1    110.700    313.800
   22     1    23     1    107.800    276.144
    9    10    20     1    112.700    488.273
    6     5    28     1    110.700    313.800
    7     6     8     1    112.700    488.273
   17    16    42     1    110.700    313.800
   30     7    31     1    107.800    276.144
   19    18    46     1    110.700    313.800
    3     2    24     1    110.700    313.800
    6     5    29     1    110.700    313.800
   12    10    20     1    111.100    527.184

[ dihedrals ]
; IMPROPER DIHEDRAL ANGLES 
;  ai    aj    ak    al funct            c0            c1            c2            c3            c4            c5
    14    12    10    13    4        180.000     43.932     2  

[ dihedrals ]
; PROPER DIHEDRAL ANGLES
;  ai    aj    ak    al funct            c0            c1            c2            c3            c4            c5
   12   10    9    6        3      -4.960   6.286   1.310  -2.636  -0.000   0.000
   12   10   20    4        3      -4.960   6.286   1.310  -2.636  -0.000   0.000
   20   10   12   13        3       0.000   0.000   0.000  -0.000  -0.000   0.000
   20   10   12   14        3      -1.157  -3.471   0.000   4.628  -0.000   0.000
   19   15   16   17        3       2.301  -1.464   0.837  -1.674  -0.000   0.000
    7    6    8    2        3       2.301  -1.464   0.837  -1.674  -0.000   0.000
   20    4    5    6        3       2.301  -1.464   0.837  -1.674  -0.000   0.000
   18   19   15   16        3       2.301  -1.464   0.837  -1.674  -0.000   0.000
    6    8    2    1        3       2.301  -1.464   0.837  -1.674  -0.000   0.000
    8    2    3    4        3       2.301  -1.464   0.837  -1.674  -0.000   0.000
    4    3    2    1        3       2.301  -1.464   0.837  -1.674  -0.000   0.000
    9    6    8    2        3       2.301  -1.464   0.837  -1.674  -0.000   0.000
   17   18   19   15        3       2.301  -1.464   0.837  -1.674  -0.000   0.000
    9   10   20    4        3       2.301  -1.464   0.837  -1.674  -0.000   0.000
   10   20    4    5        3       2.301  -1.464   0.837  -1.674  -0.000   0.000
   11   10   20    4        3       2.301  -1.464   0.837  -1.674  -0.000   0.000
   10   20    4    3        3       2.301  -1.464   0.837  -1.674  -0.000   0.000
    9    6    5    4        3       2.301  -1.464   0.837  -1.674  -0.000   0.000
   10    9    6    8        3       2.301  -1.464   0.837  -1.674  -0.000   0.000
    6    8    2    3        3       2.301  -1.464   0.837  -1.674  -0.000   0.000
   20   10    9    6        3       2.301  -1.464   0.837  -1.674  -0.000   0.000
    5    6    8    2        3       2.301  -1.464   0.837  -1.674  -0.000   0.000
    5    4    3    2        3       2.301  -1.464   0.837  -1.674  -0.000   0.000
    6    5    4    3        3       2.301  -1.464   0.837  -1.674  -0.000   0.000
    7    6    5    4        3       2.301  -1.464   0.837  -1.674  -0.000   0.000
   10    9    6    5        3       2.301  -1.464   0.837  -1.674  -0.000   0.000
   11   10    9    6        3       2.301  -1.464   0.837  -1.674  -0.000   0.000
    8    6    5    4        3       2.301  -1.464   0.837  -1.674  -0.000   0.000
   19   18   17   16        3       2.301  -1.464   0.837  -1.674  -0.000   0.000
   18   17   16   15        3       2.301  -1.464   0.837  -1.674  -0.000   0.000
   20    4    3    2        3       2.301  -1.464   0.837  -1.674  -0.000   0.000
   10    9    6    7        3       2.301  -1.464   0.837  -1.674  -0.000   0.000
   17   16   15   14        3       2.874   0.582   2.092  -5.548  -0.000   0.000
   18   19   15   14        3       2.874   0.582   2.092  -5.548  -0.000   0.000
   16   15   14   12        3      -2.197   5.201   0.527  -3.531  -0.000   0.000
   19   15   14   12        3      -2.197   5.201   0.527  -3.531  -0.000   0.000
   15   14   12   10        3      31.206  -9.768  -21.439  -0.000  -0.000   0.000
   15   14   12   13        3      21.439   0.000  -21.439  -0.000  -0.000   0.000
   38   11   10   12        3      -0.209  -0.628   0.000   0.837  -0.000   0.000
   36    9   10   12        3      -0.209  -0.628   0.000   0.837  -0.000   0.000
   39   11   10   12        3      -0.209  -0.628   0.000   0.837  -0.000   0.000
   35    9   10   12        3      -0.209  -0.628   0.000   0.837  -0.000   0.000
   50   20   10   12        3      -0.209  -0.628   0.000   0.837  -0.000   0.000
   37   11   10   12        3      -0.209  -0.628   0.000   0.837  -0.000   0.000
   49   20   10   12        3      -0.209  -0.628   0.000   0.837  -0.000   0.000
   24    2    3    4        3       0.628   1.883   0.000  -2.510  -0.000   0.000
   34    8    2    1        3       0.628   1.883   0.000  -2.510  -0.000   0.000
   40   15   16   17        3       0.628   1.883   0.000  -2.510  -0.000   0.000
   28    5    6    9        3       0.628   1.883   0.000  -2.510  -0.000   0.000
   29    5    6    8        3       0.628   1.883   0.000  -2.510  -0.000   0.000
   33    8    6    5        3       0.628   1.883   0.000  -2.510  -0.000   0.000
   36    9    6    8        3       0.628   1.883   0.000  -2.510  -0.000   0.000
   30    7    6    5        3       0.628   1.883   0.000  -2.510  -0.000   0.000
   49   20    4    3        3       0.628   1.883   0.000  -2.510  -0.000   0.000
   42   16   15   19        3       0.628   1.883   0.000  -2.510  -0.000   0.000
   39   11   10    9        3       0.628   1.883   0.000  -2.510  -0.000   0.000
   35    9   10   20        3       0.628   1.883   0.000  -2.510  -0.000   0.000
   38   11   10   20        3       0.628   1.883   0.000  -2.510  -0.000   0.000
   36    9    6    5        3       0.628   1.883   0.000  -2.510  -0.000   0.000
   27    4    5    6        3       0.628   1.883   0.000  -2.510  -0.000   0.000
   41   16   15   19        3       0.628   1.883   0.000  -2.510  -0.000   0.000
   22    1    2    8        3       0.628   1.883   0.000  -2.510  -0.000   0.000
   29    5    4   20        3       0.628   1.883   0.000  -2.510  -0.000   0.000
   26    3    4   20        3       0.628   1.883   0.000  -2.510  -0.000   0.000
   31    7    6    8        3       0.628   1.883   0.000  -2.510  -0.000   0.000
   49   20   10    9        3       0.628   1.883   0.000  -2.510  -0.000   0.000
   33    8    6    9        3       0.628   1.883   0.000  -2.510  -0.000   0.000
   42   16   17   18        3       0.628   1.883   0.000  -2.510  -0.000   0.000
   23    1    2    8        3       0.628   1.883   0.000  -2.510  -0.000   0.000
   35    9    6    5        3       0.628   1.883   0.000  -2.510  -0.000   0.000
   21    1    2    3        3       0.628   1.883   0.000  -2.510  -0.000   0.000
   33    8    2    3        3       0.628   1.883   0.000  -2.510  -0.000   0.000
   25    3    2    1        3       0.628   1.883   0.000  -2.510  -0.000   0.000
   21    1    2    8        3       0.628   1.883   0.000  -2.510  -0.000   0.000
   36    9   10   20        3       0.628   1.883   0.000  -2.510  -0.000   0.000
   29    5    4    3        3       0.628   1.883   0.000  -2.510  -0.000   0.000
   35    9    6    8        3       0.628   1.883   0.000  -2.510  -0.000   0.000
   36    9    6    7        3       0.628   1.883   0.000  -2.510  -0.000   0.000
   50   20    4    3        3       0.628   1.883   0.000  -2.510  -0.000   0.000
   46   18   17   16        3       0.628   1.883   0.000  -2.510  -0.000   0.000
   22    1    2    3        3       0.628   1.883   0.000  -2.510  -0.000   0.000
   32    7    6    9        3       0.628   1.883   0.000  -2.510  -0.000   0.000
   33    8    6    7        3       0.628   1.883   0.000  -2.510  -0.000   0.000
   44   17   18   19        3       0.628   1.883   0.000  -2.510  -0.000   0.000
   43   17   18   19        3       0.628   1.883   0.000  -2.510  -0.000   0.000
   49   20   10   11        3       0.628   1.883   0.000  -2.510  -0.000   0.000
   29    5    6    9        3       0.628   1.883   0.000  -2.510  -0.000   0.000
   28    5    6    8        3       0.628   1.883   0.000  -2.510  -0.000   0.000
   29    5    6    7        3       0.628   1.883   0.000  -2.510  -0.000   0.000
   34    8    6    9        3       0.628   1.883   0.000  -2.510  -0.000   0.000
   27    4    3    2        3       0.628   1.883   0.000  -2.510  -0.000   0.000
   32    7    6    5        3       0.628   1.883   0.000  -2.510  -0.000   0.000
   30    7    6    9        3       0.628   1.883   0.000  -2.510  -0.000   0.000
   26    3    2    8        3       0.628   1.883   0.000  -2.510  -0.000   0.000
   45   18   17   16        3       0.628   1.883   0.000  -2.510  -0.000   0.000
   28    5    4    3        3       0.628   1.883   0.000  -2.510  -0.000   0.000
   35    9    6    7        3       0.628   1.883   0.000  -2.510  -0.000   0.000
   34    8    2    3        3       0.628   1.883   0.000  -2.510  -0.000   0.000
   40   15   19   18        3       0.628   1.883   0.000  -2.510  -0.000   0.000
   34    8    6    5        3       0.628   1.883   0.000  -2.510  -0.000   0.000
   32    7    6    8        3       0.628   1.883   0.000  -2.510  -0.000   0.000
   31    7    6    9        3       0.628   1.883   0.000  -2.510  -0.000   0.000
   24    2    8    6        3       0.628   1.883   0.000  -2.510  -0.000   0.000
   26    3    2    1        3       0.628   1.883   0.000  -2.510  -0.000   0.000
   23    1    2    3        3       0.628   1.883   0.000  -2.510  -0.000   0.000
   25    3    2    8        3       0.628   1.883   0.000  -2.510  -0.000   0.000
   48   19   18   17        3       0.628   1.883   0.000  -2.510  -0.000   0.000
   28    5    4   20        3       0.628   1.883   0.000  -2.510  -0.000   0.000
   47   19   18   17        3       0.628   1.883   0.000  -2.510  -0.000   0.000
   33    8    2    1        3       0.628   1.883   0.000  -2.510  -0.000   0.000
   25    3    4    5        3       0.628   1.883   0.000  -2.510  -0.000   0.000
   34    8    6    7        3       0.628   1.883   0.000  -2.510  -0.000   0.000
   35    9   10   11        3       0.628   1.883   0.000  -2.510  -0.000   0.000
   38   11   10    9        3       0.628   1.883   0.000  -2.510  -0.000   0.000
   31    7    6    5        3       0.628   1.883   0.000  -2.510  -0.000   0.000
   50   20    4    5        3       0.628   1.883   0.000  -2.510  -0.000   0.000
   37   11   10   20        3       0.628   1.883   0.000  -2.510  -0.000   0.000
   36    9   10   11        3       0.628   1.883   0.000  -2.510  -0.000   0.000
   25    3    4   20        3       0.628   1.883   0.000  -2.510  -0.000   0.000
   44   17   16   15        3       0.628   1.883   0.000  -2.510  -0.000   0.000
   46   18   19   15        3       0.628   1.883   0.000  -2.510  -0.000   0.000
   39   11   10   20        3       0.628   1.883   0.000  -2.510  -0.000   0.000
   47   19   15   16        3       0.628   1.883   0.000  -2.510  -0.000   0.000
   28    5    6    7        3       0.628   1.883   0.000  -2.510  -0.000   0.000
   43   17   16   15        3       0.628   1.883   0.000  -2.510  -0.000   0.000
   45   18   19   15        3       0.628   1.883   0.000  -2.510  -0.000   0.000
   30    7    6    8        3       0.628   1.883   0.000  -2.510  -0.000   0.000
   48   19   15   16        3       0.628   1.883   0.000  -2.510  -0.000   0.000
   41   16   17   18        3       0.628   1.883   0.000  -2.510  -0.000   0.000
   50   20   10   11        3       0.628   1.883   0.000  -2.510  -0.000   0.000
   49   20    4    5        3       0.628   1.883   0.000  -2.510  -0.000   0.000
   27    4   20   10        3       0.628   1.883   0.000  -2.510  -0.000   0.000
   26    3    4    5        3       0.628   1.883   0.000  -2.510  -0.000   0.000
   37   11   10    9        3       0.628   1.883   0.000  -2.510  -0.000   0.000
   50   20   10    9        3       0.628   1.883   0.000  -2.510  -0.000   0.000
   34    8    2   24        3       0.628   1.883   0.000  -2.510  -0.000   0.000
   33    8    2   24        3       0.628   1.883   0.000  -2.510  -0.000   0.000
   42   16   15   40        3       0.628   1.883   0.000  -2.510  -0.000   0.000
   28    5    4   27        3       0.628   1.883   0.000  -2.510  -0.000   0.000
   44   17   16   41        3       0.628   1.883   0.000  -2.510  -0.000   0.000
   43   17   16   42        3       0.628   1.883   0.000  -2.510  -0.000   0.000
   27    4    3   26        3       0.628   1.883   0.000  -2.510  -0.000   0.000
   41   16   15   40        3       0.628   1.883   0.000  -2.510  -0.000   0.000
   24    2    1   22        3       0.628   1.883   0.000  -2.510  -0.000   0.000
   43   17   16   41        3       0.628   1.883   0.000  -2.510  -0.000   0.000
   48   19   15   40        3       0.628   1.883   0.000  -2.510  -0.000   0.000
   50   20    4   27        3       0.628   1.883   0.000  -2.510  -0.000   0.000
   46   18   17   43        3       0.628   1.883   0.000  -2.510  -0.000   0.000
   24    2    1   21        3       0.628   1.883   0.000  -2.510  -0.000   0.000
   49   20    4   27        3       0.628   1.883   0.000  -2.510  -0.000   0.000
   45   18   17   44        3       0.628   1.883   0.000  -2.510  -0.000   0.000
   27    4    3   25        3       0.628   1.883   0.000  -2.510  -0.000   0.000
   26    3    2   24        3       0.628   1.883   0.000  -2.510  -0.000   0.000
   44   17   16   42        3       0.628   1.883   0.000  -2.510  -0.000   0.000
   29    5    4   27        3       0.628   1.883   0.000  -2.510  -0.000   0.000
   24    2    1   23        3       0.628   1.883   0.000  -2.510  -0.000   0.000
   48   19   18   46        3       0.628   1.883   0.000  -2.510  -0.000   0.000
   46   18   17   44        3       0.628   1.883   0.000  -2.510  -0.000   0.000
   48   19   18   45        3       0.628   1.883   0.000  -2.510  -0.000   0.000
   47   19   18   46        3       0.628   1.883   0.000  -2.510  -0.000   0.000
   47   19   15   40        3       0.628   1.883   0.000  -2.510  -0.000   0.000
   25    3    2   24        3       0.628   1.883   0.000  -2.510  -0.000   0.000
   47   19   18   45        3       0.628   1.883   0.000  -2.510  -0.000   0.000
   45   18   17   43        3       0.628   1.883   0.000  -2.510  -0.000   0.000
   41   16   15   14        3       0.979   2.937   0.000  -3.916  -0.000   0.000
   42   16   15   14        3       0.979   2.937   0.000  -3.916  -0.000   0.000
   47   19   15   14        3       0.979   2.937   0.000  -3.916  -0.000   0.000
   48   19   15   14        3       0.979   2.937   0.000  -3.916  -0.000   0.000
   40   15   14   12        3       0.414   1.243   0.000  -1.657  -0.000   0.000
   13   12   10   11        3       0.000   0.000   0.000  -0.000  -0.000   0.000
   13   12   10    9        3       0.000   0.000   0.000  -0.000  -0.000   0.000
   14   12   10   11        3      -1.157  -3.471   0.000   4.628  -0.000   0.000
   14   12   10    9        3      -1.157  -3.471   0.000   4.628  -0.000   0.000

[ pairs ]
     1     4    1
     2     5    1
     1     6    1
     3     6    1
     2     7    1
     4     7    1
     2     9    1
     4     8    1
     4     9    1
     3    10    1
     5    10    1
     4    11    1
     4    12    1
     7    10    1
     6    11    1
     8    10    1
     6    12    1
     9    13    1
     2    20    1
     9    14    1
    11    13    1
     3    21    1
    11    14    1
    10    15    1
     3    22    1
     6    20    1
     3    23    1
     1    25    1
     1    26    1
    13    15    1
    12    16    1
     4    24    1
     8    21    1
     2    27    1
     8    22    1
     6    24    1
     5    25    1
    14    17    1
    12    19    1
     8    23    1
     5    26    1
     3    28    1
    14    18    1
     3    29    1
    13    20    1
     8    25    1
     6    27    1
    14    20    1
     8    26    1
     1    33    1
     7    28    1
     5    30    1
     1    34    1
     8    28    1
     7    29    1
     5    31    1
     3    33    1
    10    27    1
     9    28    1
     8    29    1
     5    32    1
     3    34    1
     9    29    1
     8    30    1
     5    33    1
     9    30    1
     8    31    1
     5    34    1
     9    31    1
     8    32    1
     7    33    1
     5    35    1
     9    32    1
     7    34    1
     5    36    1
     9    33    1
     7    35    1
     9    34    1
     8    35    1
     7    36    1
     8    36    1
    21    24    1
    20    25    1
    22    24    1
    20    26    1
    11    35    1
     9    37    1
    23    24    1
    12    35    1
    11    36    1
     9    38    1
    20    28    1
    12    36    1
     9    39    1
    24    25    1
    20    29    1
    12    37    1
    24    26    1
    12    38    1
    12    39    1
    25    27    1
    12    40    1
     3    49    1
    26    27    1
     3    50    1
     5    49    1
    27    28    1
    20    35    1
    14    41    1
     5    50    1
    27    29    1
    20    36    1
    14    42    1
    24    33    1
    20    37    1
    17    40    1
    24    34    1
    20    38    1
    18    40    1
    15    43    1
     9    49    1
    20    39    1
    18    41    1
    15    44    1
     9    50    1
    19    41    1
    18    42    1
    15    45    1
    11    49    1
    19    42    1
    16    45    1
    15    46    1
    14    47    1
    12    49    1
    11    50    1
    19    43    1
    16    46    1
    14    48    1
    12    50    1
    19    44    1
    16    47    1
    17    47    1
    16    48    1
    17    48    1
    27    49    1
    27    50    1
    40    41    1
    40    42    1
    41    43    1
    42    43    1
    41    44    1
    42    44    1
    40    47    1
    43    45    1
    40    48    1
    44    45    1
    43    46    1
    44    46    1
    45    47    1
    46    47    1
    45    48    1
    46    48    1

