LIGPARGEN GENERATED GRO FILE
   41
    1UNK    C00    1   0.100   0.100   0.000
    1UNK    C01    2  -0.052   0.100   0.000
    1UNK    C02    3  -0.106   0.100   0.143
    1UNK    C03    4  -0.260   0.106   0.154
    1UNK    C04    5  -0.326  -0.014   0.085
    1UNK    C05    6  -0.305   0.108   0.302
    1UNK    C06    7  -0.255   0.230   0.382
    1UNK    C07    8  -0.297   0.240   0.533
    1UNK    C08    9  -0.450   0.243   0.546
    1UNK    S09   10  -0.233   0.102   0.631
    1UNK    C0A   11  -0.055   0.098   0.615
    1UNK    O0B   12  -0.263   0.127   0.771
    1UNK    O0C   13  -0.283  -0.022   0.574
    1UNK    S0D   14  -0.227   0.398   0.594
    1UNK    C0E   15  -0.276   0.422   0.764
    1UNK    O0F   16  -0.083   0.387   0.592
    1UNK    O0G   17  -0.291   0.505   0.519
    1UNK    H0H   18   0.138   0.100  -0.103
    1UNK    H0I   19   0.139   0.011   0.051
    1UNK    H0J   20   0.139   0.189   0.051
    1UNK    H0K   21  -0.087   0.012  -0.055
    1UNK    H0M   22  -0.088   0.189  -0.053
    1UNK    H0N   23  -0.062   0.187   0.194
    1UNK    H0O   24  -0.069   0.011   0.196
    1UNK    H0P   25  -0.295   0.198   0.105
    1UNK    H0Q   26  -0.291  -0.108   0.128
    1UNK    H0R   27  -0.304  -0.016  -0.022
    1UNK    H0S   28  -0.435  -0.010   0.096
    1UNK    H0T   29  -0.269   0.016   0.348
    1UNK    H0U   30  -0.415   0.106   0.305
    1UNK    H0V   31  -0.291   0.320   0.330
    1UNK    H0W   32  -0.146   0.235   0.377
    1UNK    H0X   33  -0.496   0.149   0.514
    1UNK    H0Y   34  -0.493   0.324   0.487
    1UNK    H0Z   35  -0.481   0.259   0.650
    1UNK    H10   36  -0.011   0.174   0.678
    1UNK    H11   37  -0.027   0.110   0.511
    1UNK    H12   38  -0.022  -0.001   0.650
    1UNK    H13   39  -0.233   0.346   0.829
    1UNK    H14   40  -0.384   0.425   0.771
    1UNK    H15   41  -0.235   0.519   0.795
   1.00000   1.00000   1.00000

