LIGPARGEN GENERATED GRO FILE
   37
    1UNK    C00    1   0.100   0.100   0.000
    1UNK    C01    2  -0.054   0.100   0.000
    1UNK    C02    3  -0.101   0.100   0.145
    1UNK    C03    4  -0.102   0.220  -0.084
    1UNK    C04    5  -0.254   0.241  -0.115
    1UNK    C05    6  -0.329   0.278   0.015
    1UNK    C06    7  -0.266   0.366  -0.209
    1UNK    C07    8  -0.211   0.343  -0.350
    1UNK    C08    9  -0.266   0.217  -0.416
    1UNK    C09   10  -0.258   0.092  -0.326
    1UNK    C0A   11  -0.321  -0.028  -0.398
    1UNK    C0B   12  -0.321   0.117  -0.186
    1UNK    C0C   13  -0.469   0.148  -0.204
    1UNK    N0D   14  -0.591   0.173  -0.219
    1UNK    H0E   15   0.139   0.015   0.056
    1UNK    H0F   16   0.139   0.192   0.046
    1UNK    H0G   17   0.139   0.093  -0.102
    1UNK    H0H   18  -0.087   0.007  -0.047
    1UNK    H0I   19  -0.093   0.200   0.190
    1UNK    H0J   20  -0.041   0.031   0.206
    1UNK    H0K   21  -0.204   0.065   0.153
    1UNK    H0M   22  -0.048   0.214  -0.179
    1UNK    H0N   23  -0.064   0.312  -0.037
    1UNK    H0O   24  -0.273   0.351   0.074
    1UNK    H0P   25  -0.348   0.190   0.078
    1UNK    H0Q   26  -0.427   0.322  -0.005
    1UNK    H0R   27  -0.215   0.452  -0.164
    1UNK    H0S   28  -0.371   0.396  -0.219
    1UNK    H0T   29  -0.101   0.338  -0.347
    1UNK    H0U   30  -0.235   0.430  -0.413
    1UNK    H0V   31  -0.210   0.199  -0.509
    1UNK    H0W   32  -0.369   0.235  -0.447
    1UNK    H0X   33  -0.152   0.068  -0.312
    1UNK    H0Y   34  -0.426  -0.010  -0.423
    1UNK    H0Z   35  -0.316  -0.117  -0.335
    1UNK    H10   36  -0.268  -0.049  -0.491
    1UNK    H11   37  -0.311   0.028  -0.124
   1.00000   1.00000   1.00000

