LIGPARGEN GENERATED GRO FILE
   35
    1UNK    C00    1   0.100   0.100   0.000
    1UNK    N01    2  -0.048   0.100   0.000
    1UNK    C02    3  -0.107   0.100   0.136
    1UNK    C03    4  -0.255   0.143   0.122
    1UNK    C04    5  -0.304   0.212   0.251
    1UNK    O05    6  -0.348   0.036   0.090
    1UNK    C06    7  -0.371  -0.058   0.185
    1UNK    O07    8  -0.291  -0.094   0.271
    1UNK    O08    9  -0.502  -0.092   0.181
    1UNK    C09   10  -0.548  -0.168   0.293
    1UNK    C0A   11  -0.556  -0.089   0.422
    1UNK    C0B   12  -0.661  -0.166   0.500
    1UNK    O0C   13  -0.756  -0.212   0.403
    1UNK    C0D   14  -0.694  -0.208   0.274
    1UNK    C0E   15  -0.264   0.244   0.006
    1UNK    S0F   16  -0.119   0.223  -0.093
    1UNK    O0G   17  -0.038   0.342  -0.079
    1UNK    O0H   18  -0.152   0.168  -0.223
    1UNK    H0I   19   0.137   0.011   0.051
    1UNK    H0J   20   0.140   0.188   0.052
    1UNK    H0K   21   0.138   0.098  -0.102
    1UNK    H0M   22  -0.052   0.171   0.199
    1UNK    H0N   23  -0.095  -0.000   0.177
    1UNK    H0O   24  -0.300   0.145   0.337
    1UNK    H0P   25  -0.409   0.242   0.240
    1UNK    H0Q   26  -0.245   0.300   0.275
    1UNK    H0R   27  -0.487  -0.258   0.306
    1UNK    H0S   28  -0.589   0.014   0.403
    1UNK    H0T   29  -0.461  -0.084   0.476
    1UNK    H0U   30  -0.712  -0.104   0.575
    1UNK    H0V   31  -0.618  -0.253   0.549
    1UNK    H0W   32  -0.749  -0.135   0.212
    1UNK    H0X   33  -0.703  -0.306   0.226
    1UNK    H0Y   34  -0.262   0.347   0.042
    1UNK    H0Z   35  -0.352   0.228  -0.057
   1.00000   1.00000   1.00000

