
;
; GENERATED BY LigParGen Server
; Jorgensen Lab @ Yale University 
;
[ atomtypes ]
  opls_807  O807    15.9990     0.000    A    2.96000E-01   8.78640E-01
  opls_818  H818     1.0080     0.000    A    2.50000E-01   1.25520E-01
  opls_815  S815    32.0600     0.000    A    3.55000E-01   1.04600E+00
  opls_814  C814    12.0110     0.000    A    3.50000E-01   2.76144E-01
  opls_824  H824     1.0080     0.000    A    2.50000E-01   1.25520E-01
  opls_816  O816    15.9990     0.000    A    2.96000E-01   7.11280E-01
  opls_834  H834     1.0080     0.000    A    2.50000E-01   1.25520E-01
  opls_828  H828     1.0080     0.000    A    2.50000E-01   1.25520E-01
  opls_812  O812    15.9990     0.000    A    2.90000E-01   5.85760E-01
  opls_802  C802    12.0110     0.000    A    3.50000E-01   2.76144E-01
  opls_827  H827     1.0080     0.000    A    2.50000E-01   1.25520E-01
  opls_809  C809    12.0110     0.000    A    3.50000E-01   2.76144E-01
  opls_822  H822     1.0080     0.000    A    2.50000E-01   1.25520E-01
  opls_803  C803    12.0110     0.000    A    3.50000E-01   2.76144E-01
  opls_825  H825     1.0080     0.000    A    2.50000E-01   1.25520E-01
  opls_830  H830     1.0080     0.000    A    2.50000E-01   1.25520E-01
  opls_804  C804    12.0110     0.000    A    3.50000E-01   2.76144E-01
  opls_820  H820     1.0080     0.000    A    2.50000E-01   1.25520E-01
  opls_821  H821     1.0080     0.000    A    2.50000E-01   1.25520E-01
  opls_831  H831     1.0080     0.000    A    2.50000E-01   1.25520E-01
  opls_832  H832     1.0080     0.000    A    2.50000E-01   1.25520E-01
  opls_800  C800    12.0110     0.000    A    3.50000E-01   2.76144E-01
  opls_811  C811    12.0110     0.000    A    3.50000E-01   2.76144E-01
  opls_806  C806    12.0110     0.000    A    3.55000E-01   2.92880E-01
  opls_823  H823     1.0080     0.000    A    2.50000E-01   1.25520E-01
  opls_813  C813    12.0110     0.000    A    3.50000E-01   2.76144E-01
  opls_805  O805    15.9990     0.000    A    2.90000E-01   5.85760E-01
  opls_826  H826     1.0080     0.000    A    2.50000E-01   1.25520E-01
  opls_819  H819     1.0080     0.000    A    2.50000E-01   1.25520E-01
  opls_810  C810    12.0110     0.000    A    3.50000E-01   2.76144E-01
  opls_833  H833     1.0080     0.000    A    2.50000E-01   1.25520E-01
  opls_829  H829     1.0080     0.000    A    2.50000E-01   1.25520E-01
  opls_817  O817    15.9990     0.000    A    2.96000E-01   7.11280E-01
  opls_801  N801    14.0070     0.000    A    3.25000E-01   7.11280E-01
  opls_808  O808    15.9990     0.000    A    2.90000E-01   5.85760E-01
[ moleculetype ]
; Name               nrexcl
UNK                   3
[ atoms ]
;   nr       type  resnr residue  atom   cgnr     charge       mass  
     1   opls_800      1    UNK   C00      1     0.1892    12.0110 
     2   opls_801      1    UNK   N01      1    -1.3459    14.0070 
     3   opls_802      1    UNK   C02      1     0.2118    12.0110 
     4   opls_803      1    UNK   C03      1     0.1962    12.0110 
     5   opls_804      1    UNK   C04      1     -0.276    12.0110 
     6   opls_805      1    UNK   O05      1    -0.3286    15.9990 
     7   opls_806      1    UNK   C06      1      0.598    12.0110 
     8   opls_807      1    UNK   O07      1    -0.4886    15.9990 
     9   opls_808      1    UNK   O08      1    -0.3114    15.9990 
    10   opls_809      1    UNK   C09      1     0.0456    12.0110 
    11   opls_810      1    UNK   C0A      1    -0.2585    12.0110 
    12   opls_811      1    UNK   C0B      1     0.0017    12.0110 
    13   opls_812      1    UNK   O0C      1    -0.3685    15.9990 
    14   opls_813      1    UNK   C0D      1    -0.0025    12.0110 
    15   opls_814      1    UNK   C0E      1    -0.5476    12.0110 
    16   opls_815      1    UNK   S0F      1      1.537    32.0600 
    17   opls_816      1    UNK   O0G      1    -0.5354    15.9990 
    18   opls_817      1    UNK   O0H      1    -0.5354    15.9990 
    19   opls_818      1    UNK   H0I      1     0.1128     1.0080 
    20   opls_819      1    UNK   H0J      1     0.1128     1.0080 
    21   opls_820      1    UNK   H0K      1     0.1128     1.0080 
    22   opls_821      1    UNK   H0M      1     0.1489     1.0080 
    23   opls_822      1    UNK   H0N      1     0.1489     1.0080 
    24   opls_823      1    UNK   H0O      1     0.1128     1.0080 
    25   opls_824      1    UNK   H0P      1     0.1128     1.0080 
    26   opls_825      1    UNK   H0Q      1     0.1128     1.0080 
    27   opls_826      1    UNK   H0R      1     0.1373     1.0080 
    28   opls_827      1    UNK   H0S      1     0.1272     1.0080 
    29   opls_828      1    UNK   H0T      1     0.1272     1.0080 
    30   opls_829      1    UNK   H0U      1     0.1078     1.0080 
    31   opls_830      1    UNK   H0V      1     0.1078     1.0080 
    32   opls_831      1    UNK   H0W      1     0.1191     1.0080 
    33   opls_832      1    UNK   H0X      2     0.1191     1.0080 
    34   opls_833      1    UNK   H0Y      2     0.1994     1.0080 
    35   opls_834      1    UNK   H0Z      2     0.1994     1.0080 
[ bonds ]
    2     1     1      0.1449 282001.600
    3     2     1      0.1449 282001.600
    4     3     1      0.1529 224262.400
    5     4     1      0.1529 224262.400
    6     4     1      0.1410 267776.000
    7     6     1      0.1327 179075.200
    8     7     1      0.1229 476976.000
    9     7     1      0.1327 179075.200
   10     9     1      0.1410 267776.000
   11    10     1      0.1529 224262.400
   12    11     1      0.1529 224262.400
   13    12     1      0.1410 267776.000
   14    10     1      0.1529 224262.400
   15     4     1      0.1529 224262.400
   16     2     1      0.1670 363171.200
   17    16     1      0.1440 585760.000
   18    16     1      0.1440 585760.000
   19     1     1      0.1090 284512.000
   20     1     1      0.1090 284512.000
   21     1     1      0.1090 284512.000
   22     3     1      0.1090 284512.000
   23     3     1      0.1090 284512.000
   24     5     1      0.1090 284512.000
   25     5     1      0.1090 284512.000
   26     5     1      0.1090 284512.000
   27    10     1      0.1090 284512.000
   28    11     1      0.1090 284512.000
   29    11     1      0.1090 284512.000
   30    12     1      0.1090 284512.000
   31    12     1      0.1090 284512.000
   32    14     1      0.1090 284512.000
   33    14     1      0.1090 284512.000
   34    15     1      0.1090 284512.000
   35    15     1      0.1090 284512.000
   14    13     1      0.1410 267776.000
   16    15     1      0.1770 284512.000

[ angles ]
;  ai    aj    ak funct            c0            c1            c2            c3 
    1     2     3     1    118.000    418.400
    2     3     4     1    109.700    669.440
    3     4     5     1    112.700    488.273
    3     4     6     1    109.500    418.400
    4     6     7     1    116.900    694.544
    6     7     8     1    123.400    694.544
    6     7     9     1    118.180    584.923
    7     9    10     1    116.900    694.544
    9    10    11     1    109.500    418.400
   10    11    12     1    112.700    488.273
   11    12    13     1    109.500    418.400
    9    10    14     1    109.500    418.400
    3     4    15     1    112.700    488.273
    1     2    16     1    120.000    418.400
    2    16    17     1    107.000   1004.160
    2    16    18     1    107.000   1004.160
    2     1    19     1    109.500    292.880
    2     1    20     1    109.500    292.880
    2     1    21     1    109.500    292.880
    2     3    22     1    109.500    292.880
    2     3    23     1    109.500    292.880
    4     5    24     1    110.700    313.800
    4     5    25     1    110.700    313.800
    4     5    26     1    110.700    313.800
    9    10    27     1    109.500    292.880
   10    11    28     1    110.700    313.800
   10    11    29     1    110.700    313.800
   11    12    30     1    110.700    313.800
   11    12    31     1    110.700    313.800
   10    14    32     1    110.700    313.800
   10    14    33     1    110.700    313.800
    4    15    34     1    110.700    313.800
    4    15    35     1    110.700    313.800
   19     1    20     1    107.800    276.144
    6     4    15     1    109.500    418.400
    5     4     6     1    109.500    418.400
    8     7     9     1    123.400    694.544
   11    10    27     1    110.700    313.800
   24     5    26     1    107.800    276.144
   13    12    31     1    109.500    292.880
   11    10    14     1    112.700    488.273
   13    14    33     1    109.500    292.880
   13    14    32     1    109.500    292.880
    4     3    22     1    110.700    313.800
   28    11    29     1    107.800    276.144
    2    16    15     1    103.000    836.800
   14    10    27     1    110.700    313.800
   17    16    18     1    119.000    870.272
    4     3    23     1    110.700    313.800
    3     2    16     1    120.000    418.400
   32    14    33     1    107.800    276.144
   30    12    31     1    107.800    276.144
   24     5    25     1    107.800    276.144
   34    15    35     1    107.800    276.144
   13    12    30     1    109.500    292.880
   25     5    26     1    107.800    276.144
    5     4    15     1    112.700    488.273
   22     3    23     1    107.800    276.144
   19     1    21     1    107.800    276.144
   16    15    35     1    109.500    292.880
   15    16    18     1    108.900    619.232
   15    16    17     1    108.900    619.232
   10    14    13     1    109.500    418.400
   12    11    28     1    110.700    313.800
   16    15    34     1    109.500    292.880
   20     1    21     1    107.800    276.144
   12    13    14     1    109.500    502.080
   12    11    29     1    110.700    313.800
    4    15    16     1    108.600    418.400

[ dihedrals ]
; IMPROPER DIHEDRAL ANGLES 
;  ai    aj    ak    al funct            c0            c1            c2            c3            c4            c5
     9     7     6     8    4        180.000     43.932     2  
    16     2     1     3    4        180.000     10.460     2  

[ dihedrals ]
; PROPER DIHEDRAL ANGLES
;  ai    aj    ak    al funct            c0            c1            c2            c3            c4            c5
    7    6    4    5        3      -2.197   5.201   0.527  -3.531  -0.000   0.000
    7    6    4    3        3      -2.197   5.201   0.527  -3.531  -0.000   0.000
   14   10   11   12        3       2.301  -1.464   0.837  -1.674  -0.000   0.000
    5    4    3    2        3      -0.766   2.707   4.025  -5.966  -0.000   0.000
   15    4    3    2        3      -0.766   2.707   4.025  -5.966  -0.000   0.000
   12   11   10    9        3       2.874   0.582   2.092  -5.548  -0.000   0.000
    4    3    2    1        3       6.872  -9.943   3.071  -0.000  -0.000   0.000
   14   10    9    7        3      -2.197   5.201   0.527  -3.531  -0.000   0.000
   15    4    6    7        3      -2.197   5.201   0.527  -3.531  -0.000   0.000
   11   10    9    7        3      -2.197   5.201   0.527  -3.531  -0.000   0.000
    4   15   16    2        3       0.000   0.000   0.000  -0.000  -0.000   0.000
   10    9    7    8        3      21.439   0.000  -21.439  -0.000  -0.000   0.000
   10    9    7    6        3      31.206  -9.768  -21.439  -0.000  -0.000   0.000
   12   13   14   10        3       1.715   2.845   1.046  -5.607  -0.000   0.000
   14   13   12   11        3       1.715   2.845   1.046  -5.607  -0.000   0.000
   15   16    2    3        3      -2.897  11.182  12.410  -20.694  -0.000   0.000
   15   16    2    1        3      -2.897  11.182  12.410  -20.694  -0.000   0.000
   22    3    4    5        3       0.628   1.883   0.000  -2.510  -0.000   0.000
   31   12   11   10        3       0.628   1.883   0.000  -2.510  -0.000   0.000
   23    3    4   15        3       0.628   1.883   0.000  -2.510  -0.000   0.000
   32   14   10   11        3       0.628   1.883   0.000  -2.510  -0.000   0.000
   35   15    4    3        3       0.628   1.883   0.000  -2.510  -0.000   0.000
   23    3    4    5        3       0.628   1.883   0.000  -2.510  -0.000   0.000
   26    5    4    3        3       0.628   1.883   0.000  -2.510  -0.000   0.000
   24    5    4   15        3       0.628   1.883   0.000  -2.510  -0.000   0.000
   26    5    4   15        3       0.628   1.883   0.000  -2.510  -0.000   0.000
   33   14   10   11        3       0.628   1.883   0.000  -2.510  -0.000   0.000
   35   15    4    5        3       0.628   1.883   0.000  -2.510  -0.000   0.000
   30   12   11   10        3       0.628   1.883   0.000  -2.510  -0.000   0.000
   28   11   10   14        3       0.628   1.883   0.000  -2.510  -0.000   0.000
   25    5    4   15        3       0.628   1.883   0.000  -2.510  -0.000   0.000
   34   15    4    3        3       0.628   1.883   0.000  -2.510  -0.000   0.000
   34   15    4    5        3       0.628   1.883   0.000  -2.510  -0.000   0.000
   22    3    4   15        3       0.628   1.883   0.000  -2.510  -0.000   0.000
   27   10   11   12        3       0.628   1.883   0.000  -2.510  -0.000   0.000
   25    5    4    3        3       0.628   1.883   0.000  -2.510  -0.000   0.000
   24    5    4    3        3       0.628   1.883   0.000  -2.510  -0.000   0.000
   29   11   10   14        3       0.628   1.883   0.000  -2.510  -0.000   0.000
   29   11   10   27        3       0.628   1.883   0.000  -2.510  -0.000   0.000
   30   12   11   28        3       0.628   1.883   0.000  -2.510  -0.000   0.000
   28   11   10   27        3       0.628   1.883   0.000  -2.510  -0.000   0.000
   31   12   11   28        3       0.628   1.883   0.000  -2.510  -0.000   0.000
   30   12   11   29        3       0.628   1.883   0.000  -2.510  -0.000   0.000
   32   14   10   27        3       0.628   1.883   0.000  -2.510  -0.000   0.000
   31   12   11   29        3       0.628   1.883   0.000  -2.510  -0.000   0.000
   33   14   10   27        3       0.628   1.883   0.000  -2.510  -0.000   0.000
   29   11   10    9        3       0.979   2.937   0.000  -3.916  -0.000   0.000
   29   11   12   13        3       0.979   2.937   0.000  -3.916  -0.000   0.000
   32   14   10    9        3       0.979   2.937   0.000  -3.916  -0.000   0.000
   35   15    4    6        3       0.979   2.937   0.000  -3.916  -0.000   0.000
   23    3    4    6        3       0.979   2.937   0.000  -3.916  -0.000   0.000
   26    5    4    6        3       0.979   2.937   0.000  -3.916  -0.000   0.000
   28   11   10    9        3       0.979   2.937   0.000  -3.916  -0.000   0.000
   28   11   12   13        3       0.979   2.937   0.000  -3.916  -0.000   0.000
   34   15    4    6        3       0.979   2.937   0.000  -3.916  -0.000   0.000
   25    5    4    6        3       0.979   2.937   0.000  -3.916  -0.000   0.000
   24    5    4    6        3       0.979   2.937   0.000  -3.916  -0.000   0.000
   27   10   14   13        3       0.979   2.937   0.000  -3.916  -0.000   0.000
   22    3    4    6        3       0.979   2.937   0.000  -3.916  -0.000   0.000
   33   14   10    9        3       0.979   2.937   0.000  -3.916  -0.000   0.000
   20    1    2    3        3       0.000   0.000   0.000  -0.000  -0.000   0.000
   22    3    2    1        3       0.000   0.000   0.000  -0.000  -0.000   0.000
   19    1    2    3        3       0.000   0.000   0.000  -0.000  -0.000   0.000
   23    3    2    1        3       0.000   0.000   0.000  -0.000  -0.000   0.000
   21    1    2    3        3       0.000   0.000   0.000  -0.000  -0.000   0.000
   20    1    2   16        3      -2.935  -1.914   6.096  -1.247  -0.000   0.000
   23    3    2   16        3      -2.935  -1.914   6.096  -1.247  -0.000   0.000
   22    3    2   16        3      -2.935  -1.914   6.096  -1.247  -0.000   0.000
   19    1    2   16        3      -2.935  -1.914   6.096  -1.247  -0.000   0.000
   21    1    2   16        3      -2.935  -1.914   6.096  -1.247  -0.000   0.000
   27   10    9    7        3       0.414   1.243   0.000  -1.657  -0.000   0.000
   31   12   13   14        3       1.590   4.770   0.000  -6.360  -0.000   0.000
   32   14   13   12        3       1.590   4.770   0.000  -6.360  -0.000   0.000
   30   12   13   14        3       1.590   4.770   0.000  -6.360  -0.000   0.000
   33   14   13   12        3       1.590   4.770   0.000  -6.360  -0.000   0.000
   35   15   16    2        3       0.000   0.000   0.000  -0.000  -0.000   0.000
   34   15   16    2        3       0.000   0.000   0.000  -0.000  -0.000   0.000
   34   15   16   17        3       0.732   2.197   0.000  -2.929  -0.000   0.000
   34   15   16   18        3       0.732   2.197   0.000  -2.929  -0.000   0.000
   35   15   16   18        3       0.732   2.197   0.000  -2.929  -0.000   0.000
   35   15   16   17        3       0.732   2.197   0.000  -2.929  -0.000   0.000
    8    7    6    4        3      21.439   0.000  -21.439  -0.000  -0.000   0.000
    9    7    6    4        3      31.206  -9.768  -21.439  -0.000  -0.000   0.000
   13   14   10   11        3       2.874   0.582   2.092  -5.548  -0.000   0.000
   13   12   11   10        3       2.874   0.582   2.092  -5.548  -0.000   0.000
    6    4    3    2        3      11.247  -0.397   6.138  -16.987  -0.000   0.000
   13   14   10    9        3      -1.151   1.151   0.000  -0.000  -0.000   0.000
   18   16   15    4        3       0.000   0.000   0.000  -0.000  -0.000   0.000
   17   16   15    4        3       0.000   0.000   0.000  -0.000  -0.000   0.000
   17   16    2    3        3       0.000   0.000   0.000  -0.000  -0.000   0.000
   18   16    2    3        3       0.000   0.000   0.000  -0.000  -0.000   0.000
   18   16    2    1        3       0.000   0.000   0.000  -0.000  -0.000   0.000
   17   16    2    1        3       0.000   0.000   0.000  -0.000  -0.000   0.000
   16   15    4    5        3       2.784   0.278   0.828  -3.891  -0.000   0.000
   16   15    4    3        3       2.784   0.278   0.828  -3.891  -0.000   0.000
   16   15    4    6        3       0.979   2.937   0.000  -3.916  -0.000   0.000
   16    2    3    4        3      -3.431  -3.008  10.598  -4.159  -0.000   0.000

[ pairs ]
     1     4    1
     2     5    1
     2     6    1
     3     7    1
     5     7    1
     4     8    1
     4     9    1
     6    10    1
     1    15    1
     8    10    1
     7    11    1
     1    17    1
     1    18    1
     3    17    1
     9    12    1
     7    14    1
     5    16    1
     4    17    1
     3    18    1
     9    13    1
     7    15    1
     6    16    1
     4    18    1
     3    19    1
     3    20    1
     1    22    1
     3    21    1
     1    23    1
     5    22    1
     3    24    1
     6    22    1
     5    23    1
     3    25    1
     6    23    1
     3    26    1
     6    24    1
     6    25    1
     6    26    1
     7    27    1
    16    19    1
    16    20    1
     2    34    1
    16    21    1
    15    22    1
     9    28    1
     3    34    1
     2    35    1
    16    22    1
    15    23    1
     9    29    1
     3    35    1
    16    23    1
    15    24    1
    12    27    1
     5    34    1
    15    25    1
    13    27    1
    10    30    1
     6    34    1
     5    35    1
    15    26    1
    13    28    1
    10    31    1
     9    32    1
     6    35    1
    14    28    1
    13    29    1
     9    33    1
    14    29    1
    11    32    1
    14    30    1
    12    32    1
    11    33    1
    14    31    1
    12    33    1
    17    34    1
    18    34    1
    17    35    1
    18    35    1
    27    28    1
    27    29    1
    28    30    1
    29    30    1
    28    31    1
    27    32    1
    29    31    1
    27    33    1

