LIGPARGEN GENERATED GRO FILE
   39
    1UNK    C00    1   0.100   0.100   0.000
    1UNK    C01    2  -0.052   0.100   0.000
    1UNK    C02    3  -0.110   0.100   0.142
    1UNK    C03    4  -0.263   0.100   0.134
    1UNK    C04    5  -0.330   0.100   0.272
    1UNK    C05    6  -0.486   0.100   0.269
    1UNK    C06    7  -0.537   0.225   0.194
    1UNK    C07    8  -0.537  -0.026   0.198
    1UNK    C08    9  -0.537   0.103   0.417
    1UNK    C09   10  -0.690   0.104   0.435
    1UNK    C0A   11  -0.738   0.107   0.581
    1UNK    C0B   12  -0.690   0.231   0.656
    1UNK    C0C   13  -0.886   0.102   0.584
    1UNK    N0D   14  -1.001   0.098   0.586
    1UNK    H0E   15   0.137   0.100  -0.103
    1UNK    H0F   16   0.139   0.011   0.051
    1UNK    H0G   17   0.139   0.189   0.050
    1UNK    H0H   18  -0.087   0.012  -0.055
    1UNK    H0I   19  -0.087   0.188  -0.055
    1UNK    H0J   20  -0.075   0.188   0.196
    1UNK    H0K   21  -0.075   0.012   0.196
    1UNK    H0M   22  -0.294   0.012   0.078
    1UNK    H0N   23  -0.294   0.189   0.078
    1UNK    H0O   24  -0.295   0.189   0.328
    1UNK    H0P   25  -0.295   0.013   0.329
    1UNK    H0Q   26  -0.503   0.226   0.090
    1UNK    H0R   27  -0.502   0.317   0.242
    1UNK    H0S   28  -0.647   0.228   0.189
    1UNK    H0T   29  -0.503  -0.031   0.094
    1UNK    H0U   30  -0.647  -0.030   0.194
    1UNK    H0V   31  -0.502  -0.117   0.249
    1UNK    H0W   32  -0.495   0.193   0.465
    1UNK    H0X   33  -0.496   0.017   0.471
    1UNK    H0Y   34  -0.732   0.014   0.387
    1UNK    H0Z   35  -0.733   0.190   0.382
    1UNK    H10   36  -0.699   0.018   0.633
    1UNK    H11   37  -0.717   0.323   0.603
    1UNK    H12   38  -0.581   0.231   0.669
    1UNK    H13   39  -0.734   0.237   0.756
   1.00000   1.00000   1.00000

