LIGPARGEN GENERATED GRO FILE
   32
    1UNK    C00    1   0.100   0.100   0.000
    1UNK    C01    2  -0.052   0.100   0.000
    1UNK    F02    3  -0.092   0.100   0.131
    1UNK    C03    4  -0.116   0.222  -0.069
    1UNK    C04    5  -0.073   0.233  -0.216
    1UNK    C05    6  -0.270   0.214  -0.055
    1UNK    C06    7  -0.344   0.334  -0.115
    1UNK    C07    8  -0.495   0.323  -0.093
    1UNK    C08    9  -0.568   0.444  -0.153
    1UNK    C09   10  -0.719   0.436  -0.132
    1UNK    C0A   11  -0.792   0.554  -0.192
    1UNK    F0B   12  -0.766   0.322  -0.189
    1UNK    F0C   13  -0.746   0.429   0.000
    1UNK    H0D   14   0.137   0.018   0.062
    1UNK    H0E   15   0.139   0.193   0.043
    1UNK    H0F   16   0.141   0.088  -0.100
    1UNK    H0G   17  -0.089   0.007  -0.045
    1UNK    H0H   18  -0.083   0.312  -0.017
    1UNK    H0I   19  -0.108   0.147  -0.274
    1UNK    H0J   20   0.036   0.238  -0.226
    1UNK    H0K   21  -0.112   0.324  -0.263
    1UNK    H0M   22  -0.295   0.207   0.051
    1UNK    H0N   23  -0.306   0.122  -0.103
    1UNK    H0O   24  -0.326   0.339  -0.223
    1UNK    H0P   25  -0.306   0.426  -0.070
    1UNK    H0Q   26  -0.517   0.317   0.015
    1UNK    H0R   27  -0.533   0.231  -0.138
    1UNK    H0S   28  -0.546   0.448  -0.260
    1UNK    H0T   29  -0.529   0.535  -0.107
    1UNK    H0U   30  -0.779   0.558  -0.300
    1UNK    H0V   31  -0.757   0.648  -0.148
    1UNK    H0W   32  -0.899   0.546  -0.172
   1.00000   1.00000   1.00000

