LIGPARGEN GENERATED GRO FILE
   44
    1UNK    C00    1   0.100   0.100   0.000
    1UNK    C01    2  -0.052   0.100   0.000
    1UNK    C02    3  -0.106   0.100   0.143
    1UNK    C03    4  -0.259   0.100   0.146
    1UNK    C04    5  -0.309   0.100   0.290
    1UNK    C05    6  -0.462   0.100   0.295
    1UNK    C06    7  -0.519   0.094   0.438
    1UNK    C07    8  -0.476   0.215   0.521
    1UNK    C08    9  -0.674   0.087   0.436
    1UNK    C09   10  -0.728  -0.039   0.368
    1UNK    C0A   11  -0.882  -0.049   0.365
    1UNK    C0B   12  -0.945   0.068   0.288
    1UNK    S0C   13  -0.927  -0.208   0.290
    1UNK    C0D   14  -1.105  -0.211   0.290
    1UNK    O0E   15  -0.884  -0.208   0.151
    1UNK    O0F   16  -0.883  -0.313   0.381
    1UNK    H0G   17   0.138   0.100  -0.103
    1UNK    H0H   18   0.139   0.011   0.051
    1UNK    H0I   19   0.139   0.189   0.051
    1UNK    H0J   20  -0.088   0.012  -0.054
    1UNK    H0K   21  -0.088   0.188  -0.054
    1UNK    H0M   22  -0.068   0.188   0.196
    1UNK    H0N   23  -0.069   0.012   0.196
    1UNK    H0O   24  -0.297   0.012   0.093
    1UNK    H0P   25  -0.297   0.189   0.093
    1UNK    H0Q   26  -0.269   0.189   0.341
    1UNK    H0R   27  -0.271   0.012   0.343
    1UNK    H0S   28  -0.496   0.014   0.238
    1UNK    H0T   29  -0.500   0.189   0.244
    1UNK    H0U   30  -0.481   0.004   0.488
    1UNK    H0V   31  -0.508   0.309   0.474
    1UNK    H0W   32  -0.368   0.219   0.534
    1UNK    H0X   33  -0.520   0.212   0.622
    1UNK    H0Y   34  -0.712   0.177   0.386
    1UNK    H0Z   35  -0.711   0.090   0.539
    1UNK    H10   36  -0.687  -0.127   0.420
    1UNK    H11   37  -0.692  -0.045   0.265
    1UNK    H12   38  -0.921  -0.051   0.467
    1UNK    H13   39  -0.906   0.073   0.186
    1UNK    H14   40  -0.925   0.163   0.338
    1UNK    H15   41  -1.053   0.058   0.283
    1UNK    H16   42  -1.142  -0.135   0.222
    1UNK    H17   43  -1.140  -0.194   0.392
    1UNK    H18   44  -1.136  -0.309   0.256
   1.00000   1.00000   1.00000

