LIGPARGEN GENERATED GRO FILE
   22
    1UNK    C00    1   0.100   0.100   0.000
    1UNK    C01    2  -0.053   0.100   0.000
    1UNK    C02    3  -0.118   0.100   0.139
    1UNK    C03    4  -0.075  -0.024   0.217
    1UNK    N04    5  -0.039  -0.126   0.281
    1UNK    C05    6  -0.082   0.225   0.219
    1UNK    C06    7  -0.123   0.363   0.161
    1UNK    C07    8  -0.152   0.408   0.306
    1UNK    C08    9  -0.175   0.259   0.339
    1UNK    H09   10   0.137   0.095  -0.103
    1UNK    H0A   11   0.141   0.013   0.053
    1UNK    H0B   12   0.140   0.191   0.045
    1UNK    H0C   13  -0.087   0.011  -0.055
    1UNK    H0D   14  -0.087   0.187  -0.057
    1UNK    H0E   15  -0.227   0.095   0.125
    1UNK    H0F   16   0.024   0.225   0.250
    1UNK    H0G   17  -0.211   0.362   0.097
    1UNK    H0H   18  -0.043   0.419   0.111
    1UNK    H0I   19  -0.238   0.473   0.319
    1UNK    H0J   20  -0.065   0.451   0.357
    1UNK    H0K   21  -0.279   0.227   0.326
    1UNK    H0M   22  -0.140   0.226   0.437
   1.00000   1.00000   1.00000

