
;
; GENERATED BY LigParGen Server
; Jorgensen Lab @ Yale University 
;
[ atomtypes ]
  opls_818  H818     1.0080     0.000    A    2.50000E-01   1.25520E-01
  opls_815  C815    12.0110     0.000    A    3.30000E-01   2.76144E-01
  opls_824  H824     1.0080     0.000    A    2.50000E-01   1.25520E-01
  opls_807  S807    32.0600     0.000    A    3.55000E-01   1.04600E+00
  opls_805  C805    12.0110     0.000    A    3.50000E-01   2.76144E-01
  opls_828  H828     1.0080     0.000    A    2.50000E-01   1.25520E-01
  opls_812  O812    15.9990     0.000    A    2.90000E-01   5.85760E-01
  opls_806  C806    12.0110     0.000    A    3.50000E-01   2.76144E-01
  opls_827  H827     1.0080     0.000    A    2.50000E-01   1.25520E-01
  opls_802  C802    12.0110     0.000    A    3.45000E-01   3.47272E-01
  opls_830  H830     1.0080     0.000    A    2.50000E-01   1.25520E-01
  opls_822  H822     1.0080     0.000    A    2.50000E-01   1.25520E-01
  opls_803  C803    12.0110     0.000    A    3.50000E-01   2.76144E-01
  opls_825  H825     1.0080     0.000    A    2.50000E-01   1.25520E-01
  opls_826  H826     1.0080     0.000    A    2.50000E-01   1.25520E-01
  opls_809  O809    15.9990     0.000    A    2.96000E-01   7.11280E-01
  opls_821  H821     1.0080     0.000    A    2.50000E-01   1.25520E-01
  opls_820  H820     1.0080     0.000    A    2.50000E-01   1.25520E-01
  opls_813  C813    12.0110     0.000    A    3.55000E-01   2.92880E-01
  opls_829  H829     1.0080     0.000    A    2.50000E-01   1.25520E-01
  opls_831  H831     1.0080     0.000    A    2.50000E-01   1.25520E-01
  opls_800  C800    12.0110     0.000    A    3.50000E-01   2.76144E-01
  opls_823  H823     1.0080     0.000    A    2.50000E-01   1.25520E-01
  opls_811  C811    12.0110     0.000    A    3.45000E-01   3.47272E-01
  opls_816  N816    14.0070     0.000    A    3.20000E-01   7.11280E-01
  opls_819  H819     1.0080     0.000    A    2.50000E-01   1.25520E-01
  opls_804  C804    12.0110     0.000    A    3.50000E-01   2.76144E-01
  opls_808  C808    12.0110     0.000    A    3.50000E-01   2.76144E-01
  opls_810  O810    15.9990     0.000    A    2.96000E-01   7.11280E-01
  opls_817  H817     1.0080     0.000    A    2.50000E-01   1.25520E-01
  opls_801  C801    12.0110     0.000    A    3.45000E-01   3.47272E-01
  opls_814  O814    15.9990     0.000    A    2.96000E-01   8.78640E-01
[ moleculetype ]
; Name               nrexcl
UNK                   3
[ atoms ]
;   nr       type  resnr residue  atom   cgnr     charge       mass  
     1   opls_800      1    UNK   C00      1    -0.2434    12.0110 
     2   opls_801      1    UNK   C01      1    -0.0741    12.0110 
     3   opls_802      1    UNK   C02      1    -0.1716    12.0110 
     4   opls_803      1    UNK   C03      1    -0.1486    12.0110 
     5   opls_804      1    UNK   C04      1    -0.1667    12.0110 
     6   opls_805      1    UNK   C05      1    -0.1488    12.0110 
     7   opls_806      1    UNK   C06      1    -0.3719    12.0110 
     8   opls_807      1    UNK   S07      1     1.2918    32.0600 
     9   opls_808      1    UNK   C08      1    -0.5784    12.0110 
    10   opls_809      1    UNK   O09      1    -0.5619    15.9990 
    11   opls_810      1    UNK   O0A      1    -0.5619    15.9990 
    12   opls_811      1    UNK   C0B      1     0.0167    12.0110 
    13   opls_812      1    UNK   O0C      1    -0.2998    15.9990 
    14   opls_813      1    UNK   C0D      1     0.5695    12.0110 
    15   opls_814      1    UNK   O0E      1    -0.3868    15.9990 
    16   opls_815      1    UNK   C0F      1     0.1371    12.0110 
    17   opls_816      1    UNK   N0G      1    -0.2612    14.0070 
    18   opls_817      1    UNK   H0H      1     0.1139     1.0080 
    19   opls_818      1    UNK   H0I      1     0.1139     1.0080 
    20   opls_819      1    UNK   H0J      1     0.1139     1.0080 
    21   opls_820      1    UNK   H0K      1     0.1495     1.0080 
    22   opls_821      1    UNK   H0M      1     0.1044     1.0080 
    23   opls_822      1    UNK   H0N      1     0.1044     1.0080 
    24   opls_823      1    UNK   H0O      1      0.095     1.0080 
    25   opls_824      1    UNK   H0P      1      0.095     1.0080 
    26   opls_825      1    UNK   H0Q      1     0.1087     1.0080 
    27   opls_826      1    UNK   H0R      1     0.1087     1.0080 
    28   opls_827      1    UNK   H0S      1      0.171     1.0080 
    29   opls_828      1    UNK   H0T      1     0.1662     1.0080 
    30   opls_829      1    UNK   H0U      1     0.1662     1.0080 
    31   opls_830      1    UNK   H0V      1     0.1662     1.0080 
    32   opls_831      1    UNK   H0W      1     0.1831     1.0080 
[ bonds ]
    2     1     1      0.1510 234304.000
    3     2     1      0.1520 217568.000
    4     3     1      0.1510 234304.000
    5     4     1      0.1529 224262.400
    6     5     1      0.1529 224262.400
    7     2     1      0.1510 234304.000
    8     7     1      0.1770 284512.000
    9     8     1      0.1770 284512.000
   10     8     1      0.1440 585760.000
   11     8     1      0.1440 585760.000
   12     2     1      0.1520 217568.000
   13    12     1      0.1410 267776.000
   14    13     1      0.1327 179075.200
   15    14     1      0.1229 476976.000
   16    14     1      0.1444 334720.000
   17    16     1      0.1157 543920.000
   18     1     1      0.1090 284512.000
   19     1     1      0.1090 284512.000
   20     1     1      0.1090 284512.000
   21     3     1      0.1088 284512.000
   22     4     1      0.1090 284512.000
   23     4     1      0.1090 284512.000
   24     5     1      0.1090 284512.000
   25     5     1      0.1090 284512.000
   26     6     1      0.1090 284512.000
   27     6     1      0.1090 284512.000
   28     7     1      0.1090 284512.000
   29     9     1      0.1090 284512.000
   30     9     1      0.1090 284512.000
   31     9     1      0.1090 284512.000
   32    12     1      0.1088 284512.000
   12     3     1      0.1520 217568.000
    7     6     1      0.1529 224262.400

[ angles ]
;  ai    aj    ak funct            c0            c1            c2            c3 
    1     2     3     1    117.200    313.800
    2     3     4     1    117.200    313.800
    3     4     5     1    112.700    488.273
    4     5     6     1    112.700    488.273
    1     2     7     1    114.300    292.880
    2     7     8     1    108.600    418.400
    7     8     9     1    102.000    518.816
    7     8    10     1    108.900    619.232
    7     8    11     1    108.900    619.232
    1     2    12     1    117.200    313.800
    2    12    13     1    109.500    418.400
   12    13    14     1    116.900    694.544
   13    14    15     1    123.400    694.544
   13    14    16     1    118.180    584.923
   14    16    17     1    156.000    924.413
    2     1    18     1    110.700    313.800
    2     1    19     1    110.700    313.800
    2     1    20     1    110.700    313.800
    2     3    21     1    117.200    313.800
    3     4    22     1    110.700    313.800
    3     4    23     1    110.700    313.800
    4     5    24     1    110.700    313.800
    4     5    25     1    110.700    313.800
    5     6    26     1    110.700    313.800
    5     6    27     1    110.700    313.800
    2     7    28     1    110.700    313.800
    8     9    29     1    109.500    292.880
    8     9    30     1    109.500    292.880
    8     9    31     1    109.500    292.880
    2    12    32     1    117.200    313.800
    5     4    22     1    110.700    313.800
   29     9    30     1    107.800    276.144
    6     5    24     1    110.700    313.800
    7     2    12     1    117.200    313.800
   13    12    32     1    109.500    292.880
   30     9    31     1    107.800    276.144
    2    12     3     1     83.000    251.040
   29     9    31     1    107.800    276.144
    3    12    32     1    117.200    313.800
    2     7     6     1    112.700    488.273
    7     6    26     1    110.700    313.800
   10     8    11     1    119.000    870.272
    5     6     7     1    112.700    488.273
    3    12    13     1    109.500    418.400
    6     7     8     1    108.600    418.400
    5     4    23     1    110.700    313.800
   26     6    27     1    107.800    276.144
   24     5    25     1    107.800    276.144
   15    14    16     1    118.180    584.923
    8     7    28     1    109.500    292.880
    2     3    12     1     83.000    251.040
   18     1    19     1    107.800    276.144
    3     2    12     1     83.000    251.040
    4     3    21     1    114.300    292.880
    6     7    28     1    110.700    313.800
   22     4    23     1    107.800    276.144
    9     8    11     1    108.900    619.232
   18     1    20     1    107.800    276.144
    4     3    12     1    117.200    313.800
    6     5    25     1    110.700    313.800
    3     2     7     1    117.200    313.800
   19     1    20     1    107.800    276.144
   12     3    21     1    117.200    313.800
    7     6    27     1    110.700    313.800
    9     8    10     1    108.900    619.232

[ dihedrals ]
; IMPROPER DIHEDRAL ANGLES 
;  ai    aj    ak    al funct            c0            c1            c2            c3            c4            c5
    16    14    13    15    4        180.000     43.932     2  

[ dihedrals ]
; PROPER DIHEDRAL ANGLES
;  ai    aj    ak    al funct            c0            c1            c2            c3            c4            c5
   14   13   12    2        3      -2.197   5.201   0.527  -3.531  -0.000   0.000
   14   13   12    3        3      -2.197   5.201   0.527  -3.531  -0.000   0.000
    7    6    5    4        3       2.301  -1.464   0.837  -1.674  -0.000   0.000
    6    5    4    3        3       2.301  -1.464   0.837  -1.674  -0.000   0.000
    5    6    7    2        3       2.301  -1.464   0.837  -1.674  -0.000   0.000
    6    7    2    1        3       2.301  -1.464   0.837  -1.674  -0.000   0.000
    5    4    3    2        3       0.000   0.000   0.000  -0.000  -0.000   0.000
    6    7    2    3        3       0.000   0.000   0.000  -0.000  -0.000   0.000
    7    2    3    4        3       0.000   0.000   0.000  -0.000  -0.000   0.000
    4    3    2    1        3       0.000   0.000   0.000  -0.000  -0.000   0.000
    4    3   12    2        3       0.000   0.000   0.000  -0.000  -0.000   0.000
    7    2   12    3        3       0.000   0.000   0.000  -0.000  -0.000   0.000
    9    8    7    6        3       0.000   0.000   0.000  -0.000  -0.000   0.000
    9    8    7    2        3       0.000   0.000   0.000  -0.000  -0.000   0.000
   12    3    4    5        3       0.000   0.000   0.000  -0.000  -0.000   0.000
   12    2    7    6        3       0.000   0.000   0.000  -0.000  -0.000   0.000
   12    2    1    3        3       0.000   0.000   0.000  -0.000  -0.000   0.000
   12    2    7    8        3       2.784   0.278   0.828  -3.891  -0.000   0.000
   16   14   13   12        3      31.206  -9.768  -21.439  -0.000  -0.000   0.000
   24    5    6    7        3       0.628   1.883   0.000  -2.510  -0.000   0.000
   25    5    6    7        3       0.628   1.883   0.000  -2.510  -0.000   0.000
   23    4    5    6        3       0.628   1.883   0.000  -2.510  -0.000   0.000
   26    6    5    4        3       0.628   1.883   0.000  -2.510  -0.000   0.000
   28    7    6    5        3       0.628   1.883   0.000  -2.510  -0.000   0.000
   22    4    5    6        3       0.628   1.883   0.000  -2.510  -0.000   0.000
   27    6    5    4        3       0.628   1.883   0.000  -2.510  -0.000   0.000
   27    6    7    2        3       0.628   1.883   0.000  -2.510  -0.000   0.000
   24    5    4    3        3       0.628   1.883   0.000  -2.510  -0.000   0.000
   26    6    7    2        3       0.628   1.883   0.000  -2.510  -0.000   0.000
   25    5    4    3        3       0.628   1.883   0.000  -2.510  -0.000   0.000
   26    6    5   24        3       0.628   1.883   0.000  -2.510  -0.000   0.000
   27    6    5   25        3       0.628   1.883   0.000  -2.510  -0.000   0.000
   26    6    5   25        3       0.628   1.883   0.000  -2.510  -0.000   0.000
   28    7    6   27        3       0.628   1.883   0.000  -2.510  -0.000   0.000
   24    5    4   22        3       0.628   1.883   0.000  -2.510  -0.000   0.000
   25    5    4   22        3       0.628   1.883   0.000  -2.510  -0.000   0.000
   24    5    4   23        3       0.628   1.883   0.000  -2.510  -0.000   0.000
   25    5    4   23        3       0.628   1.883   0.000  -2.510  -0.000   0.000
   27    6    5   24        3       0.628   1.883   0.000  -2.510  -0.000   0.000
   28    7    6   26        3       0.628   1.883   0.000  -2.510  -0.000   0.000
   26    6    7    8        3       0.946   2.837   0.000  -3.782  -0.000   0.000
   27    6    7    8        3       0.946   2.837   0.000  -3.782  -0.000   0.000
   19    1    2    7        3       0.628   1.883   0.000  -2.510  -0.000   0.000
   28    7    2    1        3       0.628   1.883   0.000  -2.510  -0.000   0.000
   18    1    2    7        3       0.628   1.883   0.000  -2.510  -0.000   0.000
   20    1    2    7        3       0.628   1.883   0.000  -2.510  -0.000   0.000
   23    4    3    2        3       0.628   1.883   0.000  -2.510  -0.000   0.000
   19    1    2   12        3       0.628   1.883   0.000  -2.510  -0.000   0.000
   18    1    2   12        3       0.628   1.883   0.000  -2.510  -0.000   0.000
   20    1    2    3        3       0.628   1.883   0.000  -2.510  -0.000   0.000
   22    4    3    2        3       0.628   1.883   0.000  -2.510  -0.000   0.000
   18    1    2    3        3       0.628   1.883   0.000  -2.510  -0.000   0.000
   28    7    2    3        3       0.628   1.883   0.000  -2.510  -0.000   0.000
   19    1    2    3        3       0.628   1.883   0.000  -2.510  -0.000   0.000
   22    4    3   12        3       0.628   1.883   0.000  -2.510  -0.000   0.000
   28    7    2   12        3       0.628   1.883   0.000  -2.510  -0.000   0.000
   23    4    3   12        3       0.628   1.883   0.000  -2.510  -0.000   0.000
   20    1    2   12        3       0.628   1.883   0.000  -2.510  -0.000   0.000
   23    4    3   21        3       0.628   1.883   0.000  -2.510  -0.000   0.000
   22    4    3   21        3       0.628   1.883   0.000  -2.510  -0.000   0.000
   28    7    8    9        3       0.732   2.197   0.000  -2.929  -0.000   0.000
   30    9    8    7        3       0.732   2.197   0.000  -2.929  -0.000   0.000
   29    9    8    7        3       0.732   2.197   0.000  -2.929  -0.000   0.000
   31    9    8    7        3       0.732   2.197   0.000  -2.929  -0.000   0.000
   29    9    8   10        3       0.732   2.197   0.000  -2.929  -0.000   0.000
   31    9    8   11        3       0.732   2.197   0.000  -2.929  -0.000   0.000
   30    9    8   11        3       0.732   2.197   0.000  -2.929  -0.000   0.000
   29    9    8   11        3       0.732   2.197   0.000  -2.929  -0.000   0.000
   31    9    8   10        3       0.732   2.197   0.000  -2.929  -0.000   0.000
   30    9    8   10        3       0.732   2.197   0.000  -2.929  -0.000   0.000
   28    7    8   10        3       0.732   2.197   0.000  -2.929  -0.000   0.000
   28    7    8   11        3       0.732   2.197   0.000  -2.929  -0.000   0.000
   21    3    4    5        3       0.628   1.883   0.000  -2.510  -0.000   0.000
   32   12    2    1        3       0.000   0.000   0.000  -0.000  -0.000   0.000
   21    3    2    1        3       0.000   0.000   0.000  -0.000  -0.000   0.000
   32   12    2    7        3       0.000   0.000   0.000  -0.000  -0.000   0.000
   32   12    3    4        3       0.000   0.000   0.000  -0.000  -0.000   0.000
   21    3    2    7        3       0.000   0.000   0.000  -0.000  -0.000   0.000
   32   12    2    3        3       0.000   0.000   0.000  -0.000  -0.000   0.000
   21    3   12    2        3       0.000   0.000   0.000  -0.000  -0.000   0.000
   32   12    3    2        3       0.000   0.000   0.000  -0.000  -0.000   0.000
   21    3    2   12        3       0.000   0.000   0.000  -0.000  -0.000   0.000
   32   12    3   21        3       0.000   0.000   0.000  -0.000  -0.000   0.000
   21    3   12   13        3       0.000   0.000   0.000  -0.000  -0.000   0.000
   32   12   13   14        3       0.414   1.243   0.000  -1.657  -0.000   0.000
   17   16   14   15        3       0.000   0.000   0.000  -0.000  -0.000   0.000
   17   16   14   13        3       0.000   0.000   0.000  -0.000  -0.000   0.000
   15   14   13   12        3      21.439   0.000  -21.439  -0.000  -0.000   0.000
   13   12    2    1        3       0.000   0.000   0.000  -0.000  -0.000   0.000
   13   12    3    4        3       0.000   0.000   0.000  -0.000  -0.000   0.000
   13   12    2    7        3       0.000   0.000   0.000  -0.000  -0.000   0.000
   13   12    2    3        3       0.000   0.000   0.000  -0.000  -0.000   0.000
   13   12    3    2        3       0.000   0.000   0.000  -0.000  -0.000   0.000
   10    8    7    6        3       0.000   0.000   0.000  -0.000  -0.000   0.000
   11    8    7    6        3       0.000   0.000   0.000  -0.000  -0.000   0.000
   10    8    7    2        3       0.000   0.000   0.000  -0.000  -0.000   0.000
   11    8    7    2        3       0.000   0.000   0.000  -0.000  -0.000   0.000
    8    7    6    5        3       2.784   0.278   0.828  -3.891  -0.000   0.000
    8    7    2    1        3       2.784   0.278   0.828  -3.891  -0.000   0.000
    8    7    2    3        3       2.784   0.278   0.828  -3.891  -0.000   0.000

[ pairs ]
     1     4    1
     2     5    1
     1     6    1
     3     6    1
     1     8    1
     4     7    1
     3     8    1
     2     9    1
     2    10    1
     5     8    1
     2    11    1
     1    13    1
     6     9    1
     6    10    1
     2    14    1
     6    11    1
     5    12    1
     4    13    1
     3    14    1
     6    12    1
     8    12    1
     7    13    1
     3    18    1
     3    19    1
     1    21    1
     3    20    1
     2    22    1
     7    18    1
     2    23    1
     7    19    1
     5    21    1
    12    15    1
     7    20    1
     3    24    1
    12    16    1
     7    21    1
     6    22    1
     3    25    1
     2    26    1
     6    23    1
     2    27    1
     1    28    1
    13    17    1
    12    18    1
     4    26    1
    12    19    1
     7    24    1
     4    27    1
     3    28    1
    15    17    1
    12    20    1
     7    25    1
     5    28    1
     1    32    1
    13    21    1
    12    22    1
     8    26    1
    12    23    1
     8    27    1
     7    29    1
     4    32    1
     9    28    1
     7    30    1
    10    28    1
     7    31    1
    11    28    1
    10    29    1
     7    32    1
    12    28    1
    11    29    1
    10    30    1
    11    30    1
    10    31    1
    11    31    1
    21    22    1
    21    23    1
    22    24    1
    14    32    1
    23    24    1
    22    25    1
    23    25    1
    24    26    1
    25    26    1
    24    27    1
    25    27    1
    21    32    1
    26    28    1
    27    28    1

