LIGPARGEN GENERATED GRO FILE
   32
    1UNK    C00    1   0.100   0.100   0.000
    1UNK    C01    2  -0.052   0.100   0.000
    1UNK    C02    3  -0.132   0.100   0.132
    1UNK    C03    4  -0.274   0.051   0.132
    1UNK    C04    5  -0.288  -0.085   0.065
    1UNK    C05    6  -0.177  -0.113  -0.037
    1UNK    C06    7  -0.129   0.016  -0.105
    1UNK    S07    8  -0.031  -0.020  -0.251
    1UNK    C08    9  -0.145  -0.100  -0.361
    1UNK    O09   10   0.006   0.107  -0.313
    1UNK    O0A   11   0.070  -0.120  -0.220
    1UNK    C0B   12  -0.100   0.229   0.066
    1UNK    O0C   13  -0.202   0.303  -0.002
    1UNK    C0D   14  -0.225   0.429   0.047
    1UNK    O0E   15  -0.173   0.479   0.146
    1UNK    C0F   16  -0.322   0.501  -0.033
    1UNK    N0G   17  -0.399   0.559  -0.098
    1UNK    H0H   18   0.148   0.020  -0.055
    1UNK    H0I   19   0.139   0.095   0.102
    1UNK    H0J   20   0.135   0.194  -0.044
    1UNK    H0K   21  -0.079   0.071   0.222
    1UNK    H0M   22  -0.340   0.121   0.079
    1UNK    H0N   23  -0.313   0.047   0.235
    1UNK    H0O   24  -0.386  -0.090   0.014
    1UNK    H0P   25  -0.289  -0.165   0.140
    1UNK    H0Q   26  -0.214  -0.187  -0.109
    1UNK    H0R   27  -0.093  -0.161   0.015
    1UNK    H0S   28  -0.215   0.074  -0.142
    1UNK    H0T   29  -0.235  -0.039  -0.372
    1UNK    H0U   30  -0.170  -0.199  -0.322
    1UNK    H0V   31  -0.096  -0.112  -0.458
    1UNK    H0W   32  -0.024   0.288   0.119
   1.00000   1.00000   1.00000

