LIGPARGEN GENERATED GRO FILE
   45
    1UNK    C00    1   0.100   0.100   0.000
    1UNK    C01    2  -0.053   0.100   0.000
    1UNK    C02    3  -0.122   0.100   0.140
    1UNK    C03    4  -0.083  -0.029   0.216
    1UNK    C04    5  -0.079   0.222   0.226
    1UNK    C05    6  -0.121   0.359   0.174
    1UNK    C06    7  -0.276   0.099   0.113
    1UNK    C07    8  -0.365   0.098   0.238
    1UNK    C08    9  -0.517   0.096   0.210
    1UNK    C09   10  -0.557   0.220   0.130
    1UNK    O0A   11  -0.616   0.217   0.022
    1UNK    O0B   12  -0.519   0.334   0.195
    1UNK    C0C   13  -0.546   0.455   0.125
    1UNK    C0D   14  -0.557  -0.034   0.137
    1UNK    C0E   15  -0.707  -0.056   0.157
    1UNK    S0F   16  -0.740  -0.002   0.323
    1UNK    O0G   17  -0.729  -0.117   0.410
    1UNK    O0H   18  -0.856   0.084   0.323
    1UNK    C0I   19  -0.594   0.097   0.344
    1UNK    H0J   20   0.137   0.087  -0.102
    1UNK    H0K   21   0.141   0.018   0.060
    1UNK    H0M   22   0.140   0.195   0.037
    1UNK    H0N   23  -0.086   0.012  -0.056
    1UNK    H0O   24  -0.086   0.186  -0.058
    1UNK    H0P   25   0.025  -0.034   0.234
    1UNK    H0Q   26  -0.112  -0.118   0.159
    1UNK    H0R   27  -0.130  -0.034   0.314
    1UNK    H0S   28   0.030   0.221   0.238
    1UNK    H0T   29  -0.119   0.211   0.328
    1UNK    H0U   30  -0.089   0.375   0.070
    1UNK    H0V   31  -0.075   0.437   0.235
    1UNK    H0W   32  -0.229   0.372   0.179
    1UNK    H0X   33  -0.300   0.010   0.053
    1UNK    H0Y   34  -0.302   0.185   0.050
    1UNK    H0Z   35  -0.341   0.185   0.301
    1UNK    H10   36  -0.341   0.010   0.299
    1UNK    H11   37  -0.498   0.537   0.179
    1UNK    H12   38  -0.654   0.474   0.123
    1UNK    H13   39  -0.505   0.452   0.023
    1UNK    H14   40  -0.503  -0.119   0.180
    1UNK    H15   41  -0.534  -0.032   0.030
    1UNK    H16   42  -0.735  -0.160   0.146
    1UNK    H17   43  -0.766   0.006   0.089
    1UNK    H18   44  -0.535   0.052   0.425
    1UNK    H19   45  -0.625   0.197   0.376
   1.00000   1.00000   1.00000

