LIGPARGEN GENERATED GRO FILE
   29
    1UNK    C00    1   0.100   0.100   0.000
    1UNK    O01    2  -0.043   0.100   0.000
    1UNK    C02    3  -0.100   0.100   0.124
    1UNK    O03    4  -0.036   0.105   0.229
    1UNK    C04    5  -0.254   0.094   0.112
    1UNK    Cl0    6  -0.325   0.094   0.278
    1UNK    C06    7  -0.305   0.220   0.037
    1UNK    C07    8  -0.263   0.355   0.099
    1UNK    C08    9  -0.317   0.475   0.020
    1UNK    Cl1   10  -0.244   0.485  -0.142
    1UNK    C0A   11  -0.295  -0.038   0.036
    1UNK    C0B   12  -0.245  -0.166   0.106
    1UNK    C0C   13  -0.446  -0.051   0.012
    1UNK    H0D   14   0.134   0.072  -0.100
    1UNK    H0E   15   0.140   0.027   0.071
    1UNK    H0F   16   0.137   0.200   0.023
    1UNK    H0G   17  -0.414   0.219   0.032
    1UNK    H0H   18  -0.269   0.216  -0.067
    1UNK    H0I   19  -0.154   0.362   0.107
    1UNK    H0J   20  -0.303   0.363   0.201
    1UNK    H0K   21  -0.293   0.568   0.072
    1UNK    H0M   22  -0.425   0.469   0.008
    1UNK    H0N   23  -0.248  -0.036  -0.063
    1UNK    H0O   24  -0.293  -0.181   0.203
    1UNK    H0P   25  -0.137  -0.163   0.120
    1UNK    H0Q   26  -0.268  -0.253   0.044
    1UNK    H0R   27  -0.503  -0.052   0.105
    1UNK    H0S   28  -0.468  -0.145  -0.041
    1UNK    H0T   29  -0.484   0.029  -0.052
   1.00000   1.00000   1.00000

