
;
; GENERATED BY LigParGen Server
; Jorgensen Lab @ Yale University 
;
[ atomtypes ]
  opls_818  H818     1.0080     0.000    A    2.50000E-01   1.25520E-01
  opls_824  H824     1.0080     0.000    A    2.50000E-01   1.25520E-01
  opls_804  C804    12.0110     0.000    A    3.50000E-01   2.76144E-01
  opls_828  H828     1.0080     0.000    A    2.50000E-01   1.25520E-01
  opls_813  H813     1.0080     0.000    A    2.50000E-01   1.25520E-01
  opls_801  O801    15.9990     0.000    A    2.90000E-01   5.85760E-01
  opls_803  O803    15.9990     0.000    A    2.96000E-01   8.78640E-01
  opls_806  C806    12.0110     0.000    A    3.50000E-01   2.76144E-01
  opls_815  H815     1.0080     0.000    A    2.50000E-01   1.25520E-01
  opls_812  C812    12.0110     0.000    A    3.50000E-01   2.76144E-01
  opls_822  H822     1.0080     0.000    A    2.50000E-01   1.25520E-01
  opls_807  C807    12.0110     0.000    A    3.50000E-01   2.76144E-01
  opls_825  H825     1.0080     0.000    A    2.50000E-01   1.25520E-01
  opls_814  H814     1.0080     0.000    A    2.50000E-01   1.25520E-01
  opls_821  H821     1.0080     0.000    A    2.50000E-01   1.25520E-01
  opls_820  H820     1.0080     0.000    A    2.50000E-01   1.25520E-01
  opls_816  H816     1.0080     0.000    A    2.50000E-01   1.25520E-01
  opls_800  C800    12.0110     0.000    A    3.50000E-01   2.76144E-01
  opls_811  C811    12.0110     0.000    A    3.50000E-01   2.76144E-01
  opls_802  C802    12.0110     0.000    A    3.55000E-01   2.92880E-01
  opls_823  H823     1.0080     0.000    A    2.50000E-01   1.25520E-01
  opls_826  H826     1.0080     0.000    A    2.50000E-01   1.25520E-01
  opls_819  H819     1.0080     0.000    A    2.50000E-01   1.25520E-01
  opls_810  C810    12.0110     0.000    A    3.50000E-01   2.76144E-01
  opls_827  H827     1.0080     0.000    A    2.50000E-01   1.25520E-01
  opls_808  C808    12.0110     0.000    A    3.50000E-01   2.76144E-01
  opls_817  H817     1.0080     0.000    A    2.50000E-01   1.25520E-01
  opls_805 Cl805    35.4500     0.000    A    3.40000E-01   1.25520E+00
  opls_809 Cl809    35.4500     0.000    A    3.40000E-01   1.25520E+00
[ moleculetype ]
; Name               nrexcl
UNK                   3
[ atoms ]
;   nr       type  resnr residue  atom   cgnr     charge       mass  
     1   opls_800      1    UNK   C00      1    -0.0554    12.0110 
     2   opls_801      1    UNK   O01      1    -0.3568    15.9990 
     3   opls_802      1    UNK   C02      1     0.4318    12.0110 
     4   opls_803      1    UNK   O03      1    -0.4161    15.9990 
     5   opls_804      1    UNK   C04      1     0.1576    12.0110 
     6   opls_805      1    UNK   Cl0      1    -0.2464    35.4500 
     7   opls_806      1    UNK   C06      1    -0.1774    12.0110 
     8   opls_807      1    UNK   C07      1    -0.1917    12.0110 
     9   opls_808      1    UNK   C08      1     0.0169    12.0110 
    10   opls_809      1    UNK   Cl1      1    -0.2869    35.4500 
    11   opls_810      1    UNK   C0A      1    -0.1057    12.0110 
    12   opls_811      1    UNK   C0B      1    -0.2424    12.0110 
    13   opls_812      1    UNK   C0C      1    -0.2387    12.0110 
    14   opls_813      1    UNK   H0D      1     0.1046     1.0080 
    15   opls_814      1    UNK   H0E      1     0.1046     1.0080 
    16   opls_815      1    UNK   H0F      1     0.1046     1.0080 
    17   opls_816      1    UNK   H0G      1     0.1225     1.0080 
    18   opls_817      1    UNK   H0H      1     0.1225     1.0080 
    19   opls_818      1    UNK   H0I      1     0.1168     1.0080 
    20   opls_819      1    UNK   H0J      1     0.1168     1.0080 
    21   opls_820      1    UNK   H0K      1     0.1198     1.0080 
    22   opls_821      1    UNK   H0M      1     0.1198     1.0080 
    23   opls_822      1    UNK   H0N      1     0.1228     1.0080 
    24   opls_823      1    UNK   H0O      1     0.0937     1.0080 
    25   opls_824      1    UNK   H0P      1     0.0937     1.0080 
    26   opls_825      1    UNK   H0Q      1     0.0937     1.0080 
    27   opls_826      1    UNK   H0R      1     0.0918     1.0080 
    28   opls_827      1    UNK   H0S      1     0.0918     1.0080 
    29   opls_828      1    UNK   H0T      1     0.0918     1.0080 
[ bonds ]
    2     1     1      0.1410 267776.000
    3     2     1      0.1327 179075.200
    4     3     1      0.1229 476976.000
    5     3     1      0.1522 265265.600
    6     5     1      0.1781 205016.000
    7     5     1      0.1529 224262.400
    8     7     1      0.1529 224262.400
    9     8     1      0.1529 224262.400
   10     9     1      0.1781 205016.000
   11     5     1      0.1529 224262.400
   12    11     1      0.1529 224262.400
   13    11     1      0.1529 224262.400
   14     1     1      0.1090 284512.000
   15     1     1      0.1090 284512.000
   16     1     1      0.1090 284512.000
   17     7     1      0.1090 284512.000
   18     7     1      0.1090 284512.000
   19     8     1      0.1090 284512.000
   20     8     1      0.1090 284512.000
   21     9     1      0.1090 284512.000
   22     9     1      0.1090 284512.000
   23    11     1      0.1090 284512.000
   24    12     1      0.1090 284512.000
   25    12     1      0.1090 284512.000
   26    12     1      0.1090 284512.000
   27    13     1      0.1090 284512.000
   28    13     1      0.1090 284512.000
   29    13     1      0.1090 284512.000

[ angles ]
;  ai    aj    ak funct            c0            c1            c2            c3 
    1     2     3     1    116.900    694.544
    2     3     4     1    123.400    694.544
    2     3     5     1    111.400    677.808
    3     5     6     1    109.800    577.392
    3     5     7     1    111.100    527.184
    5     7     8     1    112.700    488.273
    7     8     9     1    112.700    488.273
    8     9    10     1    109.800    577.392
    3     5    11     1    111.100    527.184
    5    11    12     1    112.700    488.273
    5    11    13     1    112.700    488.273
    2     1    14     1    109.500    292.880
    2     1    15     1    109.500    292.880
    2     1    16     1    109.500    292.880
    5     7    17     1    110.700    313.800
    5     7    18     1    110.700    313.800
    7     8    19     1    110.700    313.800
    7     8    20     1    110.700    313.800
    8     9    21     1    110.700    313.800
    8     9    22     1    110.700    313.800
    5    11    23     1    110.700    313.800
   11    12    24     1    110.700    313.800
   11    12    25     1    110.700    313.800
   11    12    26     1    110.700    313.800
   11    13    27     1    110.700    313.800
   11    13    28     1    110.700    313.800
   11    13    29     1    110.700    313.800
   24    12    26     1    107.800    276.144
    8     7    18     1    110.700    313.800
   14     1    16     1    107.800    276.144
    9     8    20     1    110.700    313.800
   25    12    26     1    107.800    276.144
   13    11    23     1    110.700    313.800
    7     5    11     1    112.700    488.273
    6     5    11     1    109.800    577.392
   19     8    20     1    107.800    276.144
   14     1    15     1    107.800    276.144
    4     3     5     1    120.400    669.440
   24    12    25     1    107.800    276.144
   21     9    22     1    107.800    276.144
    6     5     7     1    109.800    577.392
   15     1    16     1    107.800    276.144
   28    13    29     1    107.800    276.144
   10     9    22     1    107.600    426.768
   12    11    13     1    112.700    488.273
   10     9    21     1    107.600    426.768
    8     7    17     1    110.700    313.800
   12    11    23     1    110.700    313.800
    9     8    19     1    110.700    313.800
   17     7    18     1    107.800    276.144
   27    13    29     1    107.800    276.144
   27    13    28     1    107.800    276.144

[ dihedrals ]
; IMPROPER DIHEDRAL ANGLES 
;  ai    aj    ak    al funct            c0            c1            c2            c3            c4            c5
     5     3     2     4    4        180.000     43.932     2  

[ dihedrals ]
; PROPER DIHEDRAL ANGLES
;  ai    aj    ak    al funct            c0            c1            c2            c3            c4            c5
    5    3    2    1        3      31.206  -9.768  -21.439  -0.000  -0.000   0.000
   11    5    3    4        3       0.000   0.000   0.000  -0.000  -0.000   0.000
    7    5    3    4        3       0.000   0.000   0.000  -0.000  -0.000   0.000
   11    5    3    2        3      -1.157  -3.471   0.000   4.628  -0.000   0.000
    7    5    3    2        3      -1.157  -3.471   0.000   4.628  -0.000   0.000
    8    7    5    3        3      -4.960   6.286   1.310  -2.636  -0.000   0.000
   12   11    5    3        3      -4.960   6.286   1.310  -2.636  -0.000   0.000
   13   11    5    3        3      -4.960   6.286   1.310  -2.636  -0.000   0.000
   13   11    5    7        3       2.301  -1.464   0.837  -1.674  -0.000   0.000
   12   11    5    7        3       2.301  -1.464   0.837  -1.674  -0.000   0.000
   11    5    7    8        3       2.301  -1.464   0.837  -1.674  -0.000   0.000
    9    8    7    5        3       2.301  -1.464   0.837  -1.674  -0.000   0.000
   13   11    5    6        3       0.837   2.510   0.000  -3.347  -0.000   0.000
    8    7    5    6        3       0.837   2.510   0.000  -3.347  -0.000   0.000
   12   11    5    6        3       0.837   2.510   0.000  -3.347  -0.000   0.000
    6    5    3    4        3      -1.360   1.360   0.000  -0.000  -0.000   0.000
    6    5    3    2        3      -1.157  -3.471   0.000   4.628  -0.000   0.000
   10    9    8    7        3       0.837   2.510   0.000  -3.347  -0.000   0.000
   18    7    5    3        3      -0.209  -0.628   0.000   0.837  -0.000   0.000
   17    7    5    3        3      -0.209  -0.628   0.000   0.837  -0.000   0.000
   23   11    5    3        3      -0.209  -0.628   0.000   0.837  -0.000   0.000
   18    7    8    9        3       0.628   1.883   0.000  -2.510  -0.000   0.000
   19    8    7    5        3       0.628   1.883   0.000  -2.510  -0.000   0.000
   23   11    5    7        3       0.628   1.883   0.000  -2.510  -0.000   0.000
   28   13   11   12        3       0.628   1.883   0.000  -2.510  -0.000   0.000
   26   12   11    5        3       0.628   1.883   0.000  -2.510  -0.000   0.000
   29   13   11   12        3       0.628   1.883   0.000  -2.510  -0.000   0.000
   24   12   11   13        3       0.628   1.883   0.000  -2.510  -0.000   0.000
   25   12   11   13        3       0.628   1.883   0.000  -2.510  -0.000   0.000
   27   13   11   12        3       0.628   1.883   0.000  -2.510  -0.000   0.000
   26   12   11   13        3       0.628   1.883   0.000  -2.510  -0.000   0.000
   28   13   11    5        3       0.628   1.883   0.000  -2.510  -0.000   0.000
   22    9    8    7        3       0.628   1.883   0.000  -2.510  -0.000   0.000
   18    7    5   11        3       0.628   1.883   0.000  -2.510  -0.000   0.000
   29   13   11    5        3       0.628   1.883   0.000  -2.510  -0.000   0.000
   17    7    5   11        3       0.628   1.883   0.000  -2.510  -0.000   0.000
   17    7    8    9        3       0.628   1.883   0.000  -2.510  -0.000   0.000
   24   12   11    5        3       0.628   1.883   0.000  -2.510  -0.000   0.000
   21    9    8    7        3       0.628   1.883   0.000  -2.510  -0.000   0.000
   27   13   11    5        3       0.628   1.883   0.000  -2.510  -0.000   0.000
   25   12   11    5        3       0.628   1.883   0.000  -2.510  -0.000   0.000
   20    8    7    5        3       0.628   1.883   0.000  -2.510  -0.000   0.000
   20    8    9   10        3       0.837   2.510   0.000  -3.347  -0.000   0.000
   18    7    5    6        3       0.837   2.510   0.000  -3.347  -0.000   0.000
   17    7    5    6        3       0.837   2.510   0.000  -3.347  -0.000   0.000
   23   11    5    6        3       0.837   2.510   0.000  -3.347  -0.000   0.000
   19    8    9   10        3       0.837   2.510   0.000  -3.347  -0.000   0.000
   26   12   11   23        3       0.628   1.883   0.000  -2.510  -0.000   0.000
   28   13   11   23        3       0.628   1.883   0.000  -2.510  -0.000   0.000
   22    9    8   20        3       0.628   1.883   0.000  -2.510  -0.000   0.000
   19    8    7   17        3       0.628   1.883   0.000  -2.510  -0.000   0.000
   20    8    7   17        3       0.628   1.883   0.000  -2.510  -0.000   0.000
   22    9    8   19        3       0.628   1.883   0.000  -2.510  -0.000   0.000
   21    9    8   19        3       0.628   1.883   0.000  -2.510  -0.000   0.000
   20    8    7   18        3       0.628   1.883   0.000  -2.510  -0.000   0.000
   21    9    8   20        3       0.628   1.883   0.000  -2.510  -0.000   0.000
   29   13   11   23        3       0.628   1.883   0.000  -2.510  -0.000   0.000
   24   12   11   23        3       0.628   1.883   0.000  -2.510  -0.000   0.000
   27   13   11   23        3       0.628   1.883   0.000  -2.510  -0.000   0.000
   19    8    7   18        3       0.628   1.883   0.000  -2.510  -0.000   0.000
   25   12   11   23        3       0.628   1.883   0.000  -2.510  -0.000   0.000
   16    1    2    3        3       0.414   1.243   0.000  -1.657  -0.000   0.000
   14    1    2    3        3       0.414   1.243   0.000  -1.657  -0.000   0.000
   15    1    2    3        3       0.414   1.243   0.000  -1.657  -0.000   0.000
    4    3    2    1        3      21.439   0.000  -21.439  -0.000  -0.000   0.000

[ pairs ]
     1     4    1
     1     5    1
     2     6    1
     2     7    1
     4     6    1
     4     7    1
     3     8    1
     2    11    1
     6     8    1
     5     9    1
     4    11    1
     3    12    1
     3    13    1
     7    10    1
     3    14    1
     6    12    1
     3    15    1
     8    11    1
     7    12    1
     6    13    1
     3    16    1
     7    13    1
     3    17    1
     3    18    1
     6    17    1
     6    18    1
     5    19    1
     5    20    1
     9    17    1
     3    23    1
     9    18    1
    11    17    1
     7    21    1
    11    18    1
    10    19    1
     7    22    1
     6    23    1
     5    24    1
    10    20    1
     7    23    1
     5    25    1
     5    26    1
     5    27    1
     5    28    1
     5    29    1
    17    19    1
    18    19    1
    17    20    1
    13    24    1
    18    20    1
    13    25    1
    13    26    1
    12    27    1
    19    21    1
    12    28    1
    20    21    1
    19    22    1
    12    29    1
    20    22    1
    23    24    1
    23    25    1
    23    26    1
    23    27    1
    23    28    1
    23    29    1

