LIGPARGEN GENERATED GRO FILE
   38
    1UNK    C00    1   0.100   0.100   0.000
    1UNK    C01    2  -0.053   0.100   0.000
    1UNK    N02    3  -0.115   0.100   0.133
    1UNK    C03    4  -0.079   0.222   0.208
    1UNK    C04    5  -0.264   0.092   0.125
    1UNK    C05    6  -0.320  -0.042   0.071
    1UNK    C06    7  -0.269  -0.167   0.146
    1UNK    C07    8  -0.296  -0.172   0.298
    1UNK    C08    9  -0.444  -0.180   0.335
    1UNK    C09   10  -0.225  -0.295   0.357
    1UNK    C0A   11  -0.475  -0.035   0.043
    1UNK    C0B   12  -0.451  -0.104  -0.092
    1UNK    C0C   13  -0.306  -0.057  -0.085
    1UNK    H0D   14   0.136   0.081  -0.102
    1UNK    H0E   15   0.139   0.021   0.065
    1UNK    H0F   16   0.141   0.196   0.032
    1UNK    H0G   17  -0.078   0.007  -0.051
    1UNK    H0H   18  -0.089   0.183  -0.061
    1UNK    H0I   19   0.029   0.230   0.222
    1UNK    H0J   20  -0.122   0.220   0.308
    1UNK    H0K   21  -0.114   0.312   0.157
    1UNK    H0M   22  -0.302   0.176   0.065
    1UNK    H0N   23  -0.305   0.106   0.226
    1UNK    H0O   24  -0.161  -0.174   0.131
    1UNK    H0P   25  -0.311  -0.258   0.100
    1UNK    H0Q   26  -0.253  -0.084   0.346
    1UNK    H0R   27  -0.495  -0.258   0.278
    1UNK    H0S   28  -0.494  -0.084   0.316
    1UNK    H0T   29  -0.457  -0.202   0.441
    1UNK    H0U   30  -0.263  -0.388   0.312
    1UNK    H0V   31  -0.241  -0.302   0.466
    1UNK    H0W   32  -0.117  -0.290   0.340
    1UNK    H0X   33  -0.515   0.066   0.033
    1UNK    H0Y   34  -0.542  -0.092   0.108
    1UNK    H0Z   35  -0.509  -0.065  -0.176
    1UNK    H10   36  -0.462  -0.213  -0.089
    1UNK    H11   37  -0.291   0.037  -0.140
    1UNK    H12   38  -0.234  -0.130  -0.121
   1.00000   1.00000   1.00000

