LIGPARGEN GENERATED GRO FILE
   45
    1UNK    C00    1   0.100   0.100   0.000
    1UNK    C01    2  -0.052   0.100   0.000
    1UNK    C02    3  -0.107   0.100   0.142
    1UNK    C03    4  -0.261   0.100   0.148
    1UNK    C04    5  -0.252   0.008   0.270
    1UNK    C05    6  -0.111  -0.035   0.222
    1UNK    O06    7  -0.012  -0.048   0.327
    1UNK    C07    8  -0.031  -0.156   0.407
    1UNK    O08    9  -0.107  -0.249   0.383
    1UNK    O09   10   0.043  -0.138   0.519
    1UNK    C0A   11   0.039  -0.233   0.629
    1UNK    C0B   12  -0.107  -0.248   0.679
    1UNK    C0C   13   0.093  -0.372   0.587
    1UNK    C0D   14   0.236  -0.376   0.536
    1UNK    C0E   15   0.118  -0.169   0.749
    1UNK    N0F   16   0.263  -0.142   0.734
    1UNK    C0G   17   0.290  -0.040   0.632
    1UNK    C0H   18   0.319  -0.099   0.863
    1UNK    H0I   19   0.138   0.100  -0.103
    1UNK    H0J   20   0.140   0.012   0.051
    1UNK    H0K   21   0.139   0.189   0.051
    1UNK    H0M   22  -0.088   0.013  -0.056
    1UNK    H0N   23  -0.087   0.190  -0.053
    1UNK    H0O   24  -0.064   0.182   0.201
    1UNK    H0P   25  -0.310   0.052   0.062
    1UNK    H0Q   26  -0.308   0.197   0.166
    1UNK    H0R   27  -0.326  -0.072   0.275
    1UNK    H0S   28  -0.251   0.061   0.366
    1UNK    H0T   29  -0.112  -0.122   0.155
    1UNK    H0U   30  -0.172  -0.298   0.607
    1UNK    H0V   31  -0.152  -0.149   0.698
    1UNK    H0W   32  -0.112  -0.306   0.772
    1UNK    H0X   33   0.030  -0.413   0.507
    1UNK    H0Y   34   0.084  -0.442   0.672
    1UNK    H0Z   35   0.254  -0.300   0.460
    1UNK    H10   36   0.257  -0.474   0.491
    1UNK    H11   37   0.308  -0.364   0.618
    1UNK    H12   38   0.106  -0.238   0.834
    1UNK    H13   39   0.068  -0.076   0.778
    1UNK    H14   40   0.278  -0.082   0.532
    1UNK    H15   41   0.395  -0.007   0.637
    1UNK    H16   42   0.226   0.048   0.643
    1UNK    H17   43   0.303  -0.175   0.940
    1UNK    H18   44   0.275  -0.005   0.898
    1UNK    H19   45   0.427  -0.086   0.855
   1.00000   1.00000   1.00000

