
;
; GENERATED BY LigParGen Server
; Jorgensen Lab @ Yale University 
;
[ atomtypes ]
  opls_818  H818     1.0080     0.000    A    2.50000E-01   1.25520E-01
  opls_804  C804    12.0110     0.000    A    3.45000E-01   3.47272E-01
  opls_814  C814    12.0110     0.000    A    3.50000E-01   2.76144E-01
  opls_824  H824     1.0080     0.000    A    2.50000E-01   1.25520E-01
  opls_809  O809    15.9990     0.000    A    2.90000E-01   5.85760E-01
  opls_843  H843     1.0080     0.000    A    2.50000E-01   1.25520E-01
  opls_805  C805    12.0110     0.000    A    3.45000E-01   3.47272E-01
  opls_836  H836     1.0080     0.000    A    2.50000E-01   1.25520E-01
  opls_834  H834     1.0080     0.000    A    2.50000E-01   1.25520E-01
  opls_810  C810    12.0110     0.000    A    3.50000E-01   2.76144E-01
  opls_828  H828     1.0080     0.000    A    2.50000E-01   1.25520E-01
  opls_815  N815    14.0070     0.000    A    3.30000E-01   7.11280E-01
  opls_806  O806    15.9990     0.000    A    2.90000E-01   5.85760E-01
  opls_811  C811    12.0110     0.000    A    3.50000E-01   2.76144E-01
  opls_827  H827     1.0080     0.000    A    2.50000E-01   1.25520E-01
  opls_801  C801    12.0110     0.000    A    3.50000E-01   2.76144E-01
  opls_838  H838     1.0080     0.000    A    2.50000E-01   1.25520E-01
  opls_822  H822     1.0080     0.000    A    2.50000E-01   1.25520E-01
  opls_825  H825     1.0080     0.000    A    2.50000E-01   1.25520E-01
  opls_826  H826     1.0080     0.000    A    2.50000E-01   1.25520E-01
  opls_830  H830     1.0080     0.000    A    2.50000E-01   1.25520E-01
  opls_821  H821     1.0080     0.000    A    2.50000E-01   1.25520E-01
  opls_842  H842     1.0080     0.000    A    2.50000E-01   1.25520E-01
  opls_820  H820     1.0080     0.000    A    2.50000E-01   1.25520E-01
  opls_803  C803    12.0110     0.000    A    3.45000E-01   3.47272E-01
  opls_837  H837     1.0080     0.000    A    2.50000E-01   1.25520E-01
  opls_829  H829     1.0080     0.000    A    2.50000E-01   1.25520E-01
  opls_831  H831     1.0080     0.000    A    2.50000E-01   1.25520E-01
  opls_832  H832     1.0080     0.000    A    2.50000E-01   1.25520E-01
  opls_800  C800    12.0110     0.000    A    3.50000E-01   2.76144E-01
  opls_808  O808    15.9990     0.000    A    2.96000E-01   8.78640E-01
  opls_823  H823     1.0080     0.000    A    2.50000E-01   1.25520E-01
  opls_833  H833     1.0080     0.000    A    2.50000E-01   1.25520E-01
  opls_813  C813    12.0110     0.000    A    3.50000E-01   2.76144E-01
  opls_802  C802    12.0110     0.000    A    3.45000E-01   3.47272E-01
  opls_835  H835     1.0080     0.000    A    2.50000E-01   1.25520E-01
  opls_841  H841     1.0080     0.000    A    2.50000E-01   1.25520E-01
  opls_819  H819     1.0080     0.000    A    2.50000E-01   1.25520E-01
  opls_816  C816    12.0110     0.000    A    3.50000E-01   2.76144E-01
  opls_839  H839     1.0080     0.000    A    2.50000E-01   1.25520E-01
  opls_817  C817    12.0110     0.000    A    3.50000E-01   2.76144E-01
  opls_812  C812    12.0110     0.000    A    3.50000E-01   2.76144E-01
  opls_807  C807    12.0110     0.000    A    3.55000E-01   2.92880E-01
  opls_840  H840     1.0080     0.000    A    2.50000E-01   1.25520E-01
  opls_844  H844     1.0080     0.000    A    2.50000E-01   1.25520E-01
[ moleculetype ]
; Name               nrexcl
UNK                   3
[ atoms ]
;   nr       type  resnr residue  atom   cgnr     charge       mass  
     1   opls_800      1    UNK   C00      1    -0.2413    12.0110 
     2   opls_801      1    UNK   C01      1    -0.1698    12.0110 
     3   opls_802      1    UNK   C02      1    -0.1209    12.0110 
     4   opls_803      1    UNK   C03      1    -0.2034    12.0110 
     5   opls_804      1    UNK   C04      1    -0.2239    12.0110 
     6   opls_805      1    UNK   C05      1     0.0587    12.0110 
     7   opls_806      1    UNK   O06      1    -0.3215    15.9990 
     8   opls_807      1    UNK   C07      1     0.5916    12.0110 
     9   opls_808      1    UNK   O08      1    -0.5049    15.9990 
    10   opls_809      1    UNK   O09      1    -0.3477    15.9990 
    11   opls_810      1    UNK   C0A      1     0.1763    12.0110 
    12   opls_811      1    UNK   C0B      1    -0.2847    12.0110 
    13   opls_812      1    UNK   C0C      1    -0.1952    12.0110 
    14   opls_813      1    UNK   C0D      1    -0.2328    12.0110 
    15   opls_814      1    UNK   C0E      1       0.03    12.0110 
    16   opls_815      1    UNK   N0F      1    -0.5811    14.0070 
    17   opls_816      1    UNK   C0G      1    -0.0491    12.0110 
    18   opls_817      1    UNK   C0H      1    -0.0503    12.0110 
    19   opls_818      1    UNK   H0I      1     0.0854     1.0080 
    20   opls_819      1    UNK   H0J      1     0.0854     1.0080 
    21   opls_820      1    UNK   H0K      1     0.0854     1.0080 
    22   opls_821      1    UNK   H0M      1     0.0946     1.0080 
    23   opls_822      1    UNK   H0N      1     0.0946     1.0080 
    24   opls_823      1    UNK   H0O      1     0.1348     1.0080 
    25   opls_824      1    UNK   H0P      1     0.1089     1.0080 
    26   opls_825      1    UNK   H0Q      1     0.1089     1.0080 
    27   opls_826      1    UNK   H0R      1     0.1179     1.0080 
    28   opls_827      1    UNK   H0S      1     0.1179     1.0080 
    29   opls_828      1    UNK   H0T      1     0.1429     1.0080 
    30   opls_829      1    UNK   H0U      1     0.1056     1.0080 
    31   opls_830      1    UNK   H0V      1     0.1056     1.0080 
    32   opls_831      1    UNK   H0W      1     0.1056     1.0080 
    33   opls_832      1    UNK   H0X      2     0.1076     1.0080 
    34   opls_833      1    UNK   H0Y      2     0.1076     1.0080 
    35   opls_834      1    UNK   H0Z      2     0.0894     1.0080 
    36   opls_835      1    UNK   H10      2     0.0894     1.0080 
    37   opls_836      1    UNK   H11      2     0.0894     1.0080 
    38   opls_837      1    UNK   H12      2     0.0926     1.0080 
    39   opls_838      1    UNK   H13      2     0.0926     1.0080 
    40   opls_839      1    UNK   H14      2     0.0875     1.0080 
    41   opls_840      1    UNK   H15      2     0.0875     1.0080 
    42   opls_841      1    UNK   H16      2     0.0875     1.0080 
    43   opls_842      1    UNK   H17      2     0.0818     1.0080 
    44   opls_843      1    UNK   H18      2     0.0818     1.0080 
    45   opls_844      1    UNK   H19      2     0.0818     1.0080 
[ bonds ]
    2     1     1      0.1529 224262.400
    3     2     1      0.1510 234304.000
    4     3     1      0.1520 217568.000
    5     4     1      0.1520 217568.000
    6     3     1      0.1520 217568.000
    7     6     1      0.1410 267776.000
    8     7     1      0.1327 179075.200
    9     8     1      0.1229 476976.000
   10     8     1      0.1327 179075.200
   11    10     1      0.1410 267776.000
   12    11     1      0.1529 224262.400
   13    11     1      0.1529 224262.400
   14    13     1      0.1529 224262.400
   15    11     1      0.1529 224262.400
   16    15     1      0.1448 319657.600
   17    16     1      0.1448 319657.600
   18    16     1      0.1448 319657.600
   19     1     1      0.1090 284512.000
   20     1     1      0.1090 284512.000
   21     1     1      0.1090 284512.000
   22     2     1      0.1090 284512.000
   23     2     1      0.1090 284512.000
   24     3     1      0.1088 284512.000
   25     4     1      0.1088 284512.000
   26     4     1      0.1088 284512.000
   27     5     1      0.1088 284512.000
   28     5     1      0.1088 284512.000
   29     6     1      0.1088 284512.000
   30    12     1      0.1090 284512.000
   31    12     1      0.1090 284512.000
   32    12     1      0.1090 284512.000
   33    13     1      0.1090 284512.000
   34    13     1      0.1090 284512.000
   35    14     1      0.1090 284512.000
   36    14     1      0.1090 284512.000
   37    14     1      0.1090 284512.000
   38    15     1      0.1090 284512.000
   39    15     1      0.1090 284512.000
   40    17     1      0.1090 284512.000
   41    17     1      0.1090 284512.000
   42    17     1      0.1090 284512.000
   43    18     1      0.1090 284512.000
   44    18     1      0.1090 284512.000
   45    18     1      0.1090 284512.000
    6     5     1      0.1520 217568.000

[ angles ]
;  ai    aj    ak funct            c0            c1            c2            c3 
    1     2     3     1    112.700    488.273
    2     3     4     1    117.200    313.800
    3     4     5     1     83.000    251.040
    2     3     6     1    117.200    313.800
    3     6     7     1    109.500    418.400
    6     7     8     1    116.900    694.544
    7     8     9     1    123.400    694.544
    7     8    10     1    118.180    584.923
    8    10    11     1    116.900    694.544
   10    11    12     1    109.500    418.400
   10    11    13     1    109.500    418.400
   11    13    14     1    112.700    488.273
   10    11    15     1    109.500    418.400
   11    15    16     1    109.470    470.282
   15    16    17     1    107.200    433.462
   15    16    18     1    107.200    433.462
    2     1    19     1    110.700    313.800
    2     1    20     1    110.700    313.800
    2     1    21     1    110.700    313.800
    1     2    22     1    110.700    313.800
    1     2    23     1    110.700    313.800
    2     3    24     1    114.300    292.880
    3     4    25     1    117.200    313.800
    3     4    26     1    117.200    313.800
    4     5    27     1    117.200    313.800
    4     5    28     1    117.200    313.800
    3     6    29     1    117.200    313.800
   11    12    30     1    110.700    313.800
   11    12    31     1    110.700    313.800
   11    12    32     1    110.700    313.800
   11    13    33     1    110.700    313.800
   11    13    34     1    110.700    313.800
   13    14    35     1    110.700    313.800
   13    14    36     1    110.700    313.800
   13    14    37     1    110.700    313.800
   11    15    38     1    110.700    313.800
   11    15    39     1    110.700    313.800
   16    17    40     1    109.500    292.880
   16    17    41     1    109.500    292.880
   16    17    42     1    109.500    292.880
   16    18    43     1    109.500    292.880
   16    18    44     1    109.500    292.880
   16    18    45     1    109.500    292.880
    3     6     5     1     83.000    251.040
   12    11    15     1    112.700    488.273
   40    17    42     1    107.800    276.144
   25     4    26     1    114.300    292.880
   35    14    37     1    107.800    276.144
   14    13    34     1    110.700    313.800
   16    15    39     1    109.500    292.880
    3     2    23     1    110.700    313.800
    4     3    24     1    117.200    313.800
   14    13    33     1    110.700    313.800
   16    15    38     1    109.500    292.880
   35    14    36     1    107.800    276.144
   20     1    21     1    107.800    276.144
   31    12    32     1    107.800    276.144
    5     4    26     1    117.200    313.800
   43    18    44     1    107.800    276.144
   27     5    28     1    114.300    292.880
   30    12    32     1    107.800    276.144
   30    12    31     1    107.800    276.144
   44    18    45     1    107.800    276.144
    5     4    25     1    117.200    313.800
   41    17    42     1    107.800    276.144
    6     5    28     1    117.200    313.800
    9     8    10     1    123.400    694.544
   33    13    34     1    107.800    276.144
    5     6     7     1    109.500    418.400
   17    16    18     1    107.200    433.462
    6     5    27     1    117.200    313.800
   13    11    15     1    112.700    488.273
    6     3    24     1    117.200    313.800
   19     1    21     1    107.800    276.144
    7     6    29     1    109.500    292.880
   40    17    41     1    107.800    276.144
   22     2    23     1    107.800    276.144
    4     5     6     1     83.000    251.040
    5     6    29     1    117.200    313.800
    3     2    22     1    110.700    313.800
   43    18    45     1    107.800    276.144
    4     3     6     1     83.000    251.040
   12    11    13     1    112.700    488.273
   19     1    20     1    107.800    276.144
   36    14    37     1    107.800    276.144
   38    15    39     1    107.800    276.144

[ dihedrals ]
; IMPROPER DIHEDRAL ANGLES 
;  ai    aj    ak    al funct            c0            c1            c2            c3            c4            c5
    10     8     7     9    4        180.000     43.932     2  

[ dihedrals ]
; PROPER DIHEDRAL ANGLES
;  ai    aj    ak    al funct            c0            c1            c2            c3            c4            c5
    8    7    6    5        3      -2.197   5.201   0.527  -3.531  -0.000   0.000
    8    7    6    3        3      -2.197   5.201   0.527  -3.531  -0.000   0.000
   15   11   13   14        3       2.301  -1.464   0.837  -1.674  -0.000   0.000
   14   13   11   12        3       2.301  -1.464   0.837  -1.674  -0.000   0.000
   14   13   11   10        3       2.874   0.582   2.092  -5.548  -0.000   0.000
   13   11   10    8        3      -2.197   5.201   0.527  -3.531  -0.000   0.000
   15   11   10    8        3      -2.197   5.201   0.527  -3.531  -0.000   0.000
   12   11   10    8        3      -2.197   5.201   0.527  -3.531  -0.000   0.000
   18   16   15   11        3       1.789   3.492   0.536  -5.816  -0.000   0.000
   17   16   15   11        3       1.789   3.492   0.536  -5.816  -0.000   0.000
   11   10    8    9        3      21.439   0.000  -21.439  -0.000  -0.000   0.000
   11   10    8    7        3      31.206  -9.768  -21.439  -0.000  -0.000   0.000
    4    3    2    1        3       0.000   0.000   0.000  -0.000  -0.000   0.000
    6    3    2    1        3       0.000   0.000   0.000  -0.000  -0.000   0.000
    5    6    3    2        3       0.000   0.000   0.000  -0.000  -0.000   0.000
    5    4    3    2        3       0.000   0.000   0.000  -0.000  -0.000   0.000
   34   13   11   12        3       0.628   1.883   0.000  -2.510  -0.000   0.000
   33   13   11   15        3       0.628   1.883   0.000  -2.510  -0.000   0.000
   32   12   11   15        3       0.628   1.883   0.000  -2.510  -0.000   0.000
   38   15   11   13        3       0.628   1.883   0.000  -2.510  -0.000   0.000
   39   15   11   12        3       0.628   1.883   0.000  -2.510  -0.000   0.000
   30   12   11   13        3       0.628   1.883   0.000  -2.510  -0.000   0.000
   36   14   13   11        3       0.628   1.883   0.000  -2.510  -0.000   0.000
   34   13   11   15        3       0.628   1.883   0.000  -2.510  -0.000   0.000
   33   13   11   12        3       0.628   1.883   0.000  -2.510  -0.000   0.000
   31   12   11   15        3       0.628   1.883   0.000  -2.510  -0.000   0.000
   30   12   11   15        3       0.628   1.883   0.000  -2.510  -0.000   0.000
   38   15   11   12        3       0.628   1.883   0.000  -2.510  -0.000   0.000
   39   15   11   13        3       0.628   1.883   0.000  -2.510  -0.000   0.000
   31   12   11   13        3       0.628   1.883   0.000  -2.510  -0.000   0.000
   32   12   11   13        3       0.628   1.883   0.000  -2.510  -0.000   0.000
   37   14   13   11        3       0.628   1.883   0.000  -2.510  -0.000   0.000
   35   14   13   11        3       0.628   1.883   0.000  -2.510  -0.000   0.000
   21    1    2    3        3       0.628   1.883   0.000  -2.510  -0.000   0.000
   20    1    2    3        3       0.628   1.883   0.000  -2.510  -0.000   0.000
   19    1    2    3        3       0.628   1.883   0.000  -2.510  -0.000   0.000
   22    2    1   21        3       0.628   1.883   0.000  -2.510  -0.000   0.000
   23    2    1   19        3       0.628   1.883   0.000  -2.510  -0.000   0.000
   35   14   13   34        3       0.628   1.883   0.000  -2.510  -0.000   0.000
   36   14   13   34        3       0.628   1.883   0.000  -2.510  -0.000   0.000
   22    2    1   20        3       0.628   1.883   0.000  -2.510  -0.000   0.000
   23    2    1   20        3       0.628   1.883   0.000  -2.510  -0.000   0.000
   37   14   13   34        3       0.628   1.883   0.000  -2.510  -0.000   0.000
   37   14   13   33        3       0.628   1.883   0.000  -2.510  -0.000   0.000
   36   14   13   33        3       0.628   1.883   0.000  -2.510  -0.000   0.000
   23    2    1   21        3       0.628   1.883   0.000  -2.510  -0.000   0.000
   35   14   13   33        3       0.628   1.883   0.000  -2.510  -0.000   0.000
   22    2    1   19        3       0.628   1.883   0.000  -2.510  -0.000   0.000
   32   12   11   10        3       0.979   2.937   0.000  -3.916  -0.000   0.000
   34   13   11   10        3       0.979   2.937   0.000  -3.916  -0.000   0.000
   39   15   11   10        3       0.979   2.937   0.000  -3.916  -0.000   0.000
   30   12   11   10        3       0.979   2.937   0.000  -3.916  -0.000   0.000
   33   13   11   10        3       0.979   2.937   0.000  -3.916  -0.000   0.000
   38   15   11   10        3       0.979   2.937   0.000  -3.916  -0.000   0.000
   31   12   11   10        3       0.979   2.937   0.000  -3.916  -0.000   0.000
   22    2    3    6        3       0.628   1.883   0.000  -2.510  -0.000   0.000
   23    2    3    6        3       0.628   1.883   0.000  -2.510  -0.000   0.000
   22    2    3    4        3       0.628   1.883   0.000  -2.510  -0.000   0.000
   23    2    3    4        3       0.628   1.883   0.000  -2.510  -0.000   0.000
   44   18   16   17        3       1.172   3.515   0.000  -4.686  -0.000   0.000
   43   18   16   15        3       1.172   3.515   0.000  -4.686  -0.000   0.000
   42   17   16   18        3       1.172   3.515   0.000  -4.686  -0.000   0.000
   40   17   16   18        3       1.172   3.515   0.000  -4.686  -0.000   0.000
   38   15   16   17        3       1.172   3.515   0.000  -4.686  -0.000   0.000
   42   17   16   15        3       1.172   3.515   0.000  -4.686  -0.000   0.000
   41   17   16   15        3       1.172   3.515   0.000  -4.686  -0.000   0.000
   45   18   16   17        3       1.172   3.515   0.000  -4.686  -0.000   0.000
   40   17   16   15        3       1.172   3.515   0.000  -4.686  -0.000   0.000
   43   18   16   17        3       1.172   3.515   0.000  -4.686  -0.000   0.000
   44   18   16   15        3       1.172   3.515   0.000  -4.686  -0.000   0.000
   45   18   16   15        3       1.172   3.515   0.000  -4.686  -0.000   0.000
   39   15   16   17        3       1.172   3.515   0.000  -4.686  -0.000   0.000
   38   15   16   18        3       1.172   3.515   0.000  -4.686  -0.000   0.000
   41   17   16   18        3       1.172   3.515   0.000  -4.686  -0.000   0.000
   39   15   16   18        3       1.172   3.515   0.000  -4.686  -0.000   0.000
   24    3    2    1        3       0.628   1.883   0.000  -2.510  -0.000   0.000
   24    3    2   22        3       0.628   1.883   0.000  -2.510  -0.000   0.000
   24    3    2   23        3       0.628   1.883   0.000  -2.510  -0.000   0.000
   26    4    3    2        3       0.000   0.000   0.000  -0.000  -0.000   0.000
   25    4    3    2        3       0.000   0.000   0.000  -0.000  -0.000   0.000
   29    6    3    2        3       0.000   0.000   0.000  -0.000  -0.000   0.000
   26    4    3    6        3       0.000   0.000   0.000  -0.000  -0.000   0.000
   29    6    5    4        3       0.000   0.000   0.000  -0.000  -0.000   0.000
   27    5    4    3        3       0.000   0.000   0.000  -0.000  -0.000   0.000
   26    4    5    6        3       0.000   0.000   0.000  -0.000  -0.000   0.000
   28    5    4    3        3       0.000   0.000   0.000  -0.000  -0.000   0.000
   25    4    5    6        3       0.000   0.000   0.000  -0.000  -0.000   0.000
   24    3    4    5        3       0.000   0.000   0.000  -0.000  -0.000   0.000
   27    5    6    3        3       0.000   0.000   0.000  -0.000  -0.000   0.000
   28    5    6    3        3       0.000   0.000   0.000  -0.000  -0.000   0.000
   29    6    3    4        3       0.000   0.000   0.000  -0.000  -0.000   0.000
   24    3    6    5        3       0.000   0.000   0.000  -0.000  -0.000   0.000
   25    4    3    6        3       0.000   0.000   0.000  -0.000  -0.000   0.000
   29    6    5   28        3       0.000   0.000   0.000  -0.000  -0.000   0.000
   29    6    5   27        3       0.000   0.000   0.000  -0.000  -0.000   0.000
   28    5    4   25        3       0.000   0.000   0.000  -0.000  -0.000   0.000
   25    4    3   24        3       0.000   0.000   0.000  -0.000  -0.000   0.000
   27    5    4   25        3       0.000   0.000   0.000  -0.000  -0.000   0.000
   29    6    3   24        3       0.000   0.000   0.000  -0.000  -0.000   0.000
   27    5    4   26        3       0.000   0.000   0.000  -0.000  -0.000   0.000
   26    4    3   24        3       0.000   0.000   0.000  -0.000  -0.000   0.000
   28    5    4   26        3       0.000   0.000   0.000  -0.000  -0.000   0.000
   27    5    6    7        3       0.000   0.000   0.000  -0.000  -0.000   0.000
   24    3    6    7        3       0.000   0.000   0.000  -0.000  -0.000   0.000
   28    5    6    7        3       0.000   0.000   0.000  -0.000  -0.000   0.000
   29    6    7    8        3       0.414   1.243   0.000  -1.657  -0.000   0.000
   16   15   11   12        3       3.335  -1.552   2.820  -4.602  -0.000   0.000
   16   15   11   13        3       3.335  -1.552   2.820  -4.602  -0.000   0.000
   16   15   11   10        3      16.736  -16.736   0.000  -0.000  -0.000   0.000
    9    8    7    6        3      21.439   0.000  -21.439  -0.000  -0.000   0.000
   10    8    7    6        3      31.206  -9.768  -21.439  -0.000  -0.000   0.000
    7    6    3    2        3       0.000   0.000   0.000  -0.000  -0.000   0.000
    7    6    5    4        3       0.000   0.000   0.000  -0.000  -0.000   0.000
    7    6    3    4        3       0.000   0.000   0.000  -0.000  -0.000   0.000

[ pairs ]
     1     4    1
     2     5    1
     1     6    1
     2     7    1
     4     7    1
     3     8    1
     5     8    1
     6     9    1
     6    10    1
     7    11    1
     9    11    1
     8    12    1
     8    13    1
     3    19    1
     8    15    1
     3    20    1
    10    14    1
     3    21    1
     1    24    1
    12    14    1
    10    16    1
     4    22    1
     4    23    1
     2    25    1
    12    16    1
    11    17    1
     6    22    1
     2    26    1
    14    15    1
    13    16    1
    11    18    1
     6    23    1
     5    24    1
     3    27    1
     7    24    1
     6    25    1
     3    28    1
     2    29    1
     6    26    1
     4    29    1
     7    27    1
     7    28    1
     8    29    1
    10    30    1
    19    22    1
    10    31    1
    20    22    1
    19    23    1
    10    32    1
    21    22    1
    20    23    1
    13    30    1
    10    33    1
    21    23    1
    13    31    1
    10    34    1
    15    30    1
    13    32    1
    12    33    1
    22    24    1
    15    31    1
    12    34    1
    11    35    1
    23    24    1
    15    32    1
    11    36    1
    15    33    1
    11    37    1
    10    38    1
    24    25    1
    15    34    1
    10    39    1
    24    26    1
    12    38    1
    13    38    1
    12    39    1
    25    27    1
    13    39    1
    26    27    1
    25    28    1
    24    29    1
    26    28    1
    17    38    1
    15    40    1
    27    29    1
    18    38    1
    17    39    1
    15    41    1
    28    29    1
    18    39    1
    15    42    1
    18    40    1
    15    43    1
    18    41    1
    15    44    1
    18    42    1
    17    43    1
    15    45    1
    17    44    1
    17    45    1
    33    35    1
    34    35    1
    33    36    1
    34    36    1
    33    37    1
    34    37    1

