LIGPARGEN GENERATED GRO FILE
   37
    1UNK    C00    1   0.100   0.100   0.000
    1UNK    C01    2  -0.052   0.100   0.000
    1UNK    C02    3  -0.116   0.100   0.141
    1UNK    C03    4  -0.074   0.224   0.221
    1UNK    C04    5  -0.269   0.090   0.127
    1UNK    C05    6  -0.344   0.089   0.260
    1UNK    S06    7  -0.521   0.077   0.234
    1UNK    O07    8  -0.563   0.190   0.154
    1UNK    O08    9  -0.548  -0.058   0.189
    1UNK    C09   10  -0.592   0.091   0.394
    1UNK    C0A   11  -0.553   0.219   0.462
    1UNK    O0B   12  -0.597   0.327   0.422
    1UNK    S0C   13  -0.449   0.229   0.611
    1UNK    O0D   14  -0.439   0.092   0.658
    1UNK    O0E   15  -0.331   0.304   0.573
    1UNK    C0F   16  -0.551   0.323   0.723
    1UNK    C0G   17  -0.486   0.338   0.859
    1UNK    H0H   18   0.137   0.091  -0.102
    1UNK    H0I   19   0.139   0.016   0.058
    1UNK    H0J   20   0.140   0.193   0.041
    1UNK    H0K   21  -0.086   0.011  -0.054
    1UNK    H0M   22  -0.088   0.187  -0.057
    1UNK    H0N   23  -0.080   0.011   0.195
    1UNK    H0O   24  -0.109   0.316   0.173
    1UNK    H0P   25   0.035   0.230   0.232
    1UNK    H0Q   26  -0.115   0.221   0.323
    1UNK    H0R   27  -0.293  -0.002   0.071
    1UNK    H0S   28  -0.305   0.173   0.065
    1UNK    H0T   29  -0.327   0.182   0.314
    1UNK    H0U   30  -0.314   0.004   0.321
    1UNK    H0V   31  -0.560   0.005   0.453
    1UNK    H0W   32  -0.701   0.088   0.385
    1UNK    H0X   33  -0.646   0.268   0.732
    1UNK    H0Y   34  -0.570   0.420   0.678
    1UNK    H0Z   35  -0.466   0.241   0.904
    1UNK    H10   36  -0.552   0.394   0.926
    1UNK    H11   37  -0.392   0.393   0.851
   1.00000   1.00000   1.00000

