
;
; GENERATED BY LigParGen Server
; Jorgensen Lab @ Yale University 
;
[ atomtypes ]
  opls_814  C814    12.0110     0.000    A    3.50000E-01   2.76144E-01
  opls_855  H855     1.0080     0.000    A    2.50000E-01   1.25520E-01
  opls_824  H824     1.0080     0.000    A    2.50000E-01   1.25520E-01
  opls_815  C815    12.0110     0.000    A    3.50000E-01   2.76144E-01
  opls_804  C804    12.0110     0.000    A    3.50000E-01   2.76144E-01
  opls_818  C818    12.0110     0.000    A    3.50000E-01   2.76144E-01
  opls_848  H848     1.0080     0.000    A    2.50000E-01   1.25520E-01
  opls_843  H843     1.0080     0.000    A    2.50000E-01   1.25520E-01
  opls_836  H836     1.0080     0.000    A    2.50000E-01   1.25520E-01
  opls_834  H834     1.0080     0.000    A    2.50000E-01   1.25520E-01
  opls_810  C810    12.0110     0.000    A    3.50000E-01   2.76144E-01
  opls_828  H828     1.0080     0.000    A    2.50000E-01   1.25520E-01
  opls_851  H851     1.0080     0.000    A    2.50000E-01   1.25520E-01
  opls_812  C812    12.0110     0.000    A    3.50000E-01   2.76144E-01
  opls_802  C802    12.0110     0.000    A    3.50000E-01   2.76144E-01
  opls_827  H827     1.0080     0.000    A    2.50000E-01   1.25520E-01
  opls_809  C809    12.0110     0.000    A    3.50000E-01   2.76144E-01
  opls_806  C806    12.0110     0.000    A    3.50000E-01   2.76144E-01
  opls_822  H822     1.0080     0.000    A    2.50000E-01   1.25520E-01
  opls_803  C803    12.0110     0.000    A    3.50000E-01   2.76144E-01
  opls_838  H838     1.0080     0.000    A    2.50000E-01   1.25520E-01
  opls_825  H825     1.0080     0.000    A    2.50000E-01   1.25520E-01
  opls_830  H830     1.0080     0.000    A    2.50000E-01   1.25520E-01
  opls_821  H821     1.0080     0.000    A    2.50000E-01   1.25520E-01
  opls_842  H842     1.0080     0.000    A    2.50000E-01   1.25520E-01
  opls_820  H820     1.0080     0.000    A    2.50000E-01   1.25520E-01
  opls_837  H837     1.0080     0.000    A    2.50000E-01   1.25520E-01
  opls_829  H829     1.0080     0.000    A    2.50000E-01   1.25520E-01
  opls_831  H831     1.0080     0.000    A    2.50000E-01   1.25520E-01
  opls_853  H853     1.0080     0.000    A    2.50000E-01   1.25520E-01
  opls_856  H856     1.0080     0.000    A    2.50000E-01   1.25520E-01
  opls_832  H832     1.0080     0.000    A    2.50000E-01   1.25520E-01
  opls_800  C800    12.0110     0.000    A    3.50000E-01   2.76144E-01
  opls_805  C805    12.0110     0.000    A    3.50000E-01   2.76144E-01
  opls_846  H846     1.0080     0.000    A    2.50000E-01   1.25520E-01
  opls_811  C811    12.0110     0.000    A    3.50000E-01   2.76144E-01
  opls_823  H823     1.0080     0.000    A    2.50000E-01   1.25520E-01
  opls_813  C813    12.0110     0.000    A    3.50000E-01   2.76144E-01
  opls_826  H826     1.0080     0.000    A    2.50000E-01   1.25520E-01
  opls_835  H835     1.0080     0.000    A    2.50000E-01   1.25520E-01
  opls_841  H841     1.0080     0.000    A    2.50000E-01   1.25520E-01
  opls_819  H819     1.0080     0.000    A    2.50000E-01   1.25520E-01
  opls_816  C816    12.0110     0.000    A    3.50000E-01   2.76144E-01
  opls_833  H833     1.0080     0.000    A    2.50000E-01   1.25520E-01
  opls_839  H839     1.0080     0.000    A    2.50000E-01   1.25520E-01
  opls_817  C817    12.0110     0.000    A    3.50000E-01   2.76144E-01
  opls_852  H852     1.0080     0.000    A    2.50000E-01   1.25520E-01
  opls_801  C801    12.0110     0.000    A    3.50000E-01   2.76144E-01
  opls_808  C808    12.0110     0.000    A    3.50000E-01   2.76144E-01
  opls_850  H850     1.0080     0.000    A    2.50000E-01   1.25520E-01
  opls_840  H840     1.0080     0.000    A    2.50000E-01   1.25520E-01
  opls_849  H849     1.0080     0.000    A    2.50000E-01   1.25520E-01
  opls_847  H847     1.0080     0.000    A    2.50000E-01   1.25520E-01
  opls_844  H844     1.0080     0.000    A    2.50000E-01   1.25520E-01
  opls_845  H845     1.0080     0.000    A    2.50000E-01   1.25520E-01
  opls_854  H854     1.0080     0.000    A    2.50000E-01   1.25520E-01
  opls_807  C807    12.0110     0.000    A    3.50000E-01   2.76144E-01
[ moleculetype ]
; Name               nrexcl
UNK                   3
[ atoms ]
;   nr       type  resnr residue  atom   cgnr     charge       mass  
     1   opls_800      1    UNK   C00      1    -0.2408    12.0110 
     2   opls_801      1    UNK   C01      1    -0.1789    12.0110 
     3   opls_802      1    UNK   C02      1    -0.1745    12.0110 
     4   opls_803      1    UNK   C03      1    -0.0319    12.0110 
     5   opls_804      1    UNK   C04      1    -0.2377    12.0110 
     6   opls_805      1    UNK   C05      1    -0.2314    12.0110 
     7   opls_806      1    UNK   C06      1    -0.0762    12.0110 
     8   opls_807      1    UNK   C07      1    -0.1688    12.0110 
     9   opls_808      1    UNK   C08      1    -0.0973    12.0110 
    10   opls_809      1    UNK   C09      1    -0.2315    12.0110 
    11   opls_810      1    UNK   C0A      1    -0.1528    12.0110 
    12   opls_811      1    UNK   C0B      1    -0.0345    12.0110 
    13   opls_812      1    UNK   C0C      1    -0.2413    12.0110 
    14   opls_813      1    UNK   C0D      1    -0.2297    12.0110 
    15   opls_814      1    UNK   C0E      1    -0.0838    12.0110 
    16   opls_815      1    UNK   C0F      1    -0.1718    12.0110 
    17   opls_816      1    UNK   C0G      1    -0.2393    12.0110 
    18   opls_817      1    UNK   C0H      1    -0.0894    12.0110 
    19   opls_818      1    UNK   C0I      1    -0.2357    12.0110 
    20   opls_819      1    UNK   H0J      1     0.0804     1.0080 
    21   opls_820      1    UNK   H0K      1     0.0804     1.0080 
    22   opls_821      1    UNK   H0M      1     0.0804     1.0080 
    23   opls_822      1    UNK   H0N      1     0.0884     1.0080 
    24   opls_823      1    UNK   H0O      1     0.0884     1.0080 
    25   opls_824      1    UNK   H0P      1      0.091     1.0080 
    26   opls_825      1    UNK   H0Q      1      0.091     1.0080 
    27   opls_826      1    UNK   H0R      1     0.0804     1.0080 
    28   opls_827      1    UNK   H0S      1     0.0804     1.0080 
    29   opls_828      1    UNK   H0T      1     0.0804     1.0080 
    30   opls_829      1    UNK   H0U      1     0.0805     1.0080 
    31   opls_830      1    UNK   H0V      1     0.0805     1.0080 
    32   opls_831      1    UNK   H0W      1     0.0805     1.0080 
    33   opls_832      1    UNK   H0X      2     0.0969     1.0080 
    34   opls_833      1    UNK   H0Y      2     0.0829     1.0080 
    35   opls_834      1    UNK   H0Z      2     0.0829     1.0080 
    36   opls_835      1    UNK   H10      2     0.0756     1.0080 
    37   opls_836      1    UNK   H11      2      0.081     1.0080 
    38   opls_837      1    UNK   H12      2      0.081     1.0080 
    39   opls_838      1    UNK   H13      2      0.081     1.0080 
    40   opls_839      1    UNK   H14      2      0.083     1.0080 
    41   opls_840      1    UNK   H15      2      0.083     1.0080 
    42   opls_841      1    UNK   H16      2     0.0801     1.0080 
    43   opls_842      1    UNK   H17      2     0.0801     1.0080 
    44   opls_843      1    UNK   H18      2     0.0801     1.0080 
    45   opls_844      1    UNK   H19      2     0.0805     1.0080 
    46   opls_845      1    UNK   H1A      2     0.0805     1.0080 
    47   opls_846      1    UNK   H1B      2     0.0805     1.0080 
    48   opls_847      1    UNK   H1C      2     0.0855     1.0080 
    49   opls_848      1    UNK   H1D      2     0.0886     1.0080 
    50   opls_849      1    UNK   H1E      2     0.0886     1.0080 
    51   opls_850      1    UNK   H1F      2       0.08     1.0080 
    52   opls_851      1    UNK   H1G      2       0.08     1.0080 
    53   opls_852      1    UNK   H1H      2       0.08     1.0080 
    54   opls_853      1    UNK   H1I      2     0.0915     1.0080 
    55   opls_854      1    UNK   H1J      2     0.0804     1.0080 
    56   opls_855      1    UNK   H1K      2     0.0804     1.0080 
    57   opls_856      1    UNK   H1M      2     0.0804     1.0080 
[ bonds ]
    2     1     1      0.1529 224262.400
    3     2     1      0.1529 224262.400
    4     3     1      0.1529 224262.400
    5     4     1      0.1529 224262.400
    6     4     1      0.1529 224262.400
    7     4     1      0.1529 224262.400
    8     7     1      0.1529 224262.400
    9     8     1      0.1529 224262.400
   10     9     1      0.1529 224262.400
   11     9     1      0.1529 224262.400
   12    11     1      0.1529 224262.400
   13    12     1      0.1529 224262.400
   14    12     1      0.1529 224262.400
   15    12     1      0.1529 224262.400
   16    15     1      0.1529 224262.400
   17    16     1      0.1529 224262.400
   18     7     1      0.1529 224262.400
   19    18     1      0.1529 224262.400
   20     1     1      0.1090 284512.000
   21     1     1      0.1090 284512.000
   22     1     1      0.1090 284512.000
   23     2     1      0.1090 284512.000
   24     2     1      0.1090 284512.000
   25     3     1      0.1090 284512.000
   26     3     1      0.1090 284512.000
   27     5     1      0.1090 284512.000
   28     5     1      0.1090 284512.000
   29     5     1      0.1090 284512.000
   30     6     1      0.1090 284512.000
   31     6     1      0.1090 284512.000
   32     6     1      0.1090 284512.000
   33     7     1      0.1090 284512.000
   34     8     1      0.1090 284512.000
   35     8     1      0.1090 284512.000
   36     9     1      0.1090 284512.000
   37    10     1      0.1090 284512.000
   38    10     1      0.1090 284512.000
   39    10     1      0.1090 284512.000
   40    11     1      0.1090 284512.000
   41    11     1      0.1090 284512.000
   42    13     1      0.1090 284512.000
   43    13     1      0.1090 284512.000
   44    13     1      0.1090 284512.000
   45    14     1      0.1090 284512.000
   46    14     1      0.1090 284512.000
   47    14     1      0.1090 284512.000
   48    15     1      0.1090 284512.000
   49    16     1      0.1090 284512.000
   50    16     1      0.1090 284512.000
   51    17     1      0.1090 284512.000
   52    17     1      0.1090 284512.000
   53    17     1      0.1090 284512.000
   54    18     1      0.1090 284512.000
   55    19     1      0.1090 284512.000
   56    19     1      0.1090 284512.000
   57    19     1      0.1090 284512.000
   18    15     1      0.1529 224262.400

[ angles ]
;  ai    aj    ak funct            c0            c1            c2            c3 
    1     2     3     1    112.700    488.273
    2     3     4     1    112.700    488.273
    3     4     5     1    112.700    488.273
    3     4     6     1    112.700    488.273
    3     4     7     1    112.700    488.273
    4     7     8     1    112.700    488.273
    7     8     9     1    112.700    488.273
    8     9    10     1    112.700    488.273
    8     9    11     1    112.700    488.273
    9    11    12     1    112.700    488.273
   11    12    13     1    112.700    488.273
   11    12    14     1    112.700    488.273
   11    12    15     1    112.700    488.273
   12    15    16     1    112.700    488.273
   15    16    17     1    112.700    488.273
    4     7    18     1    112.700    488.273
    7    18    19     1    112.700    488.273
    2     1    20     1    110.700    313.800
    2     1    21     1    110.700    313.800
    2     1    22     1    110.700    313.800
    1     2    23     1    110.700    313.800
    1     2    24     1    110.700    313.800
    2     3    25     1    110.700    313.800
    2     3    26     1    110.700    313.800
    4     5    27     1    110.700    313.800
    4     5    28     1    110.700    313.800
    4     5    29     1    110.700    313.800
    4     6    30     1    110.700    313.800
    4     6    31     1    110.700    313.800
    4     6    32     1    110.700    313.800
    4     7    33     1    110.700    313.800
    7     8    34     1    110.700    313.800
    7     8    35     1    110.700    313.800
    8     9    36     1    110.700    313.800
    9    10    37     1    110.700    313.800
    9    10    38     1    110.700    313.800
    9    10    39     1    110.700    313.800
    9    11    40     1    110.700    313.800
    9    11    41     1    110.700    313.800
   12    13    42     1    110.700    313.800
   12    13    43     1    110.700    313.800
   12    13    44     1    110.700    313.800
   12    14    45     1    110.700    313.800
   12    14    46     1    110.700    313.800
   12    14    47     1    110.700    313.800
   12    15    48     1    110.700    313.800
   15    16    49     1    110.700    313.800
   15    16    50     1    110.700    313.800
   16    17    51     1    110.700    313.800
   16    17    52     1    110.700    313.800
   16    17    53     1    110.700    313.800
    7    18    54     1    110.700    313.800
   18    19    55     1    110.700    313.800
   18    19    56     1    110.700    313.800
   18    19    57     1    110.700    313.800
   13    12    14     1    112.700    488.273
   42    13    43     1    107.800    276.144
    5     4     7     1    112.700    488.273
   56    19    57     1    107.800    276.144
   46    14    47     1    107.800    276.144
    7    18    15     1    112.700    488.273
   51    17    53     1    107.800    276.144
   19    18    54     1    110.700    313.800
   17    16    50     1    110.700    313.800
   20     1    21     1    107.800    276.144
    5     4     6     1    112.700    488.273
   34     8    35     1    107.800    276.144
   15    18    54     1    110.700    313.800
   13    12    15     1    112.700    488.273
   30     6    32     1    107.800    276.144
   18    15    48     1    110.700    313.800
   45    14    47     1    107.800    276.144
    8     7    33     1    110.700    313.800
   42    13    44     1    107.800    276.144
    9     8    34     1    110.700    313.800
   45    14    46     1    107.800    276.144
   20     1    22     1    107.800    276.144
   11     9    36     1    110.700    313.800
   55    19    57     1    107.800    276.144
   51    17    52     1    107.800    276.144
   16    15    18     1    112.700    488.273
   37    10    39     1    107.800    276.144
   28     5    29     1    107.800    276.144
   14    12    15     1    112.700    488.273
   15    18    19     1    112.700    488.273
   49    16    50     1    107.800    276.144
   43    13    44     1    107.800    276.144
    4     3    25     1    110.700    313.800
   37    10    38     1    107.800    276.144
   12    15    18     1    112.700    488.273
   18     7    33     1    110.700    313.800
   38    10    39     1    107.800    276.144
    4     3    26     1    110.700    313.800
   52    17    53     1    107.800    276.144
    8     7    18     1    112.700    488.273
   40    11    41     1    107.800    276.144
   25     3    26     1    107.800    276.144
   16    15    48     1    110.700    313.800
   30     6    31     1    107.800    276.144
    6     4     7     1    112.700    488.273
   31     6    32     1    107.800    276.144
   27     5    29     1    107.800    276.144
   55    19    56     1    107.800    276.144
    3     2    23     1    110.700    313.800
    9     8    35     1    110.700    313.800
   12    11    40     1    110.700    313.800
   17    16    49     1    110.700    313.800
   10     9    36     1    110.700    313.800
   23     2    24     1    107.800    276.144
   10     9    11     1    112.700    488.273
   21     1    22     1    107.800    276.144
    3     2    24     1    110.700    313.800
   27     5    28     1    107.800    276.144
   12    11    41     1    110.700    313.800

[ dihedrals ]
; IMPROPER DIHEDRAL ANGLES 
;  ai    aj    ak    al funct            c0            c1            c2            c3            c4            c5

[ dihedrals ]
; PROPER DIHEDRAL ANGLES
;  ai    aj    ak    al funct            c0            c1            c2            c3            c4            c5
    4    3    2    1        3       2.301  -1.464   0.837  -1.674  -0.000   0.000
   18    7    4    3        3       2.301  -1.464   0.837  -1.674  -0.000   0.000
   19   18   15   12        3       2.301  -1.464   0.837  -1.674  -0.000   0.000
   11    9    8    7        3       2.301  -1.464   0.837  -1.674  -0.000   0.000
   19   18    7    4        3       2.301  -1.464   0.837  -1.674  -0.000   0.000
    8    7    4    5        3       2.301  -1.464   0.837  -1.674  -0.000   0.000
    7    4    3    2        3       2.301  -1.464   0.837  -1.674  -0.000   0.000
   18   15   16   17        3       2.301  -1.464   0.837  -1.674  -0.000   0.000
   12   11    9   10        3       2.301  -1.464   0.837  -1.674  -0.000   0.000
   18   15   12   13        3       2.301  -1.464   0.837  -1.674  -0.000   0.000
   18    7    4    5        3       2.301  -1.464   0.837  -1.674  -0.000   0.000
    8    7    4    6        3       2.301  -1.464   0.837  -1.674  -0.000   0.000
   18    7    8    9        3       2.301  -1.464   0.837  -1.674  -0.000   0.000
   14   12   11    9        3       2.301  -1.464   0.837  -1.674  -0.000   0.000
   15   18    7    8        3       2.301  -1.464   0.837  -1.674  -0.000   0.000
   18    7    4    6        3       2.301  -1.464   0.837  -1.674  -0.000   0.000
   15   12   11    9        3       2.301  -1.464   0.837  -1.674  -0.000   0.000
   16   15   12   14        3       2.301  -1.464   0.837  -1.674  -0.000   0.000
   12   15   18    7        3       2.301  -1.464   0.837  -1.674  -0.000   0.000
   19   18   15   16        3       2.301  -1.464   0.837  -1.674  -0.000   0.000
   18   15   12   11        3       2.301  -1.464   0.837  -1.674  -0.000   0.000
   16   15   12   13        3       2.301  -1.464   0.837  -1.674  -0.000   0.000
   19   18    7    8        3       2.301  -1.464   0.837  -1.674  -0.000   0.000
   15   18    7    4        3       2.301  -1.464   0.837  -1.674  -0.000   0.000
    5    4    3    2        3       2.301  -1.464   0.837  -1.674  -0.000   0.000
    8    7    4    3        3       2.301  -1.464   0.837  -1.674  -0.000   0.000
    9    8    7    4        3       2.301  -1.464   0.837  -1.674  -0.000   0.000
   10    9    8    7        3       2.301  -1.464   0.837  -1.674  -0.000   0.000
   12   11    9    8        3       2.301  -1.464   0.837  -1.674  -0.000   0.000
   16   15   18    7        3       2.301  -1.464   0.837  -1.674  -0.000   0.000
   13   12   11    9        3       2.301  -1.464   0.837  -1.674  -0.000   0.000
   17   16   15   12        3       2.301  -1.464   0.837  -1.674  -0.000   0.000
    6    4    3    2        3       2.301  -1.464   0.837  -1.674  -0.000   0.000
   16   15   12   11        3       2.301  -1.464   0.837  -1.674  -0.000   0.000
   18   15   12   14        3       2.301  -1.464   0.837  -1.674  -0.000   0.000
   55   19   18   15        3       0.628   1.883   0.000  -2.510  -0.000   0.000
   54   18    7    4        3       0.628   1.883   0.000  -2.510  -0.000   0.000
   56   19   18    7        3       0.628   1.883   0.000  -2.510  -0.000   0.000
   27    5    4    6        3       0.628   1.883   0.000  -2.510  -0.000   0.000
   39   10    9    8        3       0.628   1.883   0.000  -2.510  -0.000   0.000
   35    8    9   11        3       0.628   1.883   0.000  -2.510  -0.000   0.000
   54   18   15   12        3       0.628   1.883   0.000  -2.510  -0.000   0.000
   40   11   12   13        3       0.628   1.883   0.000  -2.510  -0.000   0.000
   21    1    2    3        3       0.628   1.883   0.000  -2.510  -0.000   0.000
   54   18    7    8        3       0.628   1.883   0.000  -2.510  -0.000   0.000
   48   15   12   14        3       0.628   1.883   0.000  -2.510  -0.000   0.000
   31    6    4    3        3       0.628   1.883   0.000  -2.510  -0.000   0.000
   29    5    4    6        3       0.628   1.883   0.000  -2.510  -0.000   0.000
   26    3    4    5        3       0.628   1.883   0.000  -2.510  -0.000   0.000
   49   16   15   12        3       0.628   1.883   0.000  -2.510  -0.000   0.000
   33    7    4    6        3       0.628   1.883   0.000  -2.510  -0.000   0.000
   25    3    4    6        3       0.628   1.883   0.000  -2.510  -0.000   0.000
   52   17   16   15        3       0.628   1.883   0.000  -2.510  -0.000   0.000
   28    5    4    7        3       0.628   1.883   0.000  -2.510  -0.000   0.000
   50   16   15   18        3       0.628   1.883   0.000  -2.510  -0.000   0.000
   30    6    4    7        3       0.628   1.883   0.000  -2.510  -0.000   0.000
   43   13   12   14        3       0.628   1.883   0.000  -2.510  -0.000   0.000
   42   13   12   15        3       0.628   1.883   0.000  -2.510  -0.000   0.000
   33    7    8    9        3       0.628   1.883   0.000  -2.510  -0.000   0.000
   40   11    9   10        3       0.628   1.883   0.000  -2.510  -0.000   0.000
   33    7   18   15        3       0.628   1.883   0.000  -2.510  -0.000   0.000
   43   13   12   15        3       0.628   1.883   0.000  -2.510  -0.000   0.000
   34    8    7   18        3       0.628   1.883   0.000  -2.510  -0.000   0.000
   46   14   12   13        3       0.628   1.883   0.000  -2.510  -0.000   0.000
   39   10    9   11        3       0.628   1.883   0.000  -2.510  -0.000   0.000
   43   13   12   11        3       0.628   1.883   0.000  -2.510  -0.000   0.000
   22    1    2    3        3       0.628   1.883   0.000  -2.510  -0.000   0.000
   44   13   12   15        3       0.628   1.883   0.000  -2.510  -0.000   0.000
   54   18   15   16        3       0.628   1.883   0.000  -2.510  -0.000   0.000
   34    8    9   10        3       0.628   1.883   0.000  -2.510  -0.000   0.000
   49   16   15   18        3       0.628   1.883   0.000  -2.510  -0.000   0.000
   56   19   18   15        3       0.628   1.883   0.000  -2.510  -0.000   0.000
   42   13   12   14        3       0.628   1.883   0.000  -2.510  -0.000   0.000
   32    6    4    5        3       0.628   1.883   0.000  -2.510  -0.000   0.000
   34    8    7    4        3       0.628   1.883   0.000  -2.510  -0.000   0.000
   41   11   12   15        3       0.628   1.883   0.000  -2.510  -0.000   0.000
   35    8    7    4        3       0.628   1.883   0.000  -2.510  -0.000   0.000
   46   14   12   15        3       0.628   1.883   0.000  -2.510  -0.000   0.000
   50   16   15   12        3       0.628   1.883   0.000  -2.510  -0.000   0.000
   33    7    4    5        3       0.628   1.883   0.000  -2.510  -0.000   0.000
   45   14   12   15        3       0.628   1.883   0.000  -2.510  -0.000   0.000
   24    2    3    4        3       0.628   1.883   0.000  -2.510  -0.000   0.000
   36    9   11   12        3       0.628   1.883   0.000  -2.510  -0.000   0.000
   27    5    4    7        3       0.628   1.883   0.000  -2.510  -0.000   0.000
   28    5    4    6        3       0.628   1.883   0.000  -2.510  -0.000   0.000
   35    8    7   18        3       0.628   1.883   0.000  -2.510  -0.000   0.000
   48   15   18    7        3       0.628   1.883   0.000  -2.510  -0.000   0.000
   57   19   18   15        3       0.628   1.883   0.000  -2.510  -0.000   0.000
   40   11    9    8        3       0.628   1.883   0.000  -2.510  -0.000   0.000
   34    8    9   11        3       0.628   1.883   0.000  -2.510  -0.000   0.000
   33    7    4    3        3       0.628   1.883   0.000  -2.510  -0.000   0.000
   31    6    4    5        3       0.628   1.883   0.000  -2.510  -0.000   0.000
   25    3    2    1        3       0.628   1.883   0.000  -2.510  -0.000   0.000
   51   17   16   15        3       0.628   1.883   0.000  -2.510  -0.000   0.000
   41   11    9   10        3       0.628   1.883   0.000  -2.510  -0.000   0.000
   45   14   12   11        3       0.628   1.883   0.000  -2.510  -0.000   0.000
   48   15   18   19        3       0.628   1.883   0.000  -2.510  -0.000   0.000
   44   13   12   11        3       0.628   1.883   0.000  -2.510  -0.000   0.000
   42   13   12   11        3       0.628   1.883   0.000  -2.510  -0.000   0.000
   36    9    8    7        3       0.628   1.883   0.000  -2.510  -0.000   0.000
   37   10    9    8        3       0.628   1.883   0.000  -2.510  -0.000   0.000
   57   19   18    7        3       0.628   1.883   0.000  -2.510  -0.000   0.000
   30    6    4    3        3       0.628   1.883   0.000  -2.510  -0.000   0.000
   33    7   18   19        3       0.628   1.883   0.000  -2.510  -0.000   0.000
   27    5    4    3        3       0.628   1.883   0.000  -2.510  -0.000   0.000
   41   11   12   13        3       0.628   1.883   0.000  -2.510  -0.000   0.000
   40   11   12   14        3       0.628   1.883   0.000  -2.510  -0.000   0.000
   20    1    2    3        3       0.628   1.883   0.000  -2.510  -0.000   0.000
   29    5    4    7        3       0.628   1.883   0.000  -2.510  -0.000   0.000
   55   19   18    7        3       0.628   1.883   0.000  -2.510  -0.000   0.000
   44   13   12   14        3       0.628   1.883   0.000  -2.510  -0.000   0.000
   28    5    4    3        3       0.628   1.883   0.000  -2.510  -0.000   0.000
   26    3    2    1        3       0.628   1.883   0.000  -2.510  -0.000   0.000
   41   11    9    8        3       0.628   1.883   0.000  -2.510  -0.000   0.000
   38   10    9   11        3       0.628   1.883   0.000  -2.510  -0.000   0.000
   48   15   12   13        3       0.628   1.883   0.000  -2.510  -0.000   0.000
   41   11   12   14        3       0.628   1.883   0.000  -2.510  -0.000   0.000
   46   14   12   11        3       0.628   1.883   0.000  -2.510  -0.000   0.000
   53   17   16   15        3       0.628   1.883   0.000  -2.510  -0.000   0.000
   26    3    4    6        3       0.628   1.883   0.000  -2.510  -0.000   0.000
   40   11   12   15        3       0.628   1.883   0.000  -2.510  -0.000   0.000
   26    3    4    7        3       0.628   1.883   0.000  -2.510  -0.000   0.000
   48   15   16   17        3       0.628   1.883   0.000  -2.510  -0.000   0.000
   47   14   12   13        3       0.628   1.883   0.000  -2.510  -0.000   0.000
   48   15   12   11        3       0.628   1.883   0.000  -2.510  -0.000   0.000
   35    8    9   10        3       0.628   1.883   0.000  -2.510  -0.000   0.000
   31    6    4    7        3       0.628   1.883   0.000  -2.510  -0.000   0.000
   32    6    4    7        3       0.628   1.883   0.000  -2.510  -0.000   0.000
   30    6    4    5        3       0.628   1.883   0.000  -2.510  -0.000   0.000
   29    5    4    3        3       0.628   1.883   0.000  -2.510  -0.000   0.000
   25    3    4    5        3       0.628   1.883   0.000  -2.510  -0.000   0.000
   37   10    9   11        3       0.628   1.883   0.000  -2.510  -0.000   0.000
   32    6    4    3        3       0.628   1.883   0.000  -2.510  -0.000   0.000
   47   14   12   15        3       0.628   1.883   0.000  -2.510  -0.000   0.000
   45   14   12   13        3       0.628   1.883   0.000  -2.510  -0.000   0.000
   25    3    4    7        3       0.628   1.883   0.000  -2.510  -0.000   0.000
   47   14   12   11        3       0.628   1.883   0.000  -2.510  -0.000   0.000
   38   10    9    8        3       0.628   1.883   0.000  -2.510  -0.000   0.000
   23    2    3    4        3       0.628   1.883   0.000  -2.510  -0.000   0.000
   56   19   18   54        3       0.628   1.883   0.000  -2.510  -0.000   0.000
   40   11    9   36        3       0.628   1.883   0.000  -2.510  -0.000   0.000
   23    2    1   20        3       0.628   1.883   0.000  -2.510  -0.000   0.000
   53   17   16   49        3       0.628   1.883   0.000  -2.510  -0.000   0.000
   57   19   18   54        3       0.628   1.883   0.000  -2.510  -0.000   0.000
   26    3    2   23        3       0.628   1.883   0.000  -2.510  -0.000   0.000
   34    8    7   33        3       0.628   1.883   0.000  -2.510  -0.000   0.000
   37   10    9   36        3       0.628   1.883   0.000  -2.510  -0.000   0.000
   25    3    2   24        3       0.628   1.883   0.000  -2.510  -0.000   0.000
   36    9    8   35        3       0.628   1.883   0.000  -2.510  -0.000   0.000
   52   17   16   50        3       0.628   1.883   0.000  -2.510  -0.000   0.000
   53   17   16   50        3       0.628   1.883   0.000  -2.510  -0.000   0.000
   24    2    1   21        3       0.628   1.883   0.000  -2.510  -0.000   0.000
   50   16   15   48        3       0.628   1.883   0.000  -2.510  -0.000   0.000
   41   11    9   36        3       0.628   1.883   0.000  -2.510  -0.000   0.000
   26    3    2   24        3       0.628   1.883   0.000  -2.510  -0.000   0.000
   36    9    8   34        3       0.628   1.883   0.000  -2.510  -0.000   0.000
   55   19   18   54        3       0.628   1.883   0.000  -2.510  -0.000   0.000
   54   18   15   48        3       0.628   1.883   0.000  -2.510  -0.000   0.000
   25    3    2   23        3       0.628   1.883   0.000  -2.510  -0.000   0.000
   38   10    9   36        3       0.628   1.883   0.000  -2.510  -0.000   0.000
   51   17   16   49        3       0.628   1.883   0.000  -2.510  -0.000   0.000
   49   16   15   48        3       0.628   1.883   0.000  -2.510  -0.000   0.000
   54   18    7   33        3       0.628   1.883   0.000  -2.510  -0.000   0.000
   52   17   16   49        3       0.628   1.883   0.000  -2.510  -0.000   0.000
   51   17   16   50        3       0.628   1.883   0.000  -2.510  -0.000   0.000
   35    8    7   33        3       0.628   1.883   0.000  -2.510  -0.000   0.000
   39   10    9   36        3       0.628   1.883   0.000  -2.510  -0.000   0.000
   24    2    1   20        3       0.628   1.883   0.000  -2.510  -0.000   0.000
   23    2    1   21        3       0.628   1.883   0.000  -2.510  -0.000   0.000
   23    2    1   22        3       0.628   1.883   0.000  -2.510  -0.000   0.000
   24    2    1   22        3       0.628   1.883   0.000  -2.510  -0.000   0.000

[ pairs ]
     1     4    1
     2     5    1
     2     6    1
     2     7    1
     3     8    1
     5     8    1
     4     9    1
     6     8    1
     7    10    1
     7    11    1
     7    12    1
     4    15    1
     8    12    1
     3    18    1
    10    12    1
     9    13    1
     9    14    1
     8    15    1
     7    16    1
     5    18    1
     4    19    1
     3    20    1
     9    15    1
     6    18    1
     3    21    1
     3    22    1
     1    25    1
    11    16    1
     9    18    1
     8    19    1
     4    23    1
     1    26    1
     4    24    1
    13    16    1
    12    17    1
    11    18    1
    14    16    1
     5    25    1
     3    27    1
    13    18    1
    12    19    1
     6    25    1
     5    26    1
     3    28    1
    14    18    1
     7    25    1
     6    26    1
     3    29    1
     7    26    1
     6    27    1
     3    30    1
     7    27    1
     6    28    1
     3    31    1
    17    18    1
    16    19    1
     7    28    1
     6    29    1
     5    30    1
     3    32    1
     7    29    1
     5    31    1
     3    33    1
     7    30    1
     5    32    1
     7    31    1
     5    33    1
     4    34    1
     7    32    1
     6    33    1
     4    35    1
     9    33    1
    20    23    1
     7    36    1
    21    23    1
    20    24    1
    10    34    1
    22    23    1
    21    24    1
    11    34    1
    10    35    1
     8    37    1
    22    24    1
    11    35    1
     8    38    1
     8    39    1
    23    25    1
    15    33    1
    12    36    1
    11    37    1
     8    40    1
    24    25    1
    23    26    1
    11    38    1
     8    41    1
    24    26    1
    11    39    1
    10    40    1
    10    41    1
    19    33    1
    18    34    1
    18    35    1
    13    40    1
    11    42    1
    14    40    1
    13    41    1
    11    43    1
    15    40    1
    14    41    1
    11    44    1
     7    48    1
    15    41    1
    14    42    1
    11    45    1
    15    42    1
    14    43    1
    11    46    1
    15    43    1
    14    44    1
    13    45    1
    11    47    1
     4    54    1
    15    44    1
    13    46    1
    11    48    1
    15    45    1
    13    47    1
    15    46    1
    13    48    1
    12    49    1
    15    47    1
    14    48    1
    12    50    1
     8    54    1
     7    55    1
     7    56    1
     7    57    1
    17    48    1
    15    51    1
    12    54    1
    33    34    1
    19    48    1
    18    49    1
    15    52    1
    33    35    1
    18    50    1
    15    53    1
    34    36    1
    16    54    1
    15    55    1
    35    36    1
    15    56    1
    15    57    1
    36    37    1
    36    38    1
    36    39    1
    36    40    1
    36    41    1
    33    54    1
    48    49    1
    48    50    1
    49    51    1
    50    51    1
    49    52    1
    50    52    1
    49    53    1
    48    54    1
    50    53    1
    54    55    1
    54    56    1
    54    57    1

