LIGPARGEN GENERATED GRO FILE
   57
    1UNK    C00    1   0.100   0.100   0.000
    1UNK    C01    2  -0.053   0.100   0.000
    1UNK    C02    3  -0.106   0.100   0.144
    1UNK    C03    4  -0.261   0.094   0.166
    1UNK    C04    5  -0.321   0.214   0.087
    1UNK    C05    6  -0.316  -0.036   0.103
    1UNK    C06    7  -0.304   0.108   0.323
    1UNK    C07    8  -0.461   0.100   0.335
    1UNK    C08    9  -0.536   0.122   0.468
    1UNK    C09   10  -0.547   0.267   0.515
    1UNK    C0A   11  -0.507   0.018   0.576
    1UNK    C0B   12  -0.374   0.022   0.657
    1UNK    C0C   13  -0.348  -0.126   0.701
    1UNK    C0D   14  -0.396   0.098   0.790
    1UNK    C0E   15  -0.247   0.072   0.578
    1UNK    C0F   16  -0.213   0.224   0.590
    1UNK    C0G   17  -0.081   0.268   0.529
    1UNK    C0H   18  -0.240   0.013   0.432
    1UNK    C0I   19  -0.098  -0.041   0.413
    1UNK    H0J   20   0.138   0.100  -0.103
    1UNK    H0K   21   0.139   0.011   0.051
    1UNK    H0M   22   0.139   0.189   0.051
    1UNK    H0N   23  -0.086   0.011  -0.053
    1UNK    H0O   24  -0.087   0.188  -0.056
    1UNK    H0P   25  -0.066   0.188   0.196
    1UNK    H0Q   26  -0.060   0.012   0.187
    1UNK    H0R   27  -0.295   0.210  -0.019
    1UNK    H0S   28  -0.283   0.309   0.128
    1UNK    H0T   29  -0.430   0.217   0.090
    1UNK    H0U   30  -0.290  -0.044  -0.003
    1UNK    H0V   31  -0.425  -0.040   0.106
    1UNK    H0W   32  -0.277  -0.124   0.154
    1UNK    H0X   33  -0.277   0.211   0.347
    1UNK    H0Y   34  -0.491   0.001   0.301
    1UNK    H0Z   35  -0.506   0.170   0.265
    1UNK    H10   36  -0.640   0.100   0.438
    1UNK    H11   37  -0.480   0.293   0.596
    1UNK    H12   38  -0.648   0.286   0.553
    1UNK    H13   39  -0.529   0.338   0.433
    1UNK    H14   40  -0.515  -0.080   0.526
    1UNK    H15   41  -0.591   0.019   0.647
    1UNK    H16   42  -0.434  -0.167   0.755
    1UNK    H17   43  -0.261  -0.133   0.767
    1UNK    H18   44  -0.329  -0.192   0.615
    1UNK    H19   45  -0.479   0.055   0.847
    1UNK    H1A   46  -0.419   0.204   0.775
    1UNK    H1B   47  -0.307   0.092   0.853
    1UNK    H1C   48  -0.164   0.027   0.634
    1UNK    H1D   49  -0.209   0.251   0.696
    1UNK    H1E   50  -0.291   0.285   0.545
    1UNK    H1F   51   0.003   0.213   0.573
    1UNK    H1G   52  -0.065   0.374   0.549
    1UNK    H1H   53  -0.078   0.255   0.421
    1UNK    H1I   54  -0.301  -0.078   0.430
    1UNK    H1J   55  -0.025   0.038   0.394
    1UNK    H1K   56  -0.096  -0.116   0.333
    1UNK    H1M   57  -0.063  -0.095   0.502
   1.00000   1.00000   1.00000

