LIGPARGEN GENERATED GRO FILE
   34
    1UNK    C00    1   0.100   0.100   0.000
    1UNK    C01    2  -0.052   0.100   0.000
    1UNK    C02    3  -0.107   0.100   0.143
    1UNK    P03    4  -0.292   0.108   0.150
    1UNK    C04    5  -0.335  -0.052   0.070
    1UNK    C05    6  -0.318   0.059   0.328
    1UNK    C06    7  -0.260   0.162   0.425
    1UNK    C07    8  -0.280   0.127   0.575
    1UNK    C08    9  -0.218  -0.009   0.610
    1UNK    C09   10  -0.219   0.241   0.659
    1UNK    C0A   11  -0.230   0.222   0.810
    1UNK    H0B   12   0.138   0.100  -0.103
    1UNK    H0C   13   0.139   0.011   0.051
    1UNK    H0D   14   0.139   0.189   0.051
    1UNK    H0E   15  -0.087   0.012  -0.055
    1UNK    H0F   16  -0.088   0.188  -0.055
    1UNK    H0G   17  -0.067   0.188   0.195
    1UNK    H0H   18  -0.071   0.011   0.196
    1UNK    H0I   19  -0.316  -0.048  -0.037
    1UNK    H0J   20  -0.442  -0.073   0.083
    1UNK    H0K   21  -0.278  -0.135   0.112
    1UNK    H0M   22  -0.272  -0.039   0.343
    1UNK    H0N   23  -0.426   0.049   0.345
    1UNK    H0O   24  -0.306   0.260   0.406
    1UNK    H0P   25  -0.153   0.174   0.407
    1UNK    H0Q   26  -0.387   0.122   0.595
    1UNK    H0R   27  -0.111  -0.010   0.589
    1UNK    H0S   28  -0.265  -0.090   0.554
    1UNK    H0T   29  -0.232  -0.033   0.716
    1UNK    H0U   30  -0.269   0.335   0.633
    1UNK    H0V   31  -0.113   0.254   0.634
    1UNK    H0W   32  -0.334   0.202   0.839
    1UNK    H0X   33  -0.196   0.312   0.862
    1UNK    H0Y   34  -0.168   0.139   0.844
   1.00000   1.00000   1.00000

