
;
; GENERATED BY LigParGen Server
; Jorgensen Lab @ Yale University 
;
[ atomtypes ]
  opls_818  H818     1.0080     0.000    A    2.50000E-01   1.25520E-01
  opls_824  H824     1.0080     0.000    A    2.50000E-01   1.25520E-01
  opls_805  C805    12.0110     0.000    A    3.50000E-01   2.76144E-01
  opls_833  H833     1.0080     0.000    A    2.50000E-01   1.25520E-01
  opls_828  H828     1.0080     0.000    A    2.50000E-01   1.25520E-01
  opls_813  H813     1.0080     0.000    A    2.50000E-01   1.25520E-01
  opls_803  P803    30.9738     0.000    A    3.74000E-01   8.36800E-01
  opls_832  H832     1.0080     0.000    A    2.50000E-01   1.25520E-01
  opls_802  C802    12.0110     0.000    A    3.50000E-01   2.76144E-01
  opls_815  H815     1.0080     0.000    A    2.50000E-01   1.25520E-01
  opls_809  C809    12.0110     0.000    A    3.50000E-01   2.76144E-01
  opls_830  H830     1.0080     0.000    A    2.50000E-01   1.25520E-01
  opls_822  H822     1.0080     0.000    A    2.50000E-01   1.25520E-01
  opls_807  C807    12.0110     0.000    A    3.50000E-01   2.76144E-01
  opls_825  H825     1.0080     0.000    A    2.50000E-01   1.25520E-01
  opls_814  H814     1.0080     0.000    A    2.50000E-01   1.25520E-01
  opls_810  C810    12.0110     0.000    A    3.50000E-01   2.76144E-01
  opls_820  H820     1.0080     0.000    A    2.50000E-01   1.25520E-01
  opls_811  H811     1.0080     0.000    A    2.50000E-01   1.25520E-01
  opls_821  H821     1.0080     0.000    A    2.50000E-01   1.25520E-01
  opls_831  H831     1.0080     0.000    A    2.50000E-01   1.25520E-01
  opls_816  H816     1.0080     0.000    A    2.50000E-01   1.25520E-01
  opls_800  C800    12.0110     0.000    A    3.50000E-01   2.76144E-01
  opls_806  C806    12.0110     0.000    A    3.50000E-01   2.76144E-01
  opls_823  H823     1.0080     0.000    A    2.50000E-01   1.25520E-01
  opls_826  H826     1.0080     0.000    A    2.50000E-01   1.25520E-01
  opls_819  H819     1.0080     0.000    A    2.50000E-01   1.25520E-01
  opls_804  C804    12.0110     0.000    A    3.50000E-01   2.76144E-01
  opls_827  H827     1.0080     0.000    A    2.50000E-01   1.25520E-01
  opls_801  C801    12.0110     0.000    A    3.50000E-01   2.76144E-01
  opls_808  C808    12.0110     0.000    A    3.50000E-01   2.76144E-01
  opls_817  H817     1.0080     0.000    A    2.50000E-01   1.25520E-01
  opls_812  H812     1.0080     0.000    A    2.50000E-01   1.25520E-01
  opls_829  H829     1.0080     0.000    A    2.50000E-01   1.25520E-01
[ moleculetype ]
; Name               nrexcl
UNK                   3
[ atoms ]
;   nr       type  resnr residue  atom   cgnr     charge       mass  
     1   opls_800      1    UNK   C00      1    -0.2401    12.0110 
     2   opls_801      1    UNK   C01      1    -0.1744    12.0110 
     3   opls_802      1    UNK   C02      1    -0.3071    12.0110 
     4   opls_803      1    UNK   P03      1     0.2898    30.9738 
     5   opls_804      1    UNK   C04      1    -0.3777    12.0110 
     6   opls_805      1    UNK   C05      1    -0.3037    12.0110 
     7   opls_806      1    UNK   C06      1    -0.1722    12.0110 
     8   opls_807      1    UNK   C07      1    -0.1119    12.0110 
     9   opls_808      1    UNK   C08      1    -0.2341    12.0110 
    10   opls_809      1    UNK   C09      1    -0.1753    12.0110 
    11   opls_810      1    UNK   C0A      1    -0.2368    12.0110 
    12   opls_811      1    UNK   H0B      1     0.0819     1.0080 
    13   opls_812      1    UNK   H0C      1     0.0819     1.0080 
    14   opls_813      1    UNK   H0D      1     0.0819     1.0080 
    15   opls_814      1    UNK   H0E      1     0.0942     1.0080 
    16   opls_815      1    UNK   H0F      1     0.0942     1.0080 
    17   opls_816      1    UNK   H0G      1     0.0961     1.0080 
    18   opls_817      1    UNK   H0H      1     0.0961     1.0080 
    19   opls_818      1    UNK   H0I      1     0.0922     1.0080 
    20   opls_819      1    UNK   H0J      1     0.0922     1.0080 
    21   opls_820      1    UNK   H0K      1     0.0922     1.0080 
    22   opls_821      1    UNK   H0M      1     0.0964     1.0080 
    23   opls_822      1    UNK   H0N      1     0.0964     1.0080 
    24   opls_823      1    UNK   H0O      1     0.0937     1.0080 
    25   opls_824      1    UNK   H0P      1     0.0937     1.0080 
    26   opls_825      1    UNK   H0Q      1     0.0982     1.0080 
    27   opls_826      1    UNK   H0R      1      0.081     1.0080 
    28   opls_827      1    UNK   H0S      1      0.081     1.0080 
    29   opls_828      1    UNK   H0T      1      0.081     1.0080 
    30   opls_829      1    UNK   H0U      1     0.0877     1.0080 
    31   opls_830      1    UNK   H0V      1     0.0877     1.0080 
    32   opls_831      1    UNK   H0W      1     0.0813     1.0080 
    33   opls_832      1    UNK   H0X      2     0.0813     1.0080 
    34   opls_833      1    UNK   H0Y      2     0.0813     1.0080 
[ bonds ]
    2     1     1      0.1529 224262.400
    3     2     1      0.1529 224262.400
    4     3     1      0.1843 177401.600
    5     4     1      0.1843 177401.600
    6     4     1      0.1843 177401.600
    7     6     1      0.1529 224262.400
    8     7     1      0.1529 224262.400
    9     8     1      0.1529 224262.400
   10     8     1      0.1529 224262.400
   11    10     1      0.1529 224262.400
   12     1     1      0.1090 284512.000
   13     1     1      0.1090 284512.000
   14     1     1      0.1090 284512.000
   15     2     1      0.1090 284512.000
   16     2     1      0.1090 284512.000
   17     3     1      0.1090 284512.000
   18     3     1      0.1090 284512.000
   19     5     1      0.1090 284512.000
   20     5     1      0.1090 284512.000
   21     5     1      0.1090 284512.000
   22     6     1      0.1090 284512.000
   23     6     1      0.1090 284512.000
   24     7     1      0.1090 284512.000
   25     7     1      0.1090 284512.000
   26     8     1      0.1090 284512.000
   27     9     1      0.1090 284512.000
   28     9     1      0.1090 284512.000
   29     9     1      0.1090 284512.000
   30    10     1      0.1090 284512.000
   31    10     1      0.1090 284512.000
   32    11     1      0.1090 284512.000
   33    11     1      0.1090 284512.000
   34    11     1      0.1090 284512.000

[ angles ]
;  ai    aj    ak funct            c0            c1            c2            c3 
    1     2     3     1    112.700    488.273
    2     3     4     1    109.500    359.824
    3     4     5     1     98.900    518.816
    3     4     6     1     98.900    518.816
    4     6     7     1    109.500    359.824
    6     7     8     1    112.700    488.273
    7     8     9     1    112.700    488.273
    7     8    10     1    112.700    488.273
    8    10    11     1    112.700    488.273
    2     1    12     1    110.700    313.800
    2     1    13     1    110.700    313.800
    2     1    14     1    110.700    313.800
    1     2    15     1    110.700    313.800
    1     2    16     1    110.700    313.800
    2     3    17     1    110.700    313.800
    2     3    18     1    110.700    313.800
    4     5    19     1    109.500    343.088
    4     5    20     1    109.500    343.088
    4     5    21     1    109.500    343.088
    4     6    22     1    109.500    343.088
    4     6    23     1    109.500    343.088
    6     7    24     1    110.700    313.800
    6     7    25     1    110.700    313.800
    7     8    26     1    110.700    313.800
    8     9    27     1    110.700    313.800
    8     9    28     1    110.700    313.800
    8     9    29     1    110.700    313.800
    8    10    30     1    110.700    313.800
    8    10    31     1    110.700    313.800
   10    11    32     1    110.700    313.800
   10    11    33     1    110.700    313.800
   10    11    34     1    110.700    313.800
    5     4     6     1     98.900    518.816
   30    10    31     1    107.800    276.144
   33    11    34     1    107.800    276.144
   13     1    14     1    107.800    276.144
    9     8    10     1    112.700    488.273
   15     2    16     1    107.800    276.144
    7     6    22     1    110.700    313.800
    3     2    15     1    110.700    313.800
   19     5    20     1    107.800    276.144
   27     9    29     1    107.800    276.144
   32    11    34     1    107.800    276.144
   28     9    29     1    107.800    276.144
   12     1    14     1    107.800    276.144
    3     2    16     1    110.700    313.800
   32    11    33     1    107.800    276.144
    4     3    18     1    109.500    343.088
   10     8    26     1    110.700    313.800
    8     7    25     1    110.700    313.800
   12     1    13     1    107.800    276.144
   22     6    23     1    107.800    276.144
   27     9    28     1    107.800    276.144
   11    10    31     1    110.700    313.800
   19     5    21     1    107.800    276.144
    9     8    26     1    110.700    313.800
    4     3    17     1    109.500    343.088
   17     3    18     1    107.800    276.144
    8     7    24     1    110.700    313.800
    7     6    23     1    110.700    313.800
   24     7    25     1    107.800    276.144
   11    10    30     1    110.700    313.800
   20     5    21     1    107.800    276.144

[ dihedrals ]
; IMPROPER DIHEDRAL ANGLES 
;  ai    aj    ak    al funct            c0            c1            c2            c3            c4            c5

[ dihedrals ]
; PROPER DIHEDRAL ANGLES
;  ai    aj    ak    al funct            c0            c1            c2            c3            c4            c5
   10    8    7    6        3       2.301  -1.464   0.837  -1.674  -0.000   0.000
   11   10    8    9        3       2.301  -1.464   0.837  -1.674  -0.000   0.000
   11   10    8    7        3       2.301  -1.464   0.837  -1.674  -0.000   0.000
    9    8    7    6        3       2.301  -1.464   0.837  -1.674  -0.000   0.000
    8    7    6    4        3      -0.766   2.707   4.025  -5.966  -0.000   0.000
    7    6    4    5        3       1.046   1.046   2.092  -4.184  -0.000   0.000
    7    6    4    3        3       1.046   1.046   2.092  -4.184  -0.000   0.000
    5    4    3    2        3       1.046   1.046   2.092  -4.184  -0.000   0.000
    6    4    3    2        3       1.046   1.046   2.092  -4.184  -0.000   0.000
   27    9    8   10        3       0.628   1.883   0.000  -2.510  -0.000   0.000
   30   10    8    9        3       0.628   1.883   0.000  -2.510  -0.000   0.000
   23    6    7    8        3       0.628   1.883   0.000  -2.510  -0.000   0.000
   18    3    2    1        3       0.628   1.883   0.000  -2.510  -0.000   0.000
   28    9    8   10        3       0.628   1.883   0.000  -2.510  -0.000   0.000
   31   10    8    7        3       0.628   1.883   0.000  -2.510  -0.000   0.000
   26    8    7    6        3       0.628   1.883   0.000  -2.510  -0.000   0.000
   24    7    8   10        3       0.628   1.883   0.000  -2.510  -0.000   0.000
   22    6    7    8        3       0.628   1.883   0.000  -2.510  -0.000   0.000
   29    9    8   10        3       0.628   1.883   0.000  -2.510  -0.000   0.000
   33   11   10    8        3       0.628   1.883   0.000  -2.510  -0.000   0.000
   30   10    8    7        3       0.628   1.883   0.000  -2.510  -0.000   0.000
   17    3    2    1        3       0.628   1.883   0.000  -2.510  -0.000   0.000
   28    9    8    7        3       0.628   1.883   0.000  -2.510  -0.000   0.000
   24    7    8    9        3       0.628   1.883   0.000  -2.510  -0.000   0.000
   14    1    2    3        3       0.628   1.883   0.000  -2.510  -0.000   0.000
   29    9    8    7        3       0.628   1.883   0.000  -2.510  -0.000   0.000
   25    7    8   10        3       0.628   1.883   0.000  -2.510  -0.000   0.000
   31   10    8    9        3       0.628   1.883   0.000  -2.510  -0.000   0.000
   32   11   10    8        3       0.628   1.883   0.000  -2.510  -0.000   0.000
   25    7    8    9        3       0.628   1.883   0.000  -2.510  -0.000   0.000
   26    8   10   11        3       0.628   1.883   0.000  -2.510  -0.000   0.000
   34   11   10    8        3       0.628   1.883   0.000  -2.510  -0.000   0.000
   13    1    2    3        3       0.628   1.883   0.000  -2.510  -0.000   0.000
   27    9    8    7        3       0.628   1.883   0.000  -2.510  -0.000   0.000
   12    1    2    3        3       0.628   1.883   0.000  -2.510  -0.000   0.000
   25    7    6   22        3       0.628   1.883   0.000  -2.510  -0.000   0.000
   17    3    2   15        3       0.628   1.883   0.000  -2.510  -0.000   0.000
   33   11   10   30        3       0.628   1.883   0.000  -2.510  -0.000   0.000
   26    8    7   25        3       0.628   1.883   0.000  -2.510  -0.000   0.000
   16    2    1   12        3       0.628   1.883   0.000  -2.510  -0.000   0.000
   34   11   10   31        3       0.628   1.883   0.000  -2.510  -0.000   0.000
   24    7    6   23        3       0.628   1.883   0.000  -2.510  -0.000   0.000
   16    2    1   14        3       0.628   1.883   0.000  -2.510  -0.000   0.000
   24    7    6   22        3       0.628   1.883   0.000  -2.510  -0.000   0.000
   15    2    1   12        3       0.628   1.883   0.000  -2.510  -0.000   0.000
   32   11   10   31        3       0.628   1.883   0.000  -2.510  -0.000   0.000
   27    9    8   26        3       0.628   1.883   0.000  -2.510  -0.000   0.000
   25    7    6   23        3       0.628   1.883   0.000  -2.510  -0.000   0.000
   30   10    8   26        3       0.628   1.883   0.000  -2.510  -0.000   0.000
   18    3    2   16        3       0.628   1.883   0.000  -2.510  -0.000   0.000
   33   11   10   31        3       0.628   1.883   0.000  -2.510  -0.000   0.000
   28    9    8   26        3       0.628   1.883   0.000  -2.510  -0.000   0.000
   15    2    1   13        3       0.628   1.883   0.000  -2.510  -0.000   0.000
   31   10    8   26        3       0.628   1.883   0.000  -2.510  -0.000   0.000
   15    2    1   14        3       0.628   1.883   0.000  -2.510  -0.000   0.000
   16    2    1   13        3       0.628   1.883   0.000  -2.510  -0.000   0.000
   26    8    7   24        3       0.628   1.883   0.000  -2.510  -0.000   0.000
   32   11   10   30        3       0.628   1.883   0.000  -2.510  -0.000   0.000
   17    3    2   16        3       0.628   1.883   0.000  -2.510  -0.000   0.000
   29    9    8   26        3       0.628   1.883   0.000  -2.510  -0.000   0.000
   34   11   10   30        3       0.628   1.883   0.000  -2.510  -0.000   0.000
   18    3    2   15        3       0.628   1.883   0.000  -2.510  -0.000   0.000
   16    2    3    4        3       0.628   1.883   0.000  -2.510  -0.000   0.000
   25    7    6    4        3       0.628   1.883   0.000  -2.510  -0.000   0.000
   24    7    6    4        3       0.628   1.883   0.000  -2.510  -0.000   0.000
   15    2    3    4        3       0.628   1.883   0.000  -2.510  -0.000   0.000
   23    6    4    5        3       0.628   1.883   0.000  -2.510  -0.000   0.000
   22    6    4    5        3       0.628   1.883   0.000  -2.510  -0.000   0.000
   19    5    4    6        3       0.628   1.883   0.000  -2.510  -0.000   0.000
   20    5    4    3        3       0.628   1.883   0.000  -2.510  -0.000   0.000
   18    3    4    5        3       0.628   1.883   0.000  -2.510  -0.000   0.000
   17    3    4    6        3       0.628   1.883   0.000  -2.510  -0.000   0.000
   21    5    4    6        3       0.628   1.883   0.000  -2.510  -0.000   0.000
   21    5    4    3        3       0.628   1.883   0.000  -2.510  -0.000   0.000
   19    5    4    3        3       0.628   1.883   0.000  -2.510  -0.000   0.000
   20    5    4    6        3       0.628   1.883   0.000  -2.510  -0.000   0.000
   17    3    4    5        3       0.628   1.883   0.000  -2.510  -0.000   0.000
   23    6    4    3        3       0.628   1.883   0.000  -2.510  -0.000   0.000
   18    3    4    6        3       0.628   1.883   0.000  -2.510  -0.000   0.000
   22    6    4    3        3       0.628   1.883   0.000  -2.510  -0.000   0.000
    4    3    2    1        3      -0.766   2.707   4.025  -5.966  -0.000   0.000

[ pairs ]
     1     4    1
     2     5    1
     2     6    1
     3     7    1
     5     7    1
     4     8    1
     6     9    1
     3    12    1
     6    10    1
     3    13    1
     3    14    1
     7    11    1
     1    17    1
     4    15    1
     1    18    1
     9    11    1
     4    16    1
     5    17    1
     3    19    1
     6    17    1
     5    18    1
     3    20    1
     6    18    1
     3    21    1
     6    19    1
     3    22    1
     6    20    1
     3    23    1
    12    15    1
     6    21    1
     5    22    1
    13    15    1
    12    16    1
     5    23    1
     4    24    1
    14    15    1
    13    16    1
     4    25    1
    14    16    1
     8    22    1
     8    23    1
    15    17    1
     6    26    1
    16    17    1
    15    18    1
     9    24    1
    16    18    1
    10    24    1
     9    25    1
     7    27    1
    10    25    1
     7    28    1
     7    29    1
    11    26    1
    10    27    1
     7    30    1
    10    28    1
     7    31    1
    10    29    1
     9    30    1
     9    31    1
     8    32    1
     8    33    1
     8    34    1
    22    24    1
    23    24    1
    22    25    1
    23    25    1
    24    26    1
    25    26    1
    26    27    1
    26    28    1
    26    29    1
    26    30    1
    26    31    1
    30    32    1
    31    32    1
    30    33    1
    31    33    1
    30    34    1
    31    34    1

