LIGPARGEN GENERATED GRO FILE
   33
    1UNK    C00    1   0.100   0.100   0.000
    1UNK    C01    2  -0.056   0.100   0.000
    1UNK    C02    3  -0.097   0.100   0.147
    1UNK    C03    4  -0.112   0.209  -0.110
    1UNK    C04    5  -0.279   0.237  -0.137
    1UNK    C05    6  -0.367   0.216  -0.007
    1UNK    C06    7  -0.394   0.055   0.003
    1UNK    C07    8  -0.304  -0.017  -0.110
    1UNK    C08    9  -0.314   0.102  -0.210
    1UNK    C09   10  -0.202   0.081  -0.312
    1UNK    C0A   11  -0.086   0.085  -0.214
    1UNK    C0B   12  -0.128  -0.016  -0.090
    1UNK    C0C   13  -0.069  -0.155  -0.099
    1UNK    H0D   14   0.138   0.188   0.054
    1UNK    H0E   15   0.144   0.103  -0.100
    1UNK    H0F   16   0.139   0.010   0.050
    1UNK    H0G   17  -0.062   0.191   0.197
    1UNK    H0H   18  -0.052   0.014   0.199
    1UNK    H0I   19  -0.203   0.093   0.163
    1UNK    H0J   20  -0.055   0.301  -0.124
    1UNK    H0K   21  -0.296   0.329  -0.195
    1UNK    H0M   22  -0.464   0.267  -0.019
    1UNK    H0N   23  -0.318   0.255   0.082
    1UNK    H0O   24  -0.500   0.040  -0.026
    1UNK    H0P   25  -0.382   0.016   0.103
    1UNK    H0Q   26  -0.340  -0.115  -0.145
    1UNK    H0R   27  -0.258   0.105  -0.123
    1UNK    H0S   28  -0.197   0.162  -0.385
    1UNK    H0T   29  -0.210  -0.015  -0.363
    1UNK    H0U   30   0.014   0.074  -0.257
    1UNK    H0V   31  -0.115  -0.212  -0.179
    1UNK    H0W   32  -0.082  -0.209  -0.005
    1UNK    H0X   33   0.039  -0.151  -0.121
   1.00000   1.00000   1.00000

