LIGPARGEN GENERATED GRO FILE
   37
    1UNK    C00    1   0.100   0.100   0.000
    1UNK    C01    2  -0.052   0.100   0.000
    1UNK    C02    3  -0.113   0.100   0.142
    1UNK    C03    4  -0.265   0.100   0.141
    1UNK    C04    5  -0.305  -0.047   0.147
    1UNK    O05    6  -0.337  -0.092   0.016
    1UNK    C06    7  -0.248  -0.186  -0.027
    1UNK    O07    8  -0.255  -0.239  -0.136
    1UNK    C08    9  -0.144  -0.214   0.078
    1UNK    O09   10  -0.155  -0.353   0.109
    1UNK    C0A   11  -0.047  -0.430   0.084
    1UNK    O0B   12   0.061  -0.391   0.043
    1UNK    O0C   13  -0.078  -0.557   0.117
    1UNK    C0D   14   0.029  -0.650   0.101
    1UNK    C0E   15  -0.182  -0.124   0.198
    1UNK    C0F   16  -0.219  -0.209   0.321
    1UNK    N0G   17  -0.076  -0.020   0.221
    1UNK    C0H   18  -0.058   0.018   0.362
    1UNK    H0I   19   0.137   0.095  -0.103
    1UNK    H0J   20   0.140   0.014   0.054
    1UNK    H0K   21   0.139   0.191   0.046
    1UNK    H0M   22  -0.087   0.016  -0.059
    1UNK    H0N   23  -0.087   0.190  -0.053
    1UNK    H0O   24  -0.077   0.192   0.190
    1UNK    H0P   25  -0.307   0.152   0.054
    1UNK    H0Q   26  -0.302   0.150   0.231
    1UNK    H0R   27  -0.394  -0.059   0.210
    1UNK    H0S   28  -0.046  -0.187   0.036
    1UNK    H0T   29  -0.011  -0.751   0.114
    1UNK    H0U   30   0.105  -0.632   0.178
    1UNK    H0V   31   0.073  -0.643   0.001
    1UNK    H0W   32  -0.297  -0.283   0.297
    1UNK    H0X   33  -0.259  -0.149   0.403
    1UNK    H0Y   34  -0.132  -0.265   0.358
    1UNK    H0Z   35  -0.022  -0.066   0.421
    1UNK    H10   36  -0.150   0.058   0.407
    1UNK    H11   37   0.020   0.096   0.370
   1.00000   1.00000   1.00000

