
;
; GENERATED BY LigParGen Server
; Jorgensen Lab @ Yale University 
;
[ atomtypes ]
  opls_807  O807    15.9990     0.000    A    2.96000E-01   8.78640E-01
  opls_818  H818     1.0080     0.000    A    2.50000E-01   1.25520E-01
  opls_814  C814    12.0110     0.000    A    3.50000E-01   2.76144E-01
  opls_824  H824     1.0080     0.000    A    2.50000E-01   1.25520E-01
  opls_809  O809    15.9990     0.000    A    2.90000E-01   5.85760E-01
  opls_836  H836     1.0080     0.000    A    2.50000E-01   1.25520E-01
  opls_834  H834     1.0080     0.000    A    2.50000E-01   1.25520E-01
  opls_828  H828     1.0080     0.000    A    2.50000E-01   1.25520E-01
  opls_812  O812    15.9990     0.000    A    2.90000E-01   5.85760E-01
  opls_802  C802    12.0110     0.000    A    3.50000E-01   2.76144E-01
  opls_827  H827     1.0080     0.000    A    2.50000E-01   1.25520E-01
  opls_801  C801    12.0110     0.000    A    3.50000E-01   2.76144E-01
  opls_811  O811    15.9990     0.000    A    2.96000E-01   8.78640E-01
  opls_822  H822     1.0080     0.000    A    2.50000E-01   1.25520E-01
  opls_803  C803    12.0110     0.000    A    3.50000E-01   2.76144E-01
  opls_825  H825     1.0080     0.000    A    2.50000E-01   1.25520E-01
  opls_830  H830     1.0080     0.000    A    2.50000E-01   1.25520E-01
  opls_821  H821     1.0080     0.000    A    2.50000E-01   1.25520E-01
  opls_820  H820     1.0080     0.000    A    2.50000E-01   1.25520E-01
  opls_829  H829     1.0080     0.000    A    2.50000E-01   1.25520E-01
  opls_831  H831     1.0080     0.000    A    2.50000E-01   1.25520E-01
  opls_810  C810    12.0110     0.000    A    3.55000E-01   2.92880E-01
  opls_816  N816    14.0070     0.000    A    3.30000E-01   7.11280E-01
  opls_832  H832     1.0080     0.000    A    2.50000E-01   1.25520E-01
  opls_800  C800    12.0110     0.000    A    3.50000E-01   2.76144E-01
  opls_815  C815    12.0110     0.000    A    3.50000E-01   2.76144E-01
  opls_806  C806    12.0110     0.000    A    3.55000E-01   2.92880E-01
  opls_823  H823     1.0080     0.000    A    2.50000E-01   1.25520E-01
  opls_813  C813    12.0110     0.000    A    3.50000E-01   2.76144E-01
  opls_805  O805    15.9990     0.000    A    2.90000E-01   5.85760E-01
  opls_826  H826     1.0080     0.000    A    2.50000E-01   1.25520E-01
  opls_835  H835     1.0080     0.000    A    2.50000E-01   1.25520E-01
  opls_819  H819     1.0080     0.000    A    2.50000E-01   1.25520E-01
  opls_804  C804    12.0110     0.000    A    3.50000E-01   2.76144E-01
  opls_833  H833     1.0080     0.000    A    2.50000E-01   1.25520E-01
  opls_817  C817    12.0110     0.000    A    3.50000E-01   2.76144E-01
  opls_808  C808    12.0110     0.000    A    3.50000E-01   2.76144E-01
[ moleculetype ]
; Name               nrexcl
UNK                   3
[ atoms ]
;   nr       type  resnr residue  atom   cgnr     charge       mass  
     1   opls_800      1    UNK   C00      1    -0.2373    12.0110 
     2   opls_801      1    UNK   C01      1    -0.1664    12.0110 
     3   opls_802      1    UNK   C02      1     0.0461    12.0110 
     4   opls_803      1    UNK   C03      1    -0.2357    12.0110 
     5   opls_804      1    UNK   C04      1     0.0394    12.0110 
     6   opls_805      1    UNK   O05      1    -0.3208    15.9990 
     7   opls_806      1    UNK   C06      1     0.4325    12.0110 
     8   opls_807      1    UNK   O07      1    -0.3732    15.9990 
     9   opls_808      1    UNK   C08      1     0.0286    12.0110 
    10   opls_809      1    UNK   O09      1    -0.3031    15.9990 
    11   opls_810      1    UNK   C0A      1     0.5797    12.0110 
    12   opls_811      1    UNK   O0B      1    -0.4816    15.9990 
    13   opls_812      1    UNK   O0C      1     -0.314    15.9990 
    14   opls_813      1    UNK   C0D      1    -0.0437    12.0110 
    15   opls_814      1    UNK   C0E      1     0.0878    12.0110 
    16   opls_815      1    UNK   C0F      1    -0.2293    12.0110 
    17   opls_816      1    UNK   N0G      1    -0.5413    14.0070 
    18   opls_817      1    UNK   C0H      1     -0.053    12.0110 
    19   opls_818      1    UNK   H0I      1     0.0885     1.0080 
    20   opls_819      1    UNK   H0J      1     0.0885     1.0080 
    21   opls_820      1    UNK   H0K      1     0.0885     1.0080 
    22   opls_821      1    UNK   H0M      1      0.093     1.0080 
    23   opls_822      1    UNK   H0N      1      0.093     1.0080 
    24   opls_823      1    UNK   H0O      1       0.12     1.0080 
    25   opls_824      1    UNK   H0P      1     0.1252     1.0080 
    26   opls_825      1    UNK   H0Q      1     0.1252     1.0080 
    27   opls_826      1    UNK   H0R      1     0.1462     1.0080 
    28   opls_827      1    UNK   H0S      1     0.2069     1.0080 
    29   opls_828      1    UNK   H0T      1     0.1098     1.0080 
    30   opls_829      1    UNK   H0U      1     0.1098     1.0080 
    31   opls_830      1    UNK   H0V      1     0.1098     1.0080 
    32   opls_831      1    UNK   H0W      1      0.105     1.0080 
    33   opls_832      1    UNK   H0X      2      0.105     1.0080 
    34   opls_833      1    UNK   H0Y      2      0.105     1.0080 
    35   opls_834      1    UNK   H0Z      2     0.0887     1.0080 
    36   opls_835      1    UNK   H10      2     0.0887     1.0080 
    37   opls_836      1    UNK   H11      2     0.0887     1.0080 
[ bonds ]
    2     1     1      0.1529 224262.400
    3     2     1      0.1529 224262.400
    4     3     1      0.1529 224262.400
    5     4     1      0.1529 224262.400
    6     5     1      0.1410 267776.000
    7     6     1      0.1327 179075.200
    8     7     1      0.1229 476976.000
    9     7     1      0.1522 265265.600
   10     9     1      0.1410 267776.000
   11    10     1      0.1327 179075.200
   12    11     1      0.1229 476976.000
   13    11     1      0.1327 179075.200
   14    13     1      0.1410 267776.000
   15     5     1      0.1529 224262.400
   16    15     1      0.1529 224262.400
   17     3     1      0.1448 319657.600
   18    17     1      0.1448 319657.600
   19     1     1      0.1090 284512.000
   20     1     1      0.1090 284512.000
   21     1     1      0.1090 284512.000
   22     2     1      0.1090 284512.000
   23     2     1      0.1090 284512.000
   24     3     1      0.1090 284512.000
   25     4     1      0.1090 284512.000
   26     4     1      0.1090 284512.000
   27     5     1      0.1090 284512.000
   28     9     1      0.1090 284512.000
   29    14     1      0.1090 284512.000
   30    14     1      0.1090 284512.000
   31    14     1      0.1090 284512.000
   32    16     1      0.1090 284512.000
   33    16     1      0.1090 284512.000
   34    16     1      0.1090 284512.000
   35    18     1      0.1090 284512.000
   36    18     1      0.1090 284512.000
   37    18     1      0.1090 284512.000
   15     9     1      0.1529 224262.400
   17    15     1      0.1448 319657.600

[ angles ]
;  ai    aj    ak funct            c0            c1            c2            c3 
    1     2     3     1    112.700    488.273
    2     3     4     1    112.700    488.273
    3     4     5     1    112.700    488.273
    4     5     6     1    109.500    418.400
    5     6     7     1    116.900    694.544
    6     7     8     1    123.400    694.544
    6     7     9     1    111.400    677.808
    7     9    10     1    109.500    418.400
    9    10    11     1    116.900    694.544
   10    11    12     1    123.400    694.544
   10    11    13     1    118.180    584.923
   11    13    14     1    116.900    694.544
    4     5    15     1    112.700    488.273
    5    15    16     1    112.700    488.273
    2     3    17     1    109.470    470.282
    3    17    18     1    107.200    433.462
    2     1    19     1    110.700    313.800
    2     1    20     1    110.700    313.800
    2     1    21     1    110.700    313.800
    1     2    22     1    110.700    313.800
    1     2    23     1    110.700    313.800
    2     3    24     1    110.700    313.800
    3     4    25     1    110.700    313.800
    3     4    26     1    110.700    313.800
    4     5    27     1    110.700    313.800
    7     9    28     1    109.500    292.880
   13    14    29     1    109.500    292.880
   13    14    30     1    109.500    292.880
   13    14    31     1    109.500    292.880
   15    16    32     1    110.700    313.800
   15    16    33     1    110.700    313.800
   15    16    34     1    110.700    313.800
   17    18    35     1    109.500    292.880
   17    18    36     1    109.500    292.880
   17    18    37     1    109.500    292.880
   19     1    20     1    107.800    276.144
   36    18    37     1    107.800    276.144
   17     3    24     1    109.500    292.880
   20     1    21     1    107.800    276.144
   10     9    28     1    109.500    292.880
    5     4    26     1    110.700    313.800
   32    16    33     1    107.800    276.144
    5    15    17     1    109.470    470.282
    8     7     9     1    120.400    669.440
    3    17    15     1    107.200    433.462
   15    17    18     1    107.200    433.462
   25     4    26     1    107.800    276.144
    3     2    22     1    110.700    313.800
    3     2    23     1    110.700    313.800
   19     1    21     1    107.800    276.144
    6     5    27     1    109.500    292.880
   32    16    34     1    107.800    276.144
   29    14    31     1    107.800    276.144
   10     9    15     1    109.500    418.400
   22     2    23     1    107.800    276.144
    4     3    24     1    110.700    313.800
    5     4    25     1    110.700    313.800
    5    15     9     1    112.700    488.273
   16    15    17     1    109.470    470.282
   29    14    30     1    107.800    276.144
    9    15    17     1    109.470    470.282
   15     9    28     1    110.700    313.800
   30    14    31     1    107.800    276.144
   12    11    13     1    123.400    694.544
   35    18    36     1    107.800    276.144
    4     3    17     1    109.470    470.282
    9    15    16     1    112.700    488.273
    6     5    15     1    109.500    418.400
   35    18    37     1    107.800    276.144
    7     9    15     1    111.100    527.184
   15     5    27     1    110.700    313.800
   33    16    34     1    107.800    276.144

[ dihedrals ]
; IMPROPER DIHEDRAL ANGLES 
;  ai    aj    ak    al funct            c0            c1            c2            c3            c4            c5
     9     7     6     8    4        180.000     43.932     2  
    13    11    10    12    4        180.000     43.932     2  

[ dihedrals ]
; PROPER DIHEDRAL ANGLES
;  ai    aj    ak    al funct            c0            c1            c2            c3            c4            c5
    7    9   15    5        3      -4.960   6.286   1.310  -2.636  -0.000   0.000
   11   10    9    7        3      -2.197   5.201   0.527  -3.531  -0.000   0.000
    7    6    5    4        3      -2.197   5.201   0.527  -3.531  -0.000   0.000
    9    7    6    5        3      31.206  -9.768  -21.439  -0.000  -0.000   0.000
   15    9    7    8        3       0.000   0.000   0.000  -0.000  -0.000   0.000
   15    9    7    6        3      -1.157  -3.471   0.000   4.628  -0.000   0.000
   16   15    9    7        3      -4.960   6.286   1.310  -2.636  -0.000   0.000
    9   15    5    4        3       2.301  -1.464   0.837  -1.674  -0.000   0.000
   15    5    4    3        3       2.301  -1.464   0.837  -1.674  -0.000   0.000
   16   15    5    4        3       2.301  -1.464   0.837  -1.674  -0.000   0.000
    5    4    3    2        3       2.301  -1.464   0.837  -1.674  -0.000   0.000
    4    3    2    1        3       2.301  -1.464   0.837  -1.674  -0.000   0.000
    9   15    5    6        3       2.874   0.582   2.092  -5.548  -0.000   0.000
   16   15    9   10        3       2.874   0.582   2.092  -5.548  -0.000   0.000
   16   15    5    6        3       2.874   0.582   2.092  -5.548  -0.000   0.000
    5   15   17    3        3       1.789   3.492   0.536  -5.816  -0.000   0.000
   16   15   17    3        3       1.789   3.492   0.536  -5.816  -0.000   0.000
    9   15   17    3        3       1.789   3.492   0.536  -5.816  -0.000   0.000
   15    9   10   11        3      -2.197   5.201   0.527  -3.531  -0.000   0.000
   15    5    6    7        3      -2.197   5.201   0.527  -3.531  -0.000   0.000
   18   17   15    9        3       1.789   3.492   0.536  -5.816  -0.000   0.000
   18   17    3    2        3       1.789   3.492   0.536  -5.816  -0.000   0.000
   15   17    3    2        3       1.789   3.492   0.536  -5.816  -0.000   0.000
   15   17    3    4        3       1.789   3.492   0.536  -5.816  -0.000   0.000
   18   17   15   16        3       1.789   3.492   0.536  -5.816  -0.000   0.000
   18   17   15    5        3       1.789   3.492   0.536  -5.816  -0.000   0.000
   18   17    3    4        3       1.789   3.492   0.536  -5.816  -0.000   0.000
   14   13   11   12        3      21.439   0.000  -21.439  -0.000  -0.000   0.000
   14   13   11   10        3      31.206  -9.768  -21.439  -0.000  -0.000   0.000
   28    9    7    8        3       0.000   0.000   0.000  -0.000  -0.000   0.000
   28    9    7    6        3       0.276   0.828   0.000  -1.105  -0.000   0.000
   34   16   15    5        3       0.628   1.883   0.000  -2.510  -0.000   0.000
   26    4    5   15        3       0.628   1.883   0.000  -2.510  -0.000   0.000
   27    5   15   16        3       0.628   1.883   0.000  -2.510  -0.000   0.000
   21    1    2    3        3       0.628   1.883   0.000  -2.510  -0.000   0.000
   24    3    4    5        3       0.628   1.883   0.000  -2.510  -0.000   0.000
   22    2    3    4        3       0.628   1.883   0.000  -2.510  -0.000   0.000
   33   16   15    5        3       0.628   1.883   0.000  -2.510  -0.000   0.000
   28    9   15    5        3       0.628   1.883   0.000  -2.510  -0.000   0.000
   28    9   15   16        3       0.628   1.883   0.000  -2.510  -0.000   0.000
   26    4    3    2        3       0.628   1.883   0.000  -2.510  -0.000   0.000
   25    4    5   15        3       0.628   1.883   0.000  -2.510  -0.000   0.000
   24    3    2    1        3       0.628   1.883   0.000  -2.510  -0.000   0.000
   20    1    2    3        3       0.628   1.883   0.000  -2.510  -0.000   0.000
   32   16   15    9        3       0.628   1.883   0.000  -2.510  -0.000   0.000
   25    4    3    2        3       0.628   1.883   0.000  -2.510  -0.000   0.000
   27    5    4    3        3       0.628   1.883   0.000  -2.510  -0.000   0.000
   33   16   15    9        3       0.628   1.883   0.000  -2.510  -0.000   0.000
   27    5   15    9        3       0.628   1.883   0.000  -2.510  -0.000   0.000
   19    1    2    3        3       0.628   1.883   0.000  -2.510  -0.000   0.000
   23    2    3    4        3       0.628   1.883   0.000  -2.510  -0.000   0.000
   32   16   15    5        3       0.628   1.883   0.000  -2.510  -0.000   0.000
   34   16   15    9        3       0.628   1.883   0.000  -2.510  -0.000   0.000
   23    2    1   19        3       0.628   1.883   0.000  -2.510  -0.000   0.000
   24    3    2   23        3       0.628   1.883   0.000  -2.510  -0.000   0.000
   23    2    1   21        3       0.628   1.883   0.000  -2.510  -0.000   0.000
   26    4    3   24        3       0.628   1.883   0.000  -2.510  -0.000   0.000
   22    2    1   20        3       0.628   1.883   0.000  -2.510  -0.000   0.000
   24    3    2   22        3       0.628   1.883   0.000  -2.510  -0.000   0.000
   25    4    3   24        3       0.628   1.883   0.000  -2.510  -0.000   0.000
   27    5    4   25        3       0.628   1.883   0.000  -2.510  -0.000   0.000
   27    5    4   26        3       0.628   1.883   0.000  -2.510  -0.000   0.000
   23    2    1   20        3       0.628   1.883   0.000  -2.510  -0.000   0.000
   22    2    1   19        3       0.628   1.883   0.000  -2.510  -0.000   0.000
   22    2    1   21        3       0.628   1.883   0.000  -2.510  -0.000   0.000
   32   16   15   17        3      -4.096   5.088   2.966  -3.958  -0.000   0.000
   26    4    3   17        3      -4.096   5.088   2.966  -3.958  -0.000   0.000
   27    5   15   17        3      -4.096   5.088   2.966  -3.958  -0.000   0.000
   28    9   15   17        3      -4.096   5.088   2.966  -3.958  -0.000   0.000
   34   16   15   17        3      -4.096   5.088   2.966  -3.958  -0.000   0.000
   25    4    3   17        3      -4.096   5.088   2.966  -3.958  -0.000   0.000
   23    2    3   17        3      -4.096   5.088   2.966  -3.958  -0.000   0.000
   33   16   15   17        3      -4.096   5.088   2.966  -3.958  -0.000   0.000
   22    2    3   17        3      -4.096   5.088   2.966  -3.958  -0.000   0.000
   25    4    5    6        3       0.979   2.937   0.000  -3.916  -0.000   0.000
   26    4    5    6        3       0.979   2.937   0.000  -3.916  -0.000   0.000
   37   18   17    3        3       1.172   3.515   0.000  -4.686  -0.000   0.000
   24    3   17   18        3       1.172   3.515   0.000  -4.686  -0.000   0.000
   36   18   17    3        3       1.172   3.515   0.000  -4.686  -0.000   0.000
   36   18   17   15        3       1.172   3.515   0.000  -4.686  -0.000   0.000
   35   18   17    3        3       1.172   3.515   0.000  -4.686  -0.000   0.000
   35   18   17   15        3       1.172   3.515   0.000  -4.686  -0.000   0.000
   37   18   17   15        3       1.172   3.515   0.000  -4.686  -0.000   0.000
   24    3   17   15        3       1.172   3.515   0.000  -4.686  -0.000   0.000
   29   14   13   11        3       0.414   1.243   0.000  -1.657  -0.000   0.000
   27    5    6    7        3       0.414   1.243   0.000  -1.657  -0.000   0.000
   30   14   13   11        3       0.414   1.243   0.000  -1.657  -0.000   0.000
   31   14   13   11        3       0.414   1.243   0.000  -1.657  -0.000   0.000
   28    9   10   11        3       0.414   1.243   0.000  -1.657  -0.000   0.000
   17   15    9    7        3       3.335  -1.552   2.820  -4.602  -0.000   0.000
   17    3    2    1        3       3.335  -1.552   2.820  -4.602  -0.000   0.000
   17   15    5    4        3       3.335  -1.552   2.820  -4.602  -0.000   0.000
   17    3    4    5        3       3.335  -1.552   2.820  -4.602  -0.000   0.000
   17   15    9   10        3      16.736  -16.736   0.000  -0.000  -0.000   0.000
   17   15    5    6        3      16.736  -16.736   0.000  -0.000  -0.000   0.000
    8    7    6    5        3      21.439   0.000  -21.439  -0.000  -0.000   0.000
   12   11   10    9        3      21.439   0.000  -21.439  -0.000  -0.000   0.000
   13   11   10    9        3      31.206  -9.768  -21.439  -0.000  -0.000   0.000
   10    9    7    8        3       0.000   0.000   0.000  -0.000  -0.000   0.000
   10    9    7    6        3      -1.151   1.151   0.000  -0.000  -0.000   0.000
   10    9   15    5        3       2.874   0.582   2.092  -5.548  -0.000   0.000
    6    5    4    3        3       2.874   0.582   2.092  -5.548  -0.000   0.000

[ pairs ]
     1     4    1
     2     5    1
     3     6    1
     4     7    1
     3     9    1
     5     8    1
     4     9    1
     5    10    1
     6    10    1
     2    15    1
     8    10    1
     7    11    1
     1    17    1
     3    16    1
     4    16    1
     2    18    1
     9    12    1
     9    13    1
     6    16    1
     4    18    1
     3    19    1
     8    15    1
     7    16    1
     6    17    1
     5    18    1
     3    20    1
    10    14    1
     7    17    1
     3    21    1
     1    24    1
    12    14    1
    11    15    1
    10    16    1
     4    22    1
    10    17    1
     9    18    1
     4    23    1
     2    25    1
     2    26    1
     5    24    1
     3    27    1
     6    25    1
     6    26    1
     5    28    1
    16    18    1
     7    27    1
     6    28    1
     9    27    1
     8    28    1
     5    32    1
     5    33    1
     3    35    1
    17    22    1
    15    24    1
    11    28    1
     5    34    1
     3    36    1
    17    23    1
    15    25    1
    11    29    1
     3    37    1
    19    22    1
    15    26    1
    11    30    1
     9    32    1
    20    22    1
    19    23    1
    18    24    1
    17    25    1
    11    31    1
     9    33    1
    21    22    1
    20    23    1
    17    26    1
    16    27    1
     9    34    1
    21    23    1
    17    27    1
    16    28    1
    17    28    1
    22    24    1
    23    24    1
    24    25    1
    17    32    1
    24    26    1
    17    33    1
    15    35    1
    17    34    1
    15    36    1
    25    27    1
    15    37    1
    26    27    1

