
;
; GENERATED BY LigParGen Server
; Jorgensen Lab @ Yale University 
;
[ atomtypes ]
  opls_818  H818     1.0080     0.000    A    2.50000E-01   1.25520E-01
  opls_824  H824     1.0080     0.000    A    2.50000E-01   1.25520E-01
  opls_804  C804    12.0110     0.000    A    3.50000E-01   2.76144E-01
  opls_828  H828     1.0080     0.000    A    2.50000E-01   1.25520E-01
  opls_813  H813     1.0080     0.000    A    2.50000E-01   1.25520E-01
  opls_802 Cl802    35.4500     0.000    A    3.40000E-01   1.25520E+00
  opls_811  C811    12.0110     0.000    A    3.50000E-01   2.76144E-01
  opls_815  H815     1.0080     0.000    A    2.50000E-01   1.25520E-01
  opls_809  C809    12.0110     0.000    A    3.50000E-01   2.76144E-01
  opls_822  H822     1.0080     0.000    A    2.50000E-01   1.25520E-01
  opls_807  C807    12.0110     0.000    A    3.50000E-01   2.76144E-01
  opls_825  H825     1.0080     0.000    A    2.50000E-01   1.25520E-01
  opls_814  H814     1.0080     0.000    A    2.50000E-01   1.25520E-01
  opls_821  H821     1.0080     0.000    A    2.50000E-01   1.25520E-01
  opls_820  H820     1.0080     0.000    A    2.50000E-01   1.25520E-01
  opls_829  H829     1.0080     0.000    A    2.50000E-01   1.25520E-01
  opls_816  H816     1.0080     0.000    A    2.50000E-01   1.25520E-01
  opls_800  C800    12.0110     0.000    A    3.50000E-01   2.76144E-01
  opls_805  C805    12.0110     0.000    A    3.30000E-01   2.76144E-01
  opls_823  H823     1.0080     0.000    A    2.50000E-01   1.25520E-01
  opls_826  H826     1.0080     0.000    A    2.50000E-01   1.25520E-01
  opls_806  N806    14.0070     0.000    A    3.20000E-01   7.11280E-01
  opls_819  H819     1.0080     0.000    A    2.50000E-01   1.25520E-01
  opls_810  C810    12.0110     0.000    A    3.50000E-01   2.76144E-01
  opls_827  H827     1.0080     0.000    A    2.50000E-01   1.25520E-01
  opls_801  C801    12.0110     0.000    A    3.50000E-01   2.76144E-01
  opls_808  C808    12.0110     0.000    A    3.50000E-01   2.76144E-01
  opls_817  H817     1.0080     0.000    A    2.50000E-01   1.25520E-01
  opls_812  H812     1.0080     0.000    A    2.50000E-01   1.25520E-01
  opls_803  C803    12.0110     0.000    A    3.50000E-01   2.76144E-01
[ moleculetype ]
; Name               nrexcl
UNK                   3
[ atoms ]
;   nr       type  resnr residue  atom   cgnr     charge       mass  
     1   opls_800      1    UNK   C00      1    -0.2518    12.0110 
     2   opls_801      1    UNK   C01      1     0.0794    12.0110 
     3   opls_802      1    UNK   Cl0      1    -0.2868    35.4500 
     4   opls_803      1    UNK   C03      1    -0.1821    12.0110 
     5   opls_804      1    UNK   C04      1    -0.0037    12.0110 
     6   opls_805      1    UNK   C05      1     0.1628    12.0110 
     7   opls_806      1    UNK   N06      1    -0.3902    14.0070 
     8   opls_807      1    UNK   C07      1    -0.1568    12.0110 
     9   opls_808      1    UNK   C08      1    -0.0521    12.0110 
    10   opls_809      1    UNK   C09      1    -0.2353    12.0110 
    11   opls_810      1    UNK   C0A      1    -0.2338    12.0110 
    12   opls_811      1    UNK   C0B      1    -0.2335    12.0110 
    13   opls_812      1    UNK   H0C      1        0.1     1.0080 
    14   opls_813      1    UNK   H0D      1        0.1     1.0080 
    15   opls_814      1    UNK   H0E      1        0.1     1.0080 
    16   opls_815      1    UNK   H0F      1     0.1362     1.0080 
    17   opls_816      1    UNK   H0G      1      0.118     1.0080 
    18   opls_817      1    UNK   H0H      1      0.118     1.0080 
    19   opls_818      1    UNK   H0I      1     0.1376     1.0080 
    20   opls_819      1    UNK   H0J      1     0.1016     1.0080 
    21   opls_820      1    UNK   H0K      1     0.1016     1.0080 
    22   opls_821      1    UNK   H0M      1     0.0882     1.0080 
    23   opls_822      1    UNK   H0N      1     0.0882     1.0080 
    24   opls_823      1    UNK   H0O      1     0.0882     1.0080 
    25   opls_824      1    UNK   H0P      1      0.085     1.0080 
    26   opls_825      1    UNK   H0Q      1      0.085     1.0080 
    27   opls_826      1    UNK   H0R      1      0.085     1.0080 
    28   opls_827      1    UNK   H0S      1     0.0836     1.0080 
    29   opls_828      1    UNK   H0T      1     0.0836     1.0080 
    30   opls_829      1    UNK   H0U      1     0.0836     1.0080 
[ bonds ]
    2     1     1      0.1529 224262.400
    3     2     1      0.1781 205016.000
    4     2     1      0.1529 224262.400
    5     4     1      0.1529 224262.400
    6     5     1      0.1470 326352.000
    7     6     1      0.1157 543920.000
    8     5     1      0.1529 224262.400
    9     8     1      0.1529 224262.400
   10     9     1      0.1529 224262.400
   11     9     1      0.1529 224262.400
   12     9     1      0.1529 224262.400
   13     1     1      0.1090 284512.000
   14     1     1      0.1090 284512.000
   15     1     1      0.1090 284512.000
   16     2     1      0.1090 284512.000
   17     4     1      0.1090 284512.000
   18     4     1      0.1090 284512.000
   19     5     1      0.1090 284512.000
   20     8     1      0.1090 284512.000
   21     8     1      0.1090 284512.000
   22    10     1      0.1090 284512.000
   23    10     1      0.1090 284512.000
   24    10     1      0.1090 284512.000
   25    11     1      0.1090 284512.000
   26    11     1      0.1090 284512.000
   27    11     1      0.1090 284512.000
   28    12     1      0.1090 284512.000
   29    12     1      0.1090 284512.000
   30    12     1      0.1090 284512.000

[ angles ]
;  ai    aj    ak funct            c0            c1            c2            c3 
    1     2     3     1    109.800    577.392
    1     2     4     1    112.700    488.273
    2     4     5     1    112.700    488.273
    4     5     6     1    112.700    488.273
    5     6     7     1    180.000   1255.200
    4     5     8     1    112.700    488.273
    5     8     9     1    112.700    488.273
    8     9    10     1    112.700    488.273
    8     9    11     1    112.700    488.273
    8     9    12     1    112.700    488.273
    2     1    13     1    110.700    313.800
    2     1    14     1    110.700    313.800
    2     1    15     1    110.700    313.800
    1     2    16     1    110.700    313.800
    2     4    17     1    110.700    313.800
    2     4    18     1    110.700    313.800
    4     5    19     1    110.700    313.800
    5     8    20     1    110.700    313.800
    5     8    21     1    110.700    313.800
    9    10    22     1    110.700    313.800
    9    10    23     1    110.700    313.800
    9    10    24     1    110.700    313.800
    9    11    25     1    110.700    313.800
    9    11    26     1    110.700    313.800
    9    11    27     1    110.700    313.800
    9    12    28     1    110.700    313.800
    9    12    29     1    110.700    313.800
    9    12    30     1    110.700    313.800
   13     1    14     1    107.800    276.144
   29    12    30     1    107.800    276.144
    9     8    20     1    110.700    313.800
    6     5    19     1    108.500    292.880
   28    12    30     1    107.800    276.144
   22    10    23     1    107.800    276.144
   17     4    18     1    107.800    276.144
    3     2    16     1    107.600    426.768
   14     1    15     1    107.800    276.144
   22    10    24     1    107.800    276.144
    3     2     4     1    109.800    577.392
    8     5    19     1    110.700    313.800
    6     5     8     1    112.700    488.273
   23    10    24     1    107.800    276.144
   11     9    12     1    112.700    488.273
   10     9    11     1    112.700    488.273
   26    11    27     1    107.800    276.144
   28    12    29     1    107.800    276.144
   20     8    21     1    107.800    276.144
    9     8    21     1    110.700    313.800
   25    11    26     1    107.800    276.144
    4     2    16     1    110.700    313.800
   25    11    27     1    107.800    276.144
    5     4    18     1    110.700    313.800
   13     1    15     1    107.800    276.144
   10     9    12     1    112.700    488.273
    5     4    17     1    110.700    313.800

[ dihedrals ]
; IMPROPER DIHEDRAL ANGLES 
;  ai    aj    ak    al funct            c0            c1            c2            c3            c4            c5

[ dihedrals ]
; PROPER DIHEDRAL ANGLES
;  ai    aj    ak    al funct            c0            c1            c2            c3            c4            c5
   12    9    8    5        3       2.301  -1.464   0.837  -1.674  -0.000   0.000
    5    4    2    1        3       2.301  -1.464   0.837  -1.674  -0.000   0.000
   11    9    8    5        3       2.301  -1.464   0.837  -1.674  -0.000   0.000
    9    8    5    4        3       2.301  -1.464   0.837  -1.674  -0.000   0.000
   10    9    8    5        3       2.301  -1.464   0.837  -1.674  -0.000   0.000
    8    5    4    2        3       2.301  -1.464   0.837  -1.674  -0.000   0.000
    9    8    5    6        3      -2.720   0.000   2.720  -0.000  -0.000   0.000
    5    4    2    3        3       0.837   2.510   0.000  -3.347  -0.000   0.000
    8    5    6    7        3       0.000   0.000   0.000  -0.000  -0.000   0.000
    6    5    4    2        3      -2.720   0.000   2.720  -0.000  -0.000   0.000
   30   12    9   10        3       0.628   1.883   0.000  -2.510  -0.000   0.000
   30   12    9   11        3       0.628   1.883   0.000  -2.510  -0.000   0.000
   21    8    5    4        3       0.628   1.883   0.000  -2.510  -0.000   0.000
   27   11    9   10        3       0.628   1.883   0.000  -2.510  -0.000   0.000
   19    5    4    2        3       0.628   1.883   0.000  -2.510  -0.000   0.000
   27   11    9    8        3       0.628   1.883   0.000  -2.510  -0.000   0.000
   22   10    9   11        3       0.628   1.883   0.000  -2.510  -0.000   0.000
   22   10    9   12        3       0.628   1.883   0.000  -2.510  -0.000   0.000
   21    8    9   12        3       0.628   1.883   0.000  -2.510  -0.000   0.000
   28   12    9   11        3       0.628   1.883   0.000  -2.510  -0.000   0.000
   20    8    9   12        3       0.628   1.883   0.000  -2.510  -0.000   0.000
   13    1    2    4        3       0.628   1.883   0.000  -2.510  -0.000   0.000
   18    4    5    8        3       0.628   1.883   0.000  -2.510  -0.000   0.000
   25   11    9   10        3       0.628   1.883   0.000  -2.510  -0.000   0.000
   29   12    9   10        3       0.628   1.883   0.000  -2.510  -0.000   0.000
   24   10    9   11        3       0.628   1.883   0.000  -2.510  -0.000   0.000
   30   12    9    8        3       0.628   1.883   0.000  -2.510  -0.000   0.000
   27   11    9   12        3       0.628   1.883   0.000  -2.510  -0.000   0.000
   20    8    9   11        3       0.628   1.883   0.000  -2.510  -0.000   0.000
   26   11    9   10        3       0.628   1.883   0.000  -2.510  -0.000   0.000
   15    1    2    4        3       0.628   1.883   0.000  -2.510  -0.000   0.000
   19    5    8    9        3       0.628   1.883   0.000  -2.510  -0.000   0.000
   21    8    9   10        3       0.628   1.883   0.000  -2.510  -0.000   0.000
   29   12    9    8        3       0.628   1.883   0.000  -2.510  -0.000   0.000
   23   10    9   11        3       0.628   1.883   0.000  -2.510  -0.000   0.000
   29   12    9   11        3       0.628   1.883   0.000  -2.510  -0.000   0.000
   14    1    2    4        3       0.628   1.883   0.000  -2.510  -0.000   0.000
   17    4    5    8        3       0.628   1.883   0.000  -2.510  -0.000   0.000
   21    8    9   11        3       0.628   1.883   0.000  -2.510  -0.000   0.000
   28   12    9   10        3       0.628   1.883   0.000  -2.510  -0.000   0.000
   24   10    9   12        3       0.628   1.883   0.000  -2.510  -0.000   0.000
   23   10    9    8        3       0.628   1.883   0.000  -2.510  -0.000   0.000
   24   10    9    8        3       0.628   1.883   0.000  -2.510  -0.000   0.000
   17    4    2    1        3       0.628   1.883   0.000  -2.510  -0.000   0.000
   25   11    9   12        3       0.628   1.883   0.000  -2.510  -0.000   0.000
   20    8    5    4        3       0.628   1.883   0.000  -2.510  -0.000   0.000
   26   11    9   12        3       0.628   1.883   0.000  -2.510  -0.000   0.000
   18    4    2    1        3       0.628   1.883   0.000  -2.510  -0.000   0.000
   28   12    9    8        3       0.628   1.883   0.000  -2.510  -0.000   0.000
   26   11    9    8        3       0.628   1.883   0.000  -2.510  -0.000   0.000
   25   11    9    8        3       0.628   1.883   0.000  -2.510  -0.000   0.000
   23   10    9   12        3       0.628   1.883   0.000  -2.510  -0.000   0.000
   16    2    4    5        3       0.628   1.883   0.000  -2.510  -0.000   0.000
   22   10    9    8        3       0.628   1.883   0.000  -2.510  -0.000   0.000
   20    8    9   10        3       0.628   1.883   0.000  -2.510  -0.000   0.000
   21    8    5    6        3       0.766   2.297   0.000  -3.063  -0.000   0.000
   17    4    5    6        3       0.766   2.297   0.000  -3.063  -0.000   0.000
   18    4    5    6        3       0.766   2.297   0.000  -3.063  -0.000   0.000
   20    8    5    6        3       0.766   2.297   0.000  -3.063  -0.000   0.000
   17    4    2    3        3       0.837   2.510   0.000  -3.347  -0.000   0.000
   15    1    2    3        3       0.837   2.510   0.000  -3.347  -0.000   0.000
   13    1    2    3        3       0.837   2.510   0.000  -3.347  -0.000   0.000
   18    4    2    3        3       0.837   2.510   0.000  -3.347  -0.000   0.000
   14    1    2    3        3       0.837   2.510   0.000  -3.347  -0.000   0.000
   16    2    1   14        3       0.628   1.883   0.000  -2.510  -0.000   0.000
   17    4    2   16        3       0.628   1.883   0.000  -2.510  -0.000   0.000
   19    5    4   17        3       0.628   1.883   0.000  -2.510  -0.000   0.000
   21    8    5   19        3       0.628   1.883   0.000  -2.510  -0.000   0.000
   19    5    4   18        3       0.628   1.883   0.000  -2.510  -0.000   0.000
   16    2    1   15        3       0.628   1.883   0.000  -2.510  -0.000   0.000
   20    8    5   19        3       0.628   1.883   0.000  -2.510  -0.000   0.000
   16    2    1   13        3       0.628   1.883   0.000  -2.510  -0.000   0.000
   18    4    2   16        3       0.628   1.883   0.000  -2.510  -0.000   0.000
   19    5    6    7        3       0.000   0.000   0.000  -0.000  -0.000   0.000
    7    6    5    4        3       0.000   0.000   0.000  -0.000  -0.000   0.000

[ pairs ]
     1     5    1
     3     5    1
     2     6    1
     2     8    1
     4     7    1
     4     9    1
     7     8    1
     6     9    1
     5    10    1
     5    11    1
     3    13    1
     5    12    1
     4    13    1
     3    14    1
     4    14    1
     3    15    1
     1    17    1
     4    15    1
     1    18    1
     3    17    1
     5    16    1
     3    18    1
     2    19    1
     6    17    1
     6    18    1
     4    20    1
     8    17    1
     4    21    1
     8    18    1
     7    19    1
     6    20    1
     6    21    1
     9    19    1
    13    16    1
    14    16    1
    10    20    1
     8    22    1
    15    16    1
    11    20    1
    10    21    1
     8    23    1
    12    20    1
    11    21    1
     8    24    1
    16    17    1
    12    21    1
    11    22    1
     8    25    1
    16    18    1
    12    22    1
    11    23    1
     8    26    1
    12    23    1
    11    24    1
    10    25    1
     8    27    1
    17    19    1
    12    24    1
    10    26    1
     8    28    1
    18    19    1
    12    25    1
    10    27    1
     8    29    1
    12    26    1
    10    28    1
     8    30    1
    19    20    1
    12    27    1
    11    28    1
    10    29    1
    19    21    1
    11    29    1
    10    30    1
    11    30    1

