LIGPARGEN GENERATED GRO FILE
   30
    1UNK    C00    1   0.100   0.100   0.000
    1UNK    C01    2  -0.052   0.100   0.000
    1UNK    Cl0    3  -0.110   0.100   0.170
    1UNK    C03    4  -0.114   0.221  -0.074
    1UNK    C04    5  -0.083   0.224  -0.226
    1UNK    C05    6  -0.134   0.100  -0.286
    1UNK    N06    7  -0.172  -0.001  -0.328
    1UNK    C07    8  -0.145   0.349  -0.294
    1UNK    C08    9  -0.102   0.379  -0.442
    1UNK    C09   10  -0.144   0.268  -0.540
    1UNK    C0A   11  -0.173   0.509  -0.488
    1UNK    C0B   12   0.050   0.400  -0.452
    1UNK    H0C   13   0.139   0.013   0.055
    1UNK    H0D   14   0.140   0.190   0.047
    1UNK    H0E   15   0.140   0.094  -0.102
    1UNK    H0F   16  -0.088   0.006  -0.043
    1UNK    H0G   17  -0.079   0.314  -0.028
    1UNK    H0H   18  -0.223   0.218  -0.060
    1UNK    H0I   19   0.026   0.229  -0.237
    1UNK    H0J   20  -0.118   0.436  -0.233
    1UNK    H0K   21  -0.255   0.341  -0.289
    1UNK    H0M   22  -0.251   0.243  -0.528
    1UNK    H0N   23  -0.085   0.177  -0.527
    1UNK    H0O   24  -0.129   0.300  -0.644
    1UNK    H0P   25  -0.281   0.494  -0.496
    1UNK    H0Q   26  -0.136   0.541  -0.586
    1UNK    H0R   27  -0.155   0.591  -0.417
    1UNK    H0S   28   0.105   0.310  -0.424
    1UNK    H0T   29   0.082   0.482  -0.388
    1UNK    H0U   30   0.079   0.424  -0.555
   1.00000   1.00000   1.00000

