LIGPARGEN GENERATED GRO FILE
   44
    1UNK    C00    1   0.100   0.100   0.000
    1UNK    C01    2  -0.052   0.100   0.000
    1UNK    C02    3  -0.107   0.100   0.142
    1UNK    C03    4  -0.260   0.100   0.145
    1UNK    C04    5  -0.310   0.100   0.289
    1UNK    C05    6  -0.462   0.101   0.296
    1UNK    C06    7  -0.508   0.101   0.442
    1UNK    C07    8  -0.661   0.101   0.451
    1UNK    C08    9  -0.713   0.095   0.597
    1UNK    C09   10  -0.663   0.210   0.686
    1UNK    Cl0   11  -0.710   0.371   0.627
    1UNK    C0B   12  -0.868   0.088   0.600
    1UNK    C0C   13  -0.924  -0.038   0.533
    1UNK    C0D   14  -1.077  -0.042   0.538
    1UNK    C0E   15  -1.130  -0.164   0.465
    1UNK    H0F   16   0.138   0.100  -0.102
    1UNK    H0G   17   0.139   0.011   0.051
    1UNK    H0H   18   0.139   0.189   0.051
    1UNK    H0I   19  -0.088   0.012  -0.054
    1UNK    H0J   20  -0.088   0.188  -0.054
    1UNK    H0K   21  -0.069   0.188   0.196
    1UNK    H0M   22  -0.069   0.012   0.196
    1UNK    H0N   23  -0.298   0.012   0.092
    1UNK    H0O   24  -0.297   0.189   0.092
    1UNK    H0P   25  -0.271   0.189   0.341
    1UNK    H0Q   26  -0.272   0.012   0.341
    1UNK    H0R   27  -0.502   0.013   0.244
    1UNK    H0S   28  -0.502   0.189   0.244
    1UNK    H0T   29  -0.467   0.189   0.491
    1UNK    H0U   30  -0.469   0.012   0.493
    1UNK    H0V   31  -0.696   0.014   0.396
    1UNK    H0W   32  -0.701   0.189   0.400
    1UNK    H0X   33  -0.675   0.002   0.641
    1UNK    H0Y   34  -0.553   0.209   0.693
    1UNK    H0Z   35  -0.702   0.200   0.787
    1UNK    H10   36  -0.911   0.176   0.552
    1UNK    H11   37  -0.901   0.089   0.705
    1UNK    H12   38  -0.883  -0.127   0.582
    1UNK    H13   39  -0.894  -0.041   0.428
    1UNK    H14   40  -1.118   0.048   0.492
    1UNK    H15   41  -1.111  -0.044   0.642
    1UNK    H16   42  -1.099  -0.163   0.360
    1UNK    H17   43  -1.240  -0.166   0.468
    1UNK    H18   44  -1.093  -0.256   0.511
   1.00000   1.00000   1.00000

