LIGPARGEN GENERATED GRO FILE
   36
    1UNK    C00    1   0.100   0.100   0.000
    1UNK    C01    2  -0.052   0.100   0.000
    1UNK    O02    3  -0.097   0.100   0.135
    1UNK    C03    4  -0.240   0.100   0.143
    1UNK    C04    5  -0.285   0.110   0.289
    1UNK    C05    6  -0.229   0.237   0.353
    1UNK    C06    7  -0.437   0.104   0.295
    1UNK    O07    8  -0.505   0.104   0.192
    1UNK    C08    9  -0.505   0.100   0.433
    1UNK    O09   10  -0.636   0.157   0.427
    1UNK    C0A   11  -0.640   0.287   0.392
    1UNK    O0B   12  -0.543   0.359   0.376
    1UNK    O0C   13  -0.770   0.323   0.379
    1UNK    C0D   14  -0.792   0.454   0.327
    1UNK    C0E   15  -0.517  -0.044   0.482
    1UNK    O0F   16  -0.439  -0.134   0.452
    1UNK    O0G   17  -0.620  -0.058   0.570
    1UNK    C0H   18  -0.642  -0.191   0.617
    1UNK    H0I   19   0.139   0.095  -0.102
    1UNK    H0J   20   0.139   0.015   0.057
    1UNK    H0K   21   0.138   0.191   0.048
    1UNK    H0M   22  -0.089   0.011  -0.051
    1UNK    H0N   23  -0.088   0.189  -0.052
    1UNK    H0O   24  -0.278   0.008   0.097
    1UNK    H0P   25  -0.278   0.186   0.086
    1UNK    H0Q   26  -0.245   0.023   0.343
    1UNK    H0R   27  -0.255   0.325   0.294
    1UNK    H0S   28  -0.119   0.232   0.359
    1UNK    H0T   29  -0.266   0.253   0.454
    1UNK    H0U   30  -0.446   0.154   0.508
    1UNK    H0V   31  -0.897   0.479   0.341
    1UNK    H0W   32  -0.770   0.454   0.220
    1UNK    H0X   33  -0.731   0.528   0.379
    1UNK    H0Y   34  -0.731  -0.190   0.681
    1UNK    H0Z   35  -0.557  -0.225   0.676
    1UNK    H10   36  -0.662  -0.258   0.533
   1.00000   1.00000   1.00000

