
;
; GENERATED BY LigParGen Server
; Jorgensen Lab @ Yale University 
;
[ atomtypes ]
  opls_818  H818     1.0080     0.000    A    2.50000E-01   1.25520E-01
  opls_814  C814    12.0110     0.000    A    3.50000E-01   2.76144E-01
  opls_824  H824     1.0080     0.000    A    2.50000E-01   1.25520E-01
  opls_804  O804    15.9990     0.000    A    2.96000E-01   8.78640E-01
  opls_836  H836     1.0080     0.000    A    2.50000E-01   1.25520E-01
  opls_834  H834     1.0080     0.000    A    2.50000E-01   1.25520E-01
  opls_828  H828     1.0080     0.000    A    2.50000E-01   1.25520E-01
  opls_812  C812    12.0110     0.000    A    3.50000E-01   2.76144E-01
  opls_806  C806    12.0110     0.000    A    3.50000E-01   2.76144E-01
  opls_827  H827     1.0080     0.000    A    2.50000E-01   1.25520E-01
  opls_801  C801    12.0110     0.000    A    3.50000E-01   2.76144E-01
  opls_838  H838     1.0080     0.000    A    2.50000E-01   1.25520E-01
  opls_811  O811    15.9990     0.000    A    2.96000E-01   8.78640E-01
  opls_822  H822     1.0080     0.000    A    2.50000E-01   1.25520E-01
  opls_807  C807    12.0110     0.000    A    3.50000E-01   2.76144E-01
  opls_825  H825     1.0080     0.000    A    2.50000E-01   1.25520E-01
  opls_830  H830     1.0080     0.000    A    2.50000E-01   1.25520E-01
  opls_821  H821     1.0080     0.000    A    2.50000E-01   1.25520E-01
  opls_820  H820     1.0080     0.000    A    2.50000E-01   1.25520E-01
  opls_837  H837     1.0080     0.000    A    2.50000E-01   1.25520E-01
  opls_829  H829     1.0080     0.000    A    2.50000E-01   1.25520E-01
  opls_831  H831     1.0080     0.000    A    2.50000E-01   1.25520E-01
  opls_810  C810    12.0110     0.000    A    3.55000E-01   2.92880E-01
  opls_809  C809    12.0110     0.000    A    3.50000E-01   2.76144E-01
  opls_832  H832     1.0080     0.000    A    2.50000E-01   1.25520E-01
  opls_800  C800    12.0110     0.000    A    3.50000E-01   2.76144E-01
  opls_815  C815    12.0110     0.000    A    3.50000E-01   2.76144E-01
  opls_823  H823     1.0080     0.000    A    2.50000E-01   1.25520E-01
  opls_813  C813    12.0110     0.000    A    3.50000E-01   2.76144E-01
  opls_816  O816    15.9990     0.000    A    2.90000E-01   5.85760E-01
  opls_826  H826     1.0080     0.000    A    2.50000E-01   1.25520E-01
  opls_835  H835     1.0080     0.000    A    2.50000E-01   1.25520E-01
  opls_841  H841     1.0080     0.000    A    2.50000E-01   1.25520E-01
  opls_819  H819     1.0080     0.000    A    2.50000E-01   1.25520E-01
  opls_833  H833     1.0080     0.000    A    2.50000E-01   1.25520E-01
  opls_802  O802    15.9990     0.000    A    2.90000E-01   5.85760E-01
  opls_839  H839     1.0080     0.000    A    2.50000E-01   1.25520E-01
  opls_817  C817    12.0110     0.000    A    3.50000E-01   2.76144E-01
  opls_803  C803    12.0110     0.000    A    3.55000E-01   2.92880E-01
  opls_808  C808    12.0110     0.000    A    3.50000E-01   2.76144E-01
  opls_840  H840     1.0080     0.000    A    2.50000E-01   1.25520E-01
  opls_805  O805    15.9990     0.000    A    2.90000E-01   5.85760E-01
[ moleculetype ]
; Name               nrexcl
UNK                   3
[ atoms ]
;   nr       type  resnr residue  atom   cgnr     charge       mass  
     1   opls_800      1    UNK   C00      1    -0.2731    12.0110 
     2   opls_801      1    UNK   C01      1     0.0187    12.0110 
     3   opls_802      1    UNK   O02      1    -0.3207    15.9990 
     4   opls_803      1    UNK   C03      1     0.5774    12.0110 
     5   opls_804      1    UNK   O04      1    -0.5089    15.9990 
     6   opls_805      1    UNK   O05      1    -0.3239    15.9990 
     7   opls_806      1    UNK   C06      1     0.0217    12.0110 
     8   opls_807      1    UNK   C07      1    -0.0474    12.0110 
     9   opls_808      1    UNK   C08      1    -0.2456    12.0110 
    10   opls_809      1    UNK   C09      1    -0.2495    12.0110 
    11   opls_810      1    UNK   C0A      1     0.3153    12.0110 
    12   opls_811      1    UNK   O0B      1    -0.4436    15.9990 
    13   opls_812      1    UNK   C0C      1    -0.1739    12.0110 
    14   opls_813      1    UNK   C0D      1    -0.1087    12.0110 
    15   opls_814      1    UNK   C0E      1     -0.238    12.0110 
    16   opls_815      1    UNK   C0F      1     0.0057    12.0110 
    17   opls_816      1    UNK   O0G      1    -0.3796    15.9990 
    18   opls_817      1    UNK   C0H      1    -0.0516    12.0110 
    19   opls_818      1    UNK   H0I      1     0.1007     1.0080 
    20   opls_819      1    UNK   H0J      1     0.1007     1.0080 
    21   opls_820      1    UNK   H0K      1     0.1007     1.0080 
    22   opls_821      1    UNK   H0M      1     0.1192     1.0080 
    23   opls_822      1    UNK   H0N      1     0.1192     1.0080 
    24   opls_823      1    UNK   H0O      1     0.1318     1.0080 
    25   opls_824      1    UNK   H0P      1     0.1318     1.0080 
    26   opls_825      1    UNK   H0Q      1     0.0916     1.0080 
    27   opls_826      1    UNK   H0R      1     0.0916     1.0080 
    28   opls_827      1    UNK   H0S      1     0.0916     1.0080 
    29   opls_828      1    UNK   H0T      1     0.1242     1.0080 
    30   opls_829      1    UNK   H0U      1     0.1242     1.0080 
    31   opls_830      1    UNK   H0V      1     0.1039     1.0080 
    32   opls_831      1    UNK   H0W      1     0.1194     1.0080 
    33   opls_832      1    UNK   H0X      2     0.1194     1.0080 
    34   opls_833      1    UNK   H0Y      2     0.1115     1.0080 
    35   opls_834      1    UNK   H0Z      2     0.0821     1.0080 
    36   opls_835      1    UNK   H10      2     0.0821     1.0080 
    37   opls_836      1    UNK   H11      2     0.0821     1.0080 
    38   opls_837      1    UNK   H12      2     0.0773     1.0080 
    39   opls_838      1    UNK   H13      2     0.0773     1.0080 
    40   opls_839      1    UNK   H14      2     0.0811     1.0080 
    41   opls_840      1    UNK   H15      2     0.0811     1.0080 
    42   opls_841      1    UNK   H16      2     0.0811     1.0080 
[ bonds ]
    2     1     1      0.1529 224262.400
    3     2     1      0.1410 267776.000
    4     3     1      0.1327 179075.200
    5     4     1      0.1229 476976.000
    6     4     1      0.1327 179075.200
    7     6     1      0.1410 267776.000
    8     7     1      0.1529 224262.400
    9     8     1      0.1529 224262.400
   10     8     1      0.1529 224262.400
   11    10     1      0.1522 265265.600
   12    11     1      0.1229 476976.000
   13     8     1      0.1529 224262.400
   14    13     1      0.1529 224262.400
   15    14     1      0.1529 224262.400
   16    14     1      0.1529 224262.400
   17    16     1      0.1410 267776.000
   18    17     1      0.1410 267776.000
   19     1     1      0.1090 284512.000
   20     1     1      0.1090 284512.000
   21     1     1      0.1090 284512.000
   22     2     1      0.1090 284512.000
   23     2     1      0.1090 284512.000
   24     7     1      0.1090 284512.000
   25     7     1      0.1090 284512.000
   26     9     1      0.1090 284512.000
   27     9     1      0.1090 284512.000
   28     9     1      0.1090 284512.000
   29    10     1      0.1090 284512.000
   30    10     1      0.1090 284512.000
   31    11     1      0.1090 284512.000
   32    13     1      0.1090 284512.000
   33    13     1      0.1090 284512.000
   34    14     1      0.1090 284512.000
   35    15     1      0.1090 284512.000
   36    15     1      0.1090 284512.000
   37    15     1      0.1090 284512.000
   38    16     1      0.1090 284512.000
   39    16     1      0.1090 284512.000
   40    18     1      0.1090 284512.000
   41    18     1      0.1090 284512.000
   42    18     1      0.1090 284512.000

[ angles ]
;  ai    aj    ak funct            c0            c1            c2            c3 
    1     2     3     1    109.500    418.400
    2     3     4     1    116.900    694.544
    3     4     5     1    123.400    694.544
    3     4     6     1    118.180    584.923
    4     6     7     1    116.900    694.544
    6     7     8     1    109.500    418.400
    7     8     9     1    112.700    488.273
    7     8    10     1    112.700    488.273
    8    10    11     1    111.100    527.184
   10    11    12     1    120.400    669.440
    7     8    13     1    112.700    488.273
    8    13    14     1    112.700    488.273
   13    14    15     1    112.700    488.273
   13    14    16     1    112.700    488.273
   14    16    17     1    109.500    418.400
   16    17    18     1    109.500    502.080
    2     1    19     1    110.700    313.800
    2     1    20     1    110.700    313.800
    2     1    21     1    110.700    313.800
    1     2    22     1    110.700    313.800
    1     2    23     1    110.700    313.800
    6     7    24     1    109.500    292.880
    6     7    25     1    109.500    292.880
    8     9    26     1    110.700    313.800
    8     9    27     1    110.700    313.800
    8     9    28     1    110.700    313.800
    8    10    29     1    110.700    313.800
    8    10    30     1    110.700    313.800
   10    11    31     1    115.000    292.880
    8    13    32     1    110.700    313.800
    8    13    33     1    110.700    313.800
   13    14    34     1    110.700    313.800
   14    15    35     1    110.700    313.800
   14    15    36     1    110.700    313.800
   14    15    37     1    110.700    313.800
   14    16    38     1    110.700    313.800
   14    16    39     1    110.700    313.800
   17    18    40     1    109.500    292.880
   17    18    41     1    109.500    292.880
   17    18    42     1    109.500    292.880
   15    14    34     1    110.700    313.800
   19     1    20     1    107.800    276.144
   12    11    31     1    123.000    292.880
    5     4     6     1    123.400    694.544
   35    15    37     1    107.800    276.144
   36    15    37     1    107.800    276.144
   17    16    38     1    109.500    292.880
   14    13    33     1    110.700    313.800
   20     1    21     1    107.800    276.144
   10     8    13     1    112.700    488.273
   14    13    32     1    110.700    313.800
   26     9    28     1    107.800    276.144
   41    18    42     1    107.800    276.144
   27     9    28     1    107.800    276.144
    9     8    13     1    112.700    488.273
    3     2    22     1    109.500    292.880
    3     2    23     1    109.500    292.880
   19     1    21     1    107.800    276.144
   15    14    16     1    112.700    488.273
   35    15    36     1    107.800    276.144
    8     7    25     1    110.700    313.800
   22     2    23     1    107.800    276.144
   11    10    29     1    109.500    292.880
   32    13    33     1    107.800    276.144
   26     9    27     1    107.800    276.144
   17    16    39     1    109.500    292.880
   40    18    42     1    107.800    276.144
   38    16    39     1    107.800    276.144
    8     7    24     1    110.700    313.800
   24     7    25     1    107.800    276.144
   16    14    34     1    110.700    313.800
    9     8    10     1    112.700    488.273
   40    18    41     1    107.800    276.144
   11    10    30     1    109.500    292.880
   29    10    30     1    107.800    276.144

[ dihedrals ]
; IMPROPER DIHEDRAL ANGLES 
;  ai    aj    ak    al funct            c0            c1            c2            c3            c4            c5
    31    11    10    12    4        180.000     43.932     2  
     6     4     3     5    4        180.000     43.932     2  

[ dihedrals ]
; PROPER DIHEDRAL ANGLES
;  ai    aj    ak    al funct            c0            c1            c2            c3            c4            c5
   11   10    8    7        3      -4.960   6.286   1.310  -2.636  -0.000   0.000
   11   10    8    9        3      -4.960   6.286   1.310  -2.636  -0.000   0.000
    4    3    2    1        3      -2.197   5.201   0.527  -3.531  -0.000   0.000
   13    8   10   11        3      -4.960   6.286   1.310  -2.636  -0.000   0.000
   14   13    8   10        3       2.301  -1.464   0.837  -1.674  -0.000   0.000
   16   14   13    8        3       2.301  -1.464   0.837  -1.674  -0.000   0.000
   14   13    8    7        3       2.301  -1.464   0.837  -1.674  -0.000   0.000
   15   14   13    8        3       2.301  -1.464   0.837  -1.674  -0.000   0.000
   14   13    8    9        3       2.301  -1.464   0.837  -1.674  -0.000   0.000
   10    8    7    6        3       2.874   0.582   2.092  -5.548  -0.000   0.000
    9    8    7    6        3       2.874   0.582   2.092  -5.548  -0.000   0.000
   13    8    7    6        3       2.874   0.582   2.092  -5.548  -0.000   0.000
    8    7    6    4        3      -2.197   5.201   0.527  -3.531  -0.000   0.000
    7    6    4    5        3      21.439   0.000  -21.439  -0.000  -0.000   0.000
    7    6    4    3        3      31.206  -9.768  -21.439  -0.000  -0.000   0.000
   18   17   16   14        3       1.715   2.845   1.046  -5.607  -0.000   0.000
   31   11   10    8        3       0.000   0.000   0.000  -0.000  -0.000   0.000
   31   11   10   30        3       0.753   2.259   0.000  -3.012  -0.000   0.000
   31   11   10   29        3       0.753   2.259   0.000  -3.012  -0.000   0.000
   30   10   11   12        3       0.000   0.000   0.000  -0.000  -0.000   0.000
   29   10   11   12        3       0.000   0.000   0.000  -0.000  -0.000   0.000
   33   13    8    7        3       0.628   1.883   0.000  -2.510  -0.000   0.000
   32   13   14   16        3       0.628   1.883   0.000  -2.510  -0.000   0.000
   33   13   14   15        3       0.628   1.883   0.000  -2.510  -0.000   0.000
   30   10    8   13        3       0.628   1.883   0.000  -2.510  -0.000   0.000
   26    9    8   10        3       0.628   1.883   0.000  -2.510  -0.000   0.000
   32   13    8    9        3       0.628   1.883   0.000  -2.510  -0.000   0.000
   29   10    8    9        3       0.628   1.883   0.000  -2.510  -0.000   0.000
   34   14   13    8        3       0.628   1.883   0.000  -2.510  -0.000   0.000
   36   15   14   16        3       0.628   1.883   0.000  -2.510  -0.000   0.000
   38   16   14   15        3       0.628   1.883   0.000  -2.510  -0.000   0.000
   27    9    8    7        3       0.628   1.883   0.000  -2.510  -0.000   0.000
   38   16   14   13        3       0.628   1.883   0.000  -2.510  -0.000   0.000
   26    9    8   13        3       0.628   1.883   0.000  -2.510  -0.000   0.000
   39   16   14   15        3       0.628   1.883   0.000  -2.510  -0.000   0.000
   24    7    8    9        3       0.628   1.883   0.000  -2.510  -0.000   0.000
   33   13    8    9        3       0.628   1.883   0.000  -2.510  -0.000   0.000
   32   13    8   10        3       0.628   1.883   0.000  -2.510  -0.000   0.000
   27    9    8   10        3       0.628   1.883   0.000  -2.510  -0.000   0.000
   32   13    8    7        3       0.628   1.883   0.000  -2.510  -0.000   0.000
   32   13   14   15        3       0.628   1.883   0.000  -2.510  -0.000   0.000
   37   15   14   16        3       0.628   1.883   0.000  -2.510  -0.000   0.000
   37   15   14   13        3       0.628   1.883   0.000  -2.510  -0.000   0.000
   25    7    8    9        3       0.628   1.883   0.000  -2.510  -0.000   0.000
   39   16   14   13        3       0.628   1.883   0.000  -2.510  -0.000   0.000
   33   13    8   10        3       0.628   1.883   0.000  -2.510  -0.000   0.000
   25    7    8   13        3       0.628   1.883   0.000  -2.510  -0.000   0.000
   26    9    8    7        3       0.628   1.883   0.000  -2.510  -0.000   0.000
   33   13   14   16        3       0.628   1.883   0.000  -2.510  -0.000   0.000
   30   10    8    9        3       0.628   1.883   0.000  -2.510  -0.000   0.000
   28    9    8    7        3       0.628   1.883   0.000  -2.510  -0.000   0.000
   35   15   14   13        3       0.628   1.883   0.000  -2.510  -0.000   0.000
   36   15   14   13        3       0.628   1.883   0.000  -2.510  -0.000   0.000
   24    7    8   13        3       0.628   1.883   0.000  -2.510  -0.000   0.000
   29   10    8   13        3       0.628   1.883   0.000  -2.510  -0.000   0.000
   29   10    8    7        3       0.628   1.883   0.000  -2.510  -0.000   0.000
   27    9    8   13        3       0.628   1.883   0.000  -2.510  -0.000   0.000
   28    9    8   10        3       0.628   1.883   0.000  -2.510  -0.000   0.000
   28    9    8   13        3       0.628   1.883   0.000  -2.510  -0.000   0.000
   24    7    8   10        3       0.628   1.883   0.000  -2.510  -0.000   0.000
   25    7    8   10        3       0.628   1.883   0.000  -2.510  -0.000   0.000
   30   10    8    7        3       0.628   1.883   0.000  -2.510  -0.000   0.000
   35   15   14   16        3       0.628   1.883   0.000  -2.510  -0.000   0.000
   34   14   13   33        3       0.628   1.883   0.000  -2.510  -0.000   0.000
   34   14   13   32        3       0.628   1.883   0.000  -2.510  -0.000   0.000
   22    2    1   21        3       0.628   1.883   0.000  -2.510  -0.000   0.000
   22    2    1   19        3       0.628   1.883   0.000  -2.510  -0.000   0.000
   38   16   14   34        3       0.628   1.883   0.000  -2.510  -0.000   0.000
   36   15   14   34        3       0.628   1.883   0.000  -2.510  -0.000   0.000
   39   16   14   34        3       0.628   1.883   0.000  -2.510  -0.000   0.000
   22    2    1   20        3       0.628   1.883   0.000  -2.510  -0.000   0.000
   35   15   14   34        3       0.628   1.883   0.000  -2.510  -0.000   0.000
   37   15   14   34        3       0.628   1.883   0.000  -2.510  -0.000   0.000
   23    2    1   19        3       0.628   1.883   0.000  -2.510  -0.000   0.000
   23    2    1   20        3       0.628   1.883   0.000  -2.510  -0.000   0.000
   23    2    1   21        3       0.628   1.883   0.000  -2.510  -0.000   0.000
   20    1    2    3        3       0.979   2.937   0.000  -3.916  -0.000   0.000
   21    1    2    3        3       0.979   2.937   0.000  -3.916  -0.000   0.000
   34   14   16   17        3       0.979   2.937   0.000  -3.916  -0.000   0.000
   19    1    2    3        3       0.979   2.937   0.000  -3.916  -0.000   0.000
   22    2    3    4        3       0.414   1.243   0.000  -1.657  -0.000   0.000
   23    2    3    4        3       0.414   1.243   0.000  -1.657  -0.000   0.000
   24    7    6    4        3       0.414   1.243   0.000  -1.657  -0.000   0.000
   25    7    6    4        3       0.414   1.243   0.000  -1.657  -0.000   0.000
   42   18   17   16        3       1.590   4.770   0.000  -6.360  -0.000   0.000
   40   18   17   16        3       1.590   4.770   0.000  -6.360  -0.000   0.000
   39   16   17   18        3       1.590   4.770   0.000  -6.360  -0.000   0.000
   38   16   17   18        3       1.590   4.770   0.000  -6.360  -0.000   0.000
   41   18   17   16        3       1.590   4.770   0.000  -6.360  -0.000   0.000
   12   11   10    8        3       0.000   0.000   0.000  -0.000  -0.000   0.000
    5    4    3    2        3      21.439   0.000  -21.439  -0.000  -0.000   0.000
    6    4    3    2        3      31.206  -9.768  -21.439  -0.000  -0.000   0.000
   17   16   14   15        3       2.874   0.582   2.092  -5.548  -0.000   0.000
   17   16   14   13        3       2.874   0.582   2.092  -5.548  -0.000   0.000

[ pairs ]
     1     4    1
     2     5    1
     2     6    1
     3     7    1
     5     7    1
     4     8    1
     6     9    1
     6    10    1
     7    11    1
     6    13    1
     9    11    1
     8    12    1
     7    14    1
     3    19    1
     9    14    1
     8    15    1
     3    20    1
    11    13    1
    10    14    1
     8    16    1
     3    21    1
     4    22    1
     4    23    1
     4    24    1
     4    25    1
    13    17    1
    15    17    1
    14    18    1
     9    24    1
     7    26    1
    10    24    1
     9    25    1
     7    27    1
    10    25    1
     7    28    1
    10    26    1
     7    29    1
    13    24    1
    10    27    1
     7    30    1
    13    25    1
    10    28    1
     9    29    1
    13    26    1
     9    30    1
     8    31    1
     7    32    1
    13    27    1
     7    33    1
    19    22    1
    13    28    1
    12    29    1
     9    32    1
    20    22    1
    19    23    1
    13    29    1
    12    30    1
    10    32    1
     9    33    1
     8    34    1
    21    22    1
    20    23    1
    13    30    1
    10    33    1
    21    23    1
    15    32    1
    16    32    1
    15    33    1
    13    35    1
    16    33    1
    13    36    1
    13    37    1
    17    34    1
    16    35    1
    13    38    1
    16    36    1
    13    39    1
    16    37    1
    15    38    1
    15    39    1
    18    38    1
    16    40    1
    18    39    1
    16    41    1
    16    42    1
    29    31    1
    30    31    1
    32    34    1
    33    34    1
    34    35    1
    34    36    1
    34    37    1
    34    38    1
    34    39    1

