LIGPARGEN GENERATED GRO FILE
   42
    1UNK    C00    1   0.100   0.100   0.000
    1UNK    C01    2  -0.052   0.100   0.000
    1UNK    O02    3  -0.102   0.100   0.134
    1UNK    C03    4  -0.149   0.217   0.182
    1UNK    O04    5  -0.147   0.326   0.125
    1UNK    O05    6  -0.194   0.195   0.308
    1UNK    C06    7  -0.225   0.309   0.390
    1UNK    C07    8  -0.107   0.341   0.487
    1UNK    C08    9   0.017   0.380   0.402
    1UNK    C09   10  -0.145   0.464   0.572
    1UNK    C0A   11  -0.253   0.446   0.677
    1UNK    O0B   12  -0.330   0.351   0.683
    1UNK    C0C   13  -0.073   0.211   0.569
    1UNK    C0D   14   0.052   0.207   0.661
    1UNK    C0E   15   0.046   0.306   0.778
    1UNK    C0F   16   0.069   0.065   0.718
    1UNK    O0G   17   0.097  -0.027   0.612
    1UNK    C0H   18   0.113  -0.159   0.661
    1UNK    H0I   19   0.138   0.086  -0.102
    1UNK    H0J   20   0.139   0.020   0.063
    1UNK    H0K   21   0.139   0.194   0.039
    1UNK    H0M   22  -0.088   0.007  -0.046
    1UNK    H0N   23  -0.091   0.183  -0.059
    1UNK    H0O   24  -0.315   0.281   0.446
    1UNK    H0P   25  -0.252   0.396   0.329
    1UNK    H0Q   26  -0.008   0.463   0.334
    1UNK    H0R   27   0.053   0.297   0.342
    1UNK    H0S   28   0.100   0.414   0.465
    1UNK    H0T   29  -0.180   0.545   0.506
    1UNK    H0U   30  -0.058   0.504   0.623
    1UNK    H0V   31  -0.261   0.529   0.749
    1UNK    H0W   32  -0.058   0.131   0.495
    1UNK    H0X   33  -0.161   0.181   0.627
    1UNK    H0Y   34   0.141   0.229   0.600
    1UNK    H0Z   35  -0.053   0.309   0.823
    1UNK    H10   36   0.074   0.406   0.745
    1UNK    H11   37   0.118   0.278   0.856
    1UNK    H12   38  -0.022   0.034   0.772
    1UNK    H13   39   0.153   0.063   0.788
    1UNK    H14   40   0.134  -0.225   0.577
    1UNK    H15   41   0.022  -0.194   0.710
    1UNK    H16   42   0.198  -0.164   0.731
   1.00000   1.00000   1.00000

