LIGPARGEN GENERATED GRO FILE
   37
    1UNK    C00    1   0.100   0.100   0.000
    1UNK    C01    2  -0.052   0.100   0.000
    1UNK    C02    3  -0.107   0.100   0.143
    1UNK    C03    4  -0.260   0.100   0.147
    1UNK    C04    5  -0.323  -0.022   0.082
    1UNK    O05    6  -0.398  -0.009  -0.015
    1UNK    C06    7  -0.294  -0.158   0.144
    1UNK    C07    8  -0.357  -0.273   0.067
    1UNK    C08    9  -0.300  -0.293  -0.074
    1UNK    C09   10  -0.320  -0.442  -0.102
    1UNK    C0A   11  -0.284  -0.512   0.030
    1UNK    C0B   12  -0.134  -0.538   0.041
    1UNK    C0C   13  -0.364  -0.641   0.048
    1UNK    C0D   14  -0.325  -0.407   0.132
    1UNK    O0E   15  -0.331  -0.426   0.253
    1UNK    H0F   16   0.138   0.100  -0.103
    1UNK    H0G   17   0.139   0.011   0.051
    1UNK    H0H   18   0.139   0.189   0.051
    1UNK    H0I   19  -0.087   0.012  -0.055
    1UNK    H0J   20  -0.088   0.188  -0.054
    1UNK    H0K   21  -0.072   0.190   0.195
    1UNK    H0M   22  -0.068   0.014   0.198
    1UNK    H0N   23  -0.299   0.189   0.096
    1UNK    H0O   24  -0.295   0.104   0.251
    1UNK    H0P   25  -0.334  -0.155   0.246
    1UNK    H0Q   26  -0.186  -0.172   0.150
    1UNK    H0R   27  -0.466  -0.264   0.062
    1UNK    H0S   28  -0.193  -0.268  -0.077
    1UNK    H0T   29  -0.350  -0.231  -0.148
    1UNK    H0U   30  -0.259  -0.475  -0.186
    1UNK    H0V   31  -0.426  -0.459  -0.128
    1UNK    H0W   32  -0.101  -0.610  -0.036
    1UNK    H0X   33  -0.108  -0.580   0.139
    1UNK    H0Y   34  -0.075  -0.447   0.028
    1UNK    H0Z   35  -0.343  -0.711  -0.034
    1UNK    H10   36  -0.471  -0.622   0.050
    1UNK    H11   37  -0.338  -0.690   0.142
   1.00000   1.00000   1.00000

