LIGPARGEN GENERATED GRO FILE
   43
    1UNK    C00    1   0.100   0.100   0.000
    1UNK    C01    2  -0.055   0.100   0.000
    1UNK    C02    3  -0.098   0.100   0.148
    1UNK    C03    4  -0.084   0.235   0.216
    1UNK    C04    5  -0.147   0.349   0.137
    1UNK    C05    6  -0.111   0.349  -0.011
    1UNK    C06    7  -0.124   0.215  -0.090
    1UNK    C07    8  -0.034   0.232  -0.220
    1UNK    C08    9  -0.056   0.347  -0.319
    1UNK    O09   10  -0.115   0.452  -0.290
    1UNK    C0A   11   0.014   0.335  -0.452
    1UNK    C0B   12   0.160   0.361  -0.438
    1UNK    O0C   13   0.244   0.271  -0.433
    1UNK    C0D   14  -0.278   0.176  -0.132
    1UNK    C0E   15  -0.348   0.284  -0.219
    1UNK    C0F   16  -0.283   0.045  -0.215
    1UNK    C0G   17  -0.376   0.152  -0.014
    1UNK    H0H   18   0.139   0.023   0.068
    1UNK    H0I   19   0.141   0.196   0.032
    1UNK    H0J   20   0.141   0.075  -0.099
    1UNK    H0K   21  -0.082   0.002  -0.042
    1UNK    H0M   22  -0.039   0.027   0.204
    1UNK    H0N   23  -0.201   0.065   0.159
    1UNK    H0O   24   0.022   0.257   0.232
    1UNK    H0P   25  -0.130   0.230   0.315
    1UNK    H0Q   26  -0.114   0.444   0.181
    1UNK    H0R   27  -0.255   0.348   0.151
    1UNK    H0S   28  -0.007   0.382  -0.017
    1UNK    H0T   29  -0.170   0.428  -0.058
    1UNK    H0U   30  -0.034   0.138  -0.277
    1UNK    H0V   31   0.070   0.249  -0.190
    1UNK    H0W   32  -0.028   0.408  -0.522
    1UNK    H0X   33  -0.003   0.236  -0.494
    1UNK    H0Y   34   0.190   0.467  -0.426
    1UNK    H0Z   35  -0.304   0.291  -0.319
    1UNK    H10   36  -0.346   0.382  -0.171
    1UNK    H11   37  -0.453   0.259  -0.235
    1UNK    H12   38  -0.223   0.052  -0.307
    1UNK    H13   39  -0.385   0.023  -0.248
    1UNK    H14   40  -0.249  -0.042  -0.159
    1UNK    H15   41  -0.385   0.239   0.051
    1UNK    H16   42  -0.351   0.064   0.044
    1UNK    H17   43  -0.477   0.134  -0.052
   1.00000   1.00000   1.00000

