LIGPARGEN GENERATED GRO FILE
   31
    1UNK    C00    1   0.100   0.100   0.000
    1UNK    C01    2  -0.053   0.100   0.000
    1UNK    C02    3  -0.111   0.100   0.142
    1UNK    C03    4  -0.105   0.236   0.212
    1UNK    C04    5  -0.160   0.351   0.126
    1UNK    O05    6  -0.300   0.344   0.096
    1UNK    C06    7  -0.391   0.313   0.203
    1UNK    C07    8  -0.422   0.414   0.309
    1UNK    O08    9  -0.377   0.550   0.291
    1UNK    C09   10  -0.441   0.608   0.184
    1UNK    O0A   11  -0.429   0.724   0.149
    1UNK    O0B   12  -0.522   0.514   0.123
    1UNK    C0C   13  -0.520   0.391   0.198
    1UNK    C0D   14  -0.090   0.352  -0.011
    1UNK    C0E   15  -0.108   0.218  -0.082
    1UNK    H0F   16   0.139   0.010   0.048
    1UNK    H0G   17   0.142   0.186   0.053
    1UNK    H0H   18   0.138   0.101  -0.103
    1UNK    H0I   19  -0.085   0.007  -0.049
    1UNK    H0J   20  -0.059   0.026   0.204
    1UNK    H0K   21  -0.216   0.068   0.137
    1UNK    H0M   22  -0.001   0.259   0.237
    1UNK    H0N   23  -0.159   0.230   0.306
    1UNK    H0O   24  -0.141   0.447   0.176
    1UNK    H0P   25  -0.399   0.208   0.230
    1UNK    H0Q   26  -0.449   0.380   0.408
    1UNK    H0R   27  -0.612   0.338   0.217
    1UNK    H0S   28   0.017   0.374   0.001
    1UNK    H0T   29  -0.132   0.430  -0.074
    1UNK    H0U   30  -0.060   0.221  -0.180
    1UNK    H0V   31  -0.215   0.201  -0.100
   1.00000   1.00000   1.00000

