LIGPARGEN GENERATED GRO FILE
   45
    1UNK    C00    1   0.100   0.100   0.000
    1UNK    C01    2  -0.052   0.100   0.000
    1UNK    C02    3  -0.106   0.100   0.144
    1UNK    C03    4  -0.260   0.100   0.155
    1UNK    C04    5  -0.321  -0.025   0.089
    1UNK    C05    6  -0.307   0.117   0.305
    1UNK    C06    7  -0.459   0.130   0.310
    1UNK    C07    8  -0.249   0.006   0.396
    1UNK    C08    9  -0.275   0.007   0.549
    1UNK    C09   10  -0.422  -0.012   0.587
    1UNK    C0A   11  -0.189  -0.103   0.622
    1UNK    C0B   12  -0.221  -0.246   0.573
    1UNK    C0C   13  -0.035  -0.082   0.614
    1UNK    C0D   14   0.015   0.050   0.674
    1UNK    C0E   15  -0.011   0.059   0.818
    1UNK    N0F   16  -0.032   0.067   0.932
    1UNK    H0G   17   0.138   0.100  -0.102
    1UNK    H0H   18   0.139   0.011   0.051
    1UNK    H0I   19   0.139   0.188   0.051
    1UNK    H0J   20  -0.086   0.011  -0.054
    1UNK    H0K   21  -0.089   0.188  -0.054
    1UNK    H0M   22  -0.067   0.189   0.195
    1UNK    H0N   23  -0.064   0.012   0.194
    1UNK    H0O   24  -0.297   0.187   0.100
    1UNK    H0P   25  -0.285  -0.117   0.135
    1UNK    H0Q   26  -0.297  -0.029  -0.018
    1UNK    H0R   27  -0.430  -0.024   0.096
    1UNK    H0S   28  -0.266   0.213   0.340
    1UNK    H0T   29  -0.508   0.031   0.310
    1UNK    H0U   30  -0.498   0.187   0.225
    1UNK    H0V   31  -0.491   0.183   0.400
    1UNK    H0W   32  -0.141   0.010   0.385
    1UNK    H0X   33  -0.281  -0.091   0.356
    1UNK    H0Y   34  -0.244   0.105   0.588
    1UNK    H0Z   35  -0.471  -0.088   0.524
    1UNK    H10   36  -0.477   0.081   0.578
    1UNK    H11   37  -0.433  -0.043   0.692
    1UNK    H12   38  -0.216  -0.101   0.728
    1UNK    H13   39  -0.193  -0.260   0.468
    1UNK    H14   40  -0.327  -0.269   0.584
    1UNK    H15   41  -0.166  -0.320   0.631
    1UNK    H16   42  -0.002  -0.089   0.510
    1UNK    H17   43   0.014  -0.165   0.666
    1UNK    H18   44  -0.028   0.136   0.621
    1UNK    H19   45   0.124   0.055   0.658
   1.00000   1.00000   1.00000

