
;
; GENERATED BY LigParGen Server
; Jorgensen Lab @ Yale University 
;
[ atomtypes ]
  opls_818  H818     1.0080     0.000    A    2.50000E-01   1.25520E-01
  opls_824  H824     1.0080     0.000    A    2.50000E-01   1.25520E-01
  opls_805  C805    12.0110     0.000    A    3.50000E-01   2.76144E-01
  opls_843  H843     1.0080     0.000    A    2.50000E-01   1.25520E-01
  opls_836  H836     1.0080     0.000    A    2.50000E-01   1.25520E-01
  opls_834  H834     1.0080     0.000    A    2.50000E-01   1.25520E-01
  opls_828  H828     1.0080     0.000    A    2.50000E-01   1.25520E-01
  opls_835  H835     1.0080     0.000    A    2.50000E-01   1.25520E-01
  opls_812  C812    12.0110     0.000    A    3.50000E-01   2.76144E-01
  opls_844  H844     1.0080     0.000    A    2.50000E-01   1.25520E-01
  opls_802  C802    12.0110     0.000    A    3.50000E-01   2.76144E-01
  opls_827  H827     1.0080     0.000    A    2.50000E-01   1.25520E-01
  opls_809  C809    12.0110     0.000    A    3.50000E-01   2.76144E-01
  opls_806  C806    12.0110     0.000    A    3.50000E-01   2.76144E-01
  opls_822  H822     1.0080     0.000    A    2.50000E-01   1.25520E-01
  opls_803  C803    12.0110     0.000    A    3.50000E-01   2.76144E-01
  opls_838  H838     1.0080     0.000    A    2.50000E-01   1.25520E-01
  opls_825  H825     1.0080     0.000    A    2.50000E-01   1.25520E-01
  opls_830  H830     1.0080     0.000    A    2.50000E-01   1.25520E-01
  opls_810  C810    12.0110     0.000    A    3.50000E-01   2.76144E-01
  opls_842  H842     1.0080     0.000    A    2.50000E-01   1.25520E-01
  opls_820  H820     1.0080     0.000    A    2.50000E-01   1.25520E-01
  opls_837  H837     1.0080     0.000    A    2.50000E-01   1.25520E-01
  opls_821  H821     1.0080     0.000    A    2.50000E-01   1.25520E-01
  opls_831  H831     1.0080     0.000    A    2.50000E-01   1.25520E-01
  opls_832  H832     1.0080     0.000    A    2.50000E-01   1.25520E-01
  opls_816  H816     1.0080     0.000    A    2.50000E-01   1.25520E-01
  opls_800  C800    12.0110     0.000    A    3.50000E-01   2.76144E-01
  opls_811  C811    12.0110     0.000    A    3.50000E-01   2.76144E-01
  opls_823  H823     1.0080     0.000    A    2.50000E-01   1.25520E-01
  opls_813  C813    12.0110     0.000    A    3.50000E-01   2.76144E-01
  opls_814  C814    12.0110     0.000    A    3.30000E-01   2.76144E-01
  opls_826  H826     1.0080     0.000    A    2.50000E-01   1.25520E-01
  opls_815  N815    14.0070     0.000    A    3.20000E-01   7.11280E-01
  opls_841  H841     1.0080     0.000    A    2.50000E-01   1.25520E-01
  opls_819  H819     1.0080     0.000    A    2.50000E-01   1.25520E-01
  opls_804  C804    12.0110     0.000    A    3.50000E-01   2.76144E-01
  opls_833  H833     1.0080     0.000    A    2.50000E-01   1.25520E-01
  opls_839  H839     1.0080     0.000    A    2.50000E-01   1.25520E-01
  opls_801  C801    12.0110     0.000    A    3.50000E-01   2.76144E-01
  opls_808  C808    12.0110     0.000    A    3.50000E-01   2.76144E-01
  opls_817  H817     1.0080     0.000    A    2.50000E-01   1.25520E-01
  opls_829  H829     1.0080     0.000    A    2.50000E-01   1.25520E-01
  opls_840  H840     1.0080     0.000    A    2.50000E-01   1.25520E-01
  opls_807  C807    12.0110     0.000    A    3.50000E-01   2.76144E-01
[ moleculetype ]
; Name               nrexcl
UNK                   3
[ atoms ]
;   nr       type  resnr residue  atom   cgnr     charge       mass  
     1   opls_800      1    UNK   C00      1    -0.2403    12.0110 
     2   opls_801      1    UNK   C01      1    -0.1789    12.0110 
     3   opls_802      1    UNK   C02      1    -0.1763    12.0110 
     4   opls_803      1    UNK   C03      1    -0.1092    12.0110 
     5   opls_804      1    UNK   C04      1    -0.2341    12.0110 
     6   opls_805      1    UNK   C05      1    -0.1009    12.0110 
     7   opls_806      1    UNK   C06      1    -0.2337    12.0110 
     8   opls_807      1    UNK   C07      1    -0.1714    12.0110 
     9   opls_808      1    UNK   C08      1    -0.0992    12.0110 
    10   opls_809      1    UNK   C09      1    -0.2357    12.0110 
    11   opls_810      1    UNK   C0A      1    -0.1138    12.0110 
    12   opls_811      1    UNK   C0B      1    -0.2363    12.0110 
    13   opls_812      1    UNK   C0C      1    -0.1722    12.0110 
    14   opls_813      1    UNK   C0D      1    -0.0728    12.0110 
    15   opls_814      1    UNK   C0E      1     0.1604    12.0110 
    16   opls_815      1    UNK   N0F      1    -0.3918    14.0070 
    17   opls_816      1    UNK   H0G      1     0.0807     1.0080 
    18   opls_817      1    UNK   H0H      1     0.0807     1.0080 
    19   opls_818      1    UNK   H0I      1     0.0807     1.0080 
    20   opls_819      1    UNK   H0J      1     0.0904     1.0080 
    21   opls_820      1    UNK   H0K      1     0.0904     1.0080 
    22   opls_821      1    UNK   H0M      1      0.087     1.0080 
    23   opls_822      1    UNK   H0N      1      0.087     1.0080 
    24   opls_823      1    UNK   H0O      1     0.0957     1.0080 
    25   opls_824      1    UNK   H0P      1     0.0815     1.0080 
    26   opls_825      1    UNK   H0Q      1     0.0815     1.0080 
    27   opls_826      1    UNK   H0R      1     0.0815     1.0080 
    28   opls_827      1    UNK   H0S      1       0.09     1.0080 
    29   opls_828      1    UNK   H0T      1     0.0822     1.0080 
    30   opls_829      1    UNK   H0U      1     0.0822     1.0080 
    31   opls_830      1    UNK   H0V      1     0.0822     1.0080 
    32   opls_831      1    UNK   H0W      1      0.088     1.0080 
    33   opls_832      1    UNK   H0X      2      0.088     1.0080 
    34   opls_833      1    UNK   H0Y      2     0.0935     1.0080 
    35   opls_834      1    UNK   H0Z      2     0.0834     1.0080 
    36   opls_835      1    UNK   H10      2     0.0834     1.0080 
    37   opls_836      1    UNK   H11      2     0.0834     1.0080 
    38   opls_837      1    UNK   H12      2     0.1044     1.0080 
    39   opls_838      1    UNK   H13      2     0.0842     1.0080 
    40   opls_839      1    UNK   H14      2     0.0842     1.0080 
    41   opls_840      1    UNK   H15      2     0.0842     1.0080 
    42   opls_841      1    UNK   H16      2     0.1005     1.0080 
    43   opls_842      1    UNK   H17      2     0.1005     1.0080 
    44   opls_843      1    UNK   H18      2     0.1276     1.0080 
    45   opls_844      1    UNK   H19      2     0.1276     1.0080 
[ bonds ]
    2     1     1      0.1529 224262.400
    3     2     1      0.1529 224262.400
    4     3     1      0.1529 224262.400
    5     4     1      0.1529 224262.400
    6     4     1      0.1529 224262.400
    7     6     1      0.1529 224262.400
    8     6     1      0.1529 224262.400
    9     8     1      0.1529 224262.400
   10     9     1      0.1529 224262.400
   11     9     1      0.1529 224262.400
   12    11     1      0.1529 224262.400
   13    11     1      0.1529 224262.400
   14    13     1      0.1529 224262.400
   15    14     1      0.1470 326352.000
   16    15     1      0.1157 543920.000
   17     1     1      0.1090 284512.000
   18     1     1      0.1090 284512.000
   19     1     1      0.1090 284512.000
   20     2     1      0.1090 284512.000
   21     2     1      0.1090 284512.000
   22     3     1      0.1090 284512.000
   23     3     1      0.1090 284512.000
   24     4     1      0.1090 284512.000
   25     5     1      0.1090 284512.000
   26     5     1      0.1090 284512.000
   27     5     1      0.1090 284512.000
   28     6     1      0.1090 284512.000
   29     7     1      0.1090 284512.000
   30     7     1      0.1090 284512.000
   31     7     1      0.1090 284512.000
   32     8     1      0.1090 284512.000
   33     8     1      0.1090 284512.000
   34     9     1      0.1090 284512.000
   35    10     1      0.1090 284512.000
   36    10     1      0.1090 284512.000
   37    10     1      0.1090 284512.000
   38    11     1      0.1090 284512.000
   39    12     1      0.1090 284512.000
   40    12     1      0.1090 284512.000
   41    12     1      0.1090 284512.000
   42    13     1      0.1090 284512.000
   43    13     1      0.1090 284512.000
   44    14     1      0.1090 284512.000
   45    14     1      0.1090 284512.000

[ angles ]
;  ai    aj    ak funct            c0            c1            c2            c3 
    1     2     3     1    112.700    488.273
    2     3     4     1    112.700    488.273
    3     4     5     1    112.700    488.273
    3     4     6     1    112.700    488.273
    4     6     7     1    112.700    488.273
    4     6     8     1    112.700    488.273
    6     8     9     1    112.700    488.273
    8     9    10     1    112.700    488.273
    8     9    11     1    112.700    488.273
    9    11    12     1    112.700    488.273
    9    11    13     1    112.700    488.273
   11    13    14     1    112.700    488.273
   13    14    15     1    112.700    488.273
   14    15    16     1    180.000   1255.200
    2     1    17     1    110.700    313.800
    2     1    18     1    110.700    313.800
    2     1    19     1    110.700    313.800
    1     2    20     1    110.700    313.800
    1     2    21     1    110.700    313.800
    2     3    22     1    110.700    313.800
    2     3    23     1    110.700    313.800
    3     4    24     1    110.700    313.800
    4     5    25     1    110.700    313.800
    4     5    26     1    110.700    313.800
    4     5    27     1    110.700    313.800
    4     6    28     1    110.700    313.800
    6     7    29     1    110.700    313.800
    6     7    30     1    110.700    313.800
    6     7    31     1    110.700    313.800
    6     8    32     1    110.700    313.800
    6     8    33     1    110.700    313.800
    8     9    34     1    110.700    313.800
    9    10    35     1    110.700    313.800
    9    10    36     1    110.700    313.800
    9    10    37     1    110.700    313.800
    9    11    38     1    110.700    313.800
   11    12    39     1    110.700    313.800
   11    12    40     1    110.700    313.800
   11    12    41     1    110.700    313.800
   11    13    42     1    110.700    313.800
   11    13    43     1    110.700    313.800
   13    14    44     1    110.700    313.800
   13    14    45     1    110.700    313.800
    6     4    24     1    110.700    313.800
    5     4     6     1    112.700    488.273
    3     2    20     1    110.700    313.800
    9     8    33     1    110.700    313.800
    3     2    21     1    110.700    313.800
   40    12    41     1    107.800    276.144
    5     4    24     1    110.700    313.800
   14    13    43     1    110.700    313.800
   39    12    40     1    107.800    276.144
    4     3    22     1    110.700    313.800
   39    12    41     1    107.800    276.144
    7     6    28     1    110.700    313.800
   10     9    11     1    112.700    488.273
   10     9    34     1    110.700    313.800
   29     7    30     1    107.800    276.144
   44    14    45     1    107.800    276.144
   29     7    31     1    107.800    276.144
    4     3    23     1    110.700    313.800
   17     1    18     1    107.800    276.144
   14    13    42     1    110.700    313.800
   18     1    19     1    107.800    276.144
   42    13    43     1    107.800    276.144
   26     5    27     1    107.800    276.144
   17     1    19     1    107.800    276.144
    9     8    32     1    110.700    313.800
   25     5    26     1    107.800    276.144
   32     8    33     1    107.800    276.144
   35    10    37     1    107.800    276.144
   15    14    44     1    108.500    292.880
    7     6     8     1    112.700    488.273
   13    11    38     1    110.700    313.800
   30     7    31     1    107.800    276.144
   20     2    21     1    107.800    276.144
   22     3    23     1    107.800    276.144
   11     9    34     1    110.700    313.800
   12    11    13     1    112.700    488.273
    8     6    28     1    110.700    313.800
   35    10    36     1    107.800    276.144
   12    11    38     1    110.700    313.800
   15    14    45     1    108.500    292.880
   25     5    27     1    107.800    276.144
   36    10    37     1    107.800    276.144

[ dihedrals ]
; IMPROPER DIHEDRAL ANGLES 
;  ai    aj    ak    al funct            c0            c1            c2            c3            c4            c5

[ dihedrals ]
; PROPER DIHEDRAL ANGLES
;  ai    aj    ak    al funct            c0            c1            c2            c3            c4            c5
    4    3    2    1        3       2.301  -1.464   0.837  -1.674  -0.000   0.000
    8    6    4    3        3       2.301  -1.464   0.837  -1.674  -0.000   0.000
   12   11    9   10        3       2.301  -1.464   0.837  -1.674  -0.000   0.000
   14   13   11   12        3       2.301  -1.464   0.837  -1.674  -0.000   0.000
   13   11    9    8        3       2.301  -1.464   0.837  -1.674  -0.000   0.000
    6    4    3    2        3       2.301  -1.464   0.837  -1.674  -0.000   0.000
    9    8    6    7        3       2.301  -1.464   0.837  -1.674  -0.000   0.000
   13   11    9   10        3       2.301  -1.464   0.837  -1.674  -0.000   0.000
    8    6    4    5        3       2.301  -1.464   0.837  -1.674  -0.000   0.000
   11    9    8    6        3       2.301  -1.464   0.837  -1.674  -0.000   0.000
    7    6    4    5        3       2.301  -1.464   0.837  -1.674  -0.000   0.000
    9    8    6    4        3       2.301  -1.464   0.837  -1.674  -0.000   0.000
    5    4    3    2        3       2.301  -1.464   0.837  -1.674  -0.000   0.000
    7    6    4    3        3       2.301  -1.464   0.837  -1.674  -0.000   0.000
   14   13   11    9        3       2.301  -1.464   0.837  -1.674  -0.000   0.000
   10    9    8    6        3       2.301  -1.464   0.837  -1.674  -0.000   0.000
   12   11    9    8        3       2.301  -1.464   0.837  -1.674  -0.000   0.000
   15   14   13   11        3      -2.720   0.000   2.720  -0.000  -0.000   0.000
   45   14   13   11        3       0.628   1.883   0.000  -2.510  -0.000   0.000
   20    2    3    4        3       0.628   1.883   0.000  -2.510  -0.000   0.000
   38   11    9    8        3       0.628   1.883   0.000  -2.510  -0.000   0.000
   26    5    4    3        3       0.628   1.883   0.000  -2.510  -0.000   0.000
   43   13   11    9        3       0.628   1.883   0.000  -2.510  -0.000   0.000
   34    9   11   12        3       0.628   1.883   0.000  -2.510  -0.000   0.000
   21    2    3    4        3       0.628   1.883   0.000  -2.510  -0.000   0.000
   28    6    4    3        3       0.628   1.883   0.000  -2.510  -0.000   0.000
   24    4    6    7        3       0.628   1.883   0.000  -2.510  -0.000   0.000
   32    8    6    4        3       0.628   1.883   0.000  -2.510  -0.000   0.000
   38   11    9   10        3       0.628   1.883   0.000  -2.510  -0.000   0.000
   37   10    9   11        3       0.628   1.883   0.000  -2.510  -0.000   0.000
   33    8    6    7        3       0.628   1.883   0.000  -2.510  -0.000   0.000
   26    5    4    6        3       0.628   1.883   0.000  -2.510  -0.000   0.000
   32    8    6    7        3       0.628   1.883   0.000  -2.510  -0.000   0.000
   42   13   11   12        3       0.628   1.883   0.000  -2.510  -0.000   0.000
   30    7    6    8        3       0.628   1.883   0.000  -2.510  -0.000   0.000
   23    3    4    5        3       0.628   1.883   0.000  -2.510  -0.000   0.000
   25    5    4    3        3       0.628   1.883   0.000  -2.510  -0.000   0.000
   23    3    2    1        3       0.628   1.883   0.000  -2.510  -0.000   0.000
   23    3    4    6        3       0.628   1.883   0.000  -2.510  -0.000   0.000
   24    4    6    8        3       0.628   1.883   0.000  -2.510  -0.000   0.000
   31    7    6    8        3       0.628   1.883   0.000  -2.510  -0.000   0.000
   37   10    9    8        3       0.628   1.883   0.000  -2.510  -0.000   0.000
   29    7    6    8        3       0.628   1.883   0.000  -2.510  -0.000   0.000
   24    4    3    2        3       0.628   1.883   0.000  -2.510  -0.000   0.000
   18    1    2    3        3       0.628   1.883   0.000  -2.510  -0.000   0.000
   36   10    9    8        3       0.628   1.883   0.000  -2.510  -0.000   0.000
   27    5    4    6        3       0.628   1.883   0.000  -2.510  -0.000   0.000
   44   14   13   11        3       0.628   1.883   0.000  -2.510  -0.000   0.000
   39   12   11   13        3       0.628   1.883   0.000  -2.510  -0.000   0.000
   17    1    2    3        3       0.628   1.883   0.000  -2.510  -0.000   0.000
   32    8    9   10        3       0.628   1.883   0.000  -2.510  -0.000   0.000
   38   11   13   14        3       0.628   1.883   0.000  -2.510  -0.000   0.000
   33    8    9   11        3       0.628   1.883   0.000  -2.510  -0.000   0.000
   41   12   11    9        3       0.628   1.883   0.000  -2.510  -0.000   0.000
   36   10    9   11        3       0.628   1.883   0.000  -2.510  -0.000   0.000
   40   12   11   13        3       0.628   1.883   0.000  -2.510  -0.000   0.000
   34    9    8    6        3       0.628   1.883   0.000  -2.510  -0.000   0.000
   22    3    4    6        3       0.628   1.883   0.000  -2.510  -0.000   0.000
   33    8    6    4        3       0.628   1.883   0.000  -2.510  -0.000   0.000
   35   10    9    8        3       0.628   1.883   0.000  -2.510  -0.000   0.000
   32    8    9   11        3       0.628   1.883   0.000  -2.510  -0.000   0.000
   33    8    9   10        3       0.628   1.883   0.000  -2.510  -0.000   0.000
   39   12   11    9        3       0.628   1.883   0.000  -2.510  -0.000   0.000
   22    3    4    5        3       0.628   1.883   0.000  -2.510  -0.000   0.000
   29    7    6    4        3       0.628   1.883   0.000  -2.510  -0.000   0.000
   35   10    9   11        3       0.628   1.883   0.000  -2.510  -0.000   0.000
   28    6    4    5        3       0.628   1.883   0.000  -2.510  -0.000   0.000
   40   12   11    9        3       0.628   1.883   0.000  -2.510  -0.000   0.000
   42   13   11    9        3       0.628   1.883   0.000  -2.510  -0.000   0.000
   25    5    4    6        3       0.628   1.883   0.000  -2.510  -0.000   0.000
   43   13   11   12        3       0.628   1.883   0.000  -2.510  -0.000   0.000
   41   12   11   13        3       0.628   1.883   0.000  -2.510  -0.000   0.000
   31    7    6    4        3       0.628   1.883   0.000  -2.510  -0.000   0.000
   19    1    2    3        3       0.628   1.883   0.000  -2.510  -0.000   0.000
   28    6    8    9        3       0.628   1.883   0.000  -2.510  -0.000   0.000
   34    9   11   13        3       0.628   1.883   0.000  -2.510  -0.000   0.000
   27    5    4    3        3       0.628   1.883   0.000  -2.510  -0.000   0.000
   30    7    6    4        3       0.628   1.883   0.000  -2.510  -0.000   0.000
   22    3    2    1        3       0.628   1.883   0.000  -2.510  -0.000   0.000
   43   13   14   15        3       0.766   2.297   0.000  -3.063  -0.000   0.000
   42   13   14   15        3       0.766   2.297   0.000  -3.063  -0.000   0.000
   27    5    4   24        3       0.628   1.883   0.000  -2.510  -0.000   0.000
   22    3    2   20        3       0.628   1.883   0.000  -2.510  -0.000   0.000
   40   12   11   38        3       0.628   1.883   0.000  -2.510  -0.000   0.000
   44   14   13   42        3       0.628   1.883   0.000  -2.510  -0.000   0.000
   42   13   11   38        3       0.628   1.883   0.000  -2.510  -0.000   0.000
   38   11    9   34        3       0.628   1.883   0.000  -2.510  -0.000   0.000
   21    2    1   19        3       0.628   1.883   0.000  -2.510  -0.000   0.000
   36   10    9   34        3       0.628   1.883   0.000  -2.510  -0.000   0.000
   20    2    1   17        3       0.628   1.883   0.000  -2.510  -0.000   0.000
   34    9    8   32        3       0.628   1.883   0.000  -2.510  -0.000   0.000
   29    7    6   28        3       0.628   1.883   0.000  -2.510  -0.000   0.000
   43   13   11   38        3       0.628   1.883   0.000  -2.510  -0.000   0.000
   22    3    2   21        3       0.628   1.883   0.000  -2.510  -0.000   0.000
   23    3    2   20        3       0.628   1.883   0.000  -2.510  -0.000   0.000
   24    4    3   23        3       0.628   1.883   0.000  -2.510  -0.000   0.000
   20    2    1   18        3       0.628   1.883   0.000  -2.510  -0.000   0.000
   30    7    6   28        3       0.628   1.883   0.000  -2.510  -0.000   0.000
   21    2    1   17        3       0.628   1.883   0.000  -2.510  -0.000   0.000
   32    8    6   28        3       0.628   1.883   0.000  -2.510  -0.000   0.000
   35   10    9   34        3       0.628   1.883   0.000  -2.510  -0.000   0.000
   34    9    8   33        3       0.628   1.883   0.000  -2.510  -0.000   0.000
   33    8    6   28        3       0.628   1.883   0.000  -2.510  -0.000   0.000
   37   10    9   34        3       0.628   1.883   0.000  -2.510  -0.000   0.000
   23    3    2   21        3       0.628   1.883   0.000  -2.510  -0.000   0.000
   44   14   13   43        3       0.628   1.883   0.000  -2.510  -0.000   0.000
   45   14   13   42        3       0.628   1.883   0.000  -2.510  -0.000   0.000
   41   12   11   38        3       0.628   1.883   0.000  -2.510  -0.000   0.000
   24    4    3   22        3       0.628   1.883   0.000  -2.510  -0.000   0.000
   25    5    4   24        3       0.628   1.883   0.000  -2.510  -0.000   0.000
   20    2    1   19        3       0.628   1.883   0.000  -2.510  -0.000   0.000
   45   14   13   43        3       0.628   1.883   0.000  -2.510  -0.000   0.000
   31    7    6   28        3       0.628   1.883   0.000  -2.510  -0.000   0.000
   28    6    4   24        3       0.628   1.883   0.000  -2.510  -0.000   0.000
   26    5    4   24        3       0.628   1.883   0.000  -2.510  -0.000   0.000
   39   12   11   38        3       0.628   1.883   0.000  -2.510  -0.000   0.000
   21    2    1   18        3       0.628   1.883   0.000  -2.510  -0.000   0.000
   44   14   15   16        3       0.000   0.000   0.000  -0.000  -0.000   0.000
   45   14   15   16        3       0.000   0.000   0.000  -0.000  -0.000   0.000
   16   15   14   13        3       0.000   0.000   0.000  -0.000  -0.000   0.000

[ pairs ]
     1     4    1
     2     5    1
     2     6    1
     3     7    1
     3     8    1
     5     7    1
     5     8    1
     4     9    1
     7     9    1
     6    10    1
     6    11    1
     8    12    1
     3    17    1
     8    13    1
     3    18    1
    10    12    1
     3    19    1
    10    13    1
     9    14    1
     1    22    1
     4    20    1
     1    23    1
     4    21    1
    12    14    1
    11    15    1
     2    24    1
     5    22    1
     6    22    1
     5    23    1
     3    25    1
    13    16    1
     6    23    1
     3    26    1
     3    27    1
     7    24    1
     6    25    1
     3    28    1
     8    24    1
     6    26    1
     6    27    1
     5    28    1
     4    29    1
     4    30    1
     4    31    1
     4    32    1
    17    20    1
     9    28    1
     8    29    1
     4    33    1
    18    20    1
    17    21    1
     8    30    1
    19    20    1
    18    21    1
     8    31    1
     7    32    1
    19    21    1
     7    33    1
     6    34    1
    20    22    1
    10    32    1
    21    22    1
    20    23    1
    11    32    1
    10    33    1
     8    35    1
    21    23    1
    11    33    1
     8    36    1
     8    37    1
    22    24    1
    12    34    1
    11    35    1
     8    38    1
    23    24    1
    13    34    1
    11    36    1
    11    37    1
    10    38    1
     9    39    1
    24    25    1
     9    40    1
    24    26    1
     9    41    1
    24    27    1
     9    42    1
    24    28    1
    14    38    1
    13    39    1
     9    43    1
    13    40    1
    13    41    1
    12    42    1
    12    43    1
    11    44    1
    11    45    1
    28    29    1
    15    42    1
    28    30    1
    15    43    1
    28    31    1
    28    32    1
    16    44    1
    28    33    1
    16    45    1
    32    34    1
    33    34    1
    34    35    1
    34    36    1
    34    37    1
    34    38    1
    38    39    1
    38    40    1
    38    41    1
    38    42    1
    38    43    1
    42    44    1
    43    44    1
    42    45    1
    43    45    1

