LIGPARGEN GENERATED GRO FILE
   36
    1UNK    C00    1   0.100   0.100   0.000
    1UNK    C01    2  -0.052   0.100   0.000
    1UNK    C02    3  -0.113   0.100   0.140
    1UNK    C03    4  -0.074   0.219   0.223
    1UNK    C04    5  -0.110   0.360   0.182
    1UNK    C05    6  -0.180   0.295   0.298
    1UNK    C06    7  -0.154   0.343   0.439
    1UNK    C07    8  -0.231   0.265   0.550
    1UNK    C08    9  -0.383   0.283   0.533
    1UNK    C09   10  -0.195   0.116   0.544
    1UNK    C0A   11  -0.186   0.325   0.687
    1UNK    C0B   12  -0.250   0.263   0.812
    1UNK    H0C   13   0.137   0.093  -0.103
    1UNK    H0D   14   0.139   0.015   0.056
    1UNK    H0E   15   0.140   0.192   0.044
    1UNK    H0F   16  -0.087   0.011  -0.053
    1UNK    H0G   17  -0.088   0.186  -0.057
    1UNK    H0H   18  -0.083   0.009   0.193
    1UNK    H0I   19  -0.222   0.095   0.130
    1UNK    H0J   20   0.023   0.205   0.269
    1UNK    H0K   21  -0.167   0.374   0.091
    1UNK    H0M   22  -0.038   0.438   0.202
    1UNK    H0N   23  -0.284   0.272   0.280
    1UNK    H0O   24  -0.182   0.449   0.444
    1UNK    H0P   25  -0.046   0.339   0.459
    1UNK    H0Q   26  -0.419   0.240   0.439
    1UNK    H0R   27  -0.410   0.389   0.533
    1UNK    H0S   28  -0.439   0.232   0.612
    1UNK    H0T   29  -0.220   0.072   0.446
    1UNK    H0U   30  -0.251   0.058   0.618
    1UNK    H0V   31  -0.089   0.100   0.562
    1UNK    H0W   32  -0.208   0.433   0.688
    1UNK    H0X   33  -0.078   0.316   0.697
    1UNK    H0Y   34  -0.359   0.277   0.813
    1UNK    H0Z   35  -0.211   0.312   0.901
    1UNK    H10   36  -0.228   0.157   0.819
   1.00000   1.00000   1.00000

