LIGPARGEN GENERATED GRO FILE
   37
    1UNK    C00    1   0.100   0.100   0.000
    1UNK    C01    2  -0.053   0.100   0.000
    1UNK    C02    3  -0.150   0.100   0.140
    1UNK    C03    4  -0.168   0.192   0.271
    1UNK    C04    5  -0.028   0.229   0.291
    1UNK    C05    6  -0.023   0.347   0.184
    1UNK    N06    7  -0.109   0.354   0.058
    1UNK    C07    8  -0.096   0.481  -0.012
    1UNK    C08    9  -0.252   0.300   0.046
    1UNK    C09   10  -0.279   0.140   0.073
    1UNK    C0A   11  -0.410   0.115   0.149
    1UNK    C0B   12   0.031   0.085   0.277
    1UNK    C0C   13  -0.030  -0.029   0.354
    1UNK    C0D   14  -0.075  -0.010   0.210
    1UNK    H0E   15   0.136   0.109  -0.103
    1UNK    H0F   16   0.141   0.006   0.038
    1UNK    H0G   17   0.144   0.183   0.055
    1UNK    H0H   18  -0.080   0.006  -0.051
    1UNK    H0I   19  -0.084   0.174  -0.075
    1UNK    H0J   20  -0.212   0.135   0.354
    1UNK    H0K   21  -0.233   0.281   0.271
    1UNK    H0M   22  -0.007   0.268   0.391
    1UNK    H0N   23   0.082   0.363   0.156
    1UNK    H0O   24  -0.053   0.437   0.241
    1UNK    H0P   25   0.006   0.521  -0.004
    1UNK    H0Q   26  -0.165   0.556   0.028
    1UNK    H0R   27  -0.115   0.468  -0.119
    1UNK    H0S   28  -0.284   0.315  -0.058
    1UNK    H0T   29  -0.320   0.362   0.106
    1UNK    H0U   30  -0.291   0.090  -0.024
    1UNK    H0V   31  -0.416   0.166   0.245
    1UNK    H0W   32  -0.424   0.008   0.166
    1UNK    H0X   33  -0.495   0.151   0.089
    1UNK    H0Y   34   0.137   0.079   0.257
    1UNK    H0Z   35  -0.100  -0.011   0.435
    1UNK    H10   36   0.032  -0.116   0.373
    1UNK    H11   37  -0.047  -0.092   0.146
   1.00000   1.00000   1.00000

