LIGPARGEN GENERATED GRO FILE
   37
    1UNK    C00    1   0.100   0.100   0.000
    1UNK    C01    2  -0.052   0.100   0.000
    1UNK    C02    3  -0.108   0.100   0.142
    1UNK    C03    4  -0.261   0.100   0.143
    1UNK    C04    5  -0.315   0.100   0.286
    1UNK    C05    6  -0.468   0.099   0.287
    1UNK    C06    7  -0.521   0.099   0.431
    1UNK    C07    8  -0.674   0.099   0.435
    1UNK    C08    9  -0.733   0.099   0.578
    1UNK    C09   10  -0.689   0.221   0.658
    1UNK    P0A   11  -0.920   0.092   0.564
    1UNK    C0B   12  -0.969   0.081   0.741
    1UNK    H0C   13   0.138   0.100  -0.103
    1UNK    H0D   14   0.139   0.011   0.051
    1UNK    H0E   15   0.139   0.189   0.051
    1UNK    H0F   16  -0.088   0.012  -0.054
    1UNK    H0G   17  -0.088   0.188  -0.054
    1UNK    H0H   18  -0.071   0.188   0.196
    1UNK    H0I   19  -0.071   0.012   0.196
    1UNK    H0J   20  -0.298   0.012   0.089
    1UNK    H0K   21  -0.298   0.188   0.089
    1UNK    H0M   22  -0.278   0.188   0.339
    1UNK    H0N   23  -0.278   0.012   0.339
    1UNK    H0O   24  -0.506   0.011   0.234
    1UNK    H0P   25  -0.506   0.188   0.234
    1UNK    H0Q   26  -0.482   0.188   0.482
    1UNK    H0R   27  -0.483   0.011   0.484
    1UNK    H0S   28  -0.710   0.011   0.380
    1UNK    H0T   29  -0.711   0.187   0.379
    1UNK    H0U   30  -0.700   0.008   0.630
    1UNK    H0V   31  -0.719   0.315   0.609
    1UNK    H0W   32  -0.581   0.223   0.672
    1UNK    H0X   33  -0.732   0.221   0.759
    1UNK    H0Y   34  -0.931  -0.046   0.532
    1UNK    H0Z   35  -0.956   0.177   0.791
    1UNK    H10   36  -0.911   0.005   0.794
    1UNK    H11   37  -1.075   0.054   0.749
   1.00000   1.00000   1.00000

