
;
; GENERATED BY LigParGen Server
; Jorgensen Lab @ Yale University 
;
[ atomtypes ]
  opls_818  H818     1.0080     0.000    A    2.50000E-01   1.25520E-01
  opls_814  C814    12.0110     0.000    A    3.50000E-01   2.76144E-01
  opls_824  H824     1.0080     0.000    A    2.50000E-01   1.25520E-01
  opls_809  O809    15.9990     0.000    A    2.90000E-01   5.85760E-01
  opls_836  H836     1.0080     0.000    A    2.50000E-01   1.25520E-01
  opls_834  H834     1.0080     0.000    A    2.50000E-01   1.25520E-01
  opls_828  H828     1.0080     0.000    A    2.50000E-01   1.25520E-01
  opls_806  C806    12.0110     0.000    A    3.50000E-01   2.76144E-01
  opls_827  H827     1.0080     0.000    A    2.50000E-01   1.25520E-01
  opls_805  C805    12.0110     0.000    A    3.50000E-01   2.76144E-01
  opls_838  H838     1.0080     0.000    A    2.50000E-01   1.25520E-01
  opls_802  O802    15.9990     0.000    A    2.96000E-01   8.78640E-01
  opls_822  H822     1.0080     0.000    A    2.50000E-01   1.25520E-01
  opls_803  C803    12.0110     0.000    A    3.50000E-01   2.76144E-01
  opls_825  H825     1.0080     0.000    A    2.50000E-01   1.25520E-01
  opls_830  H830     1.0080     0.000    A    2.50000E-01   1.25520E-01
  opls_821  H821     1.0080     0.000    A    2.50000E-01   1.25520E-01
  opls_820  H820     1.0080     0.000    A    2.50000E-01   1.25520E-01
  opls_801  C801    12.0110     0.000    A    3.55000E-01   2.92880E-01
  opls_837  H837     1.0080     0.000    A    2.50000E-01   1.25520E-01
  opls_829  H829     1.0080     0.000    A    2.50000E-01   1.25520E-01
  opls_831  H831     1.0080     0.000    A    2.50000E-01   1.25520E-01
  opls_810  C810    12.0110     0.000    A    3.55000E-01   2.92880E-01
  opls_832  H832     1.0080     0.000    A    2.50000E-01   1.25520E-01
  opls_800  C800    12.0110     0.000    A    3.50000E-01   2.76144E-01
  opls_808  O808    15.9990     0.000    A    2.96000E-01   8.78640E-01
  opls_816  C816    12.0110     0.000    A    3.50000E-01   2.76144E-01
  opls_815  C815    12.0110     0.000    A    3.50000E-01   2.76144E-01
  opls_823  H823     1.0080     0.000    A    2.50000E-01   1.25520E-01
  opls_813  C813    12.0110     0.000    A    3.50000E-01   2.76144E-01
  opls_826  H826     1.0080     0.000    A    2.50000E-01   1.25520E-01
  opls_835  H835     1.0080     0.000    A    2.50000E-01   1.25520E-01
  opls_819  H819     1.0080     0.000    A    2.50000E-01   1.25520E-01
  opls_804  C804    12.0110     0.000    A    3.50000E-01   2.76144E-01
  opls_833  H833     1.0080     0.000    A    2.50000E-01   1.25520E-01
  opls_812  C812    12.0110     0.000    A    3.50000E-01   2.76144E-01
  opls_807  C807    12.0110     0.000    A    3.55000E-01   2.92880E-01
  opls_817  H817     1.0080     0.000    A    2.50000E-01   1.25520E-01
  opls_811  O811    15.9990     0.000    A    2.96000E-01   8.78640E-01
[ moleculetype ]
; Name               nrexcl
UNK                   3
[ atoms ]
;   nr       type  resnr residue  atom   cgnr     charge       mass  
     1   opls_800      1    UNK   C00      1    -0.3036    12.0110 
     2   opls_801      1    UNK   C01      1     0.3648    12.0110 
     3   opls_802      1    UNK   O02      1    -0.4569    15.9990 
     4   opls_803      1    UNK   C03      1     -0.168    12.0110 
     5   opls_804      1    UNK   C04      1      -0.23    12.0110 
     6   opls_805      1    UNK   C05      1    -0.1861    12.0110 
     7   opls_806      1    UNK   C06      1    -0.0052    12.0110 
     8   opls_807      1    UNK   C07      1     0.3282    12.0110 
     9   opls_808      1    UNK   O08      1    -0.4139    15.9990 
    10   opls_809      1    UNK   O09      1    -0.3503    15.9990 
    11   opls_810      1    UNK   C0A      1     0.4445    12.0110 
    12   opls_811      1    UNK   O0B      1    -0.4505    15.9990 
    13   opls_812      1    UNK   C0C      1     -0.109    12.0110 
    14   opls_813      1    UNK   C0D      1    -0.2371    12.0110 
    15   opls_814      1    UNK   C0E      1    -0.1074    12.0110 
    16   opls_815      1    UNK   C0F      1    -0.2429    12.0110 
    17   opls_816      1    UNK   C0G      1    -0.2345    12.0110 
    18   opls_817      1    UNK   H0H      1     0.1223     1.0080 
    19   opls_818      1    UNK   H0I      1     0.1223     1.0080 
    20   opls_819      1    UNK   H0J      1     0.1223     1.0080 
    21   opls_820      1    UNK   H0K      1     0.1385     1.0080 
    22   opls_821      1    UNK   H0M      1     0.0921     1.0080 
    23   opls_822      1    UNK   H0N      1     0.0921     1.0080 
    24   opls_823      1    UNK   H0O      1     0.0921     1.0080 
    25   opls_824      1    UNK   H0P      1     0.1197     1.0080 
    26   opls_825      1    UNK   H0Q      1     0.1197     1.0080 
    27   opls_826      1    UNK   H0R      1      0.143     1.0080 
    28   opls_827      1    UNK   H0S      1     0.1241     1.0080 
    29   opls_828      1    UNK   H0T      1     0.1356     1.0080 
    30   opls_829      1    UNK   H0U      1     0.0976     1.0080 
    31   opls_830      1    UNK   H0V      1     0.0976     1.0080 
    32   opls_831      1    UNK   H0W      1     0.0976     1.0080 
    33   opls_832      1    UNK   H0X      2      0.118     1.0080 
    34   opls_833      1    UNK   H0Y      2     0.0874     1.0080 
    35   opls_834      1    UNK   H0Z      2     0.0874     1.0080 
    36   opls_835      1    UNK   H10      2     0.0874     1.0080 
    37   opls_836      1    UNK   H11      2      0.087     1.0080 
    38   opls_837      1    UNK   H12      2      0.087     1.0080 
    39   opls_838      1    UNK   H13      2      0.087     1.0080 
[ bonds ]
    2     1     1      0.1522 265265.600
    3     2     1      0.1229 476976.000
    4     2     1      0.1522 265265.600
    5     4     1      0.1529 224262.400
    6     4     1      0.1529 224262.400
    7     6     1      0.1529 224262.400
    8     7     1      0.1522 265265.600
    9     8     1      0.1229 476976.000
   10     7     1      0.1410 267776.000
   11    10     1      0.1327 179075.200
   12    11     1      0.1229 476976.000
   13    11     1      0.1522 265265.600
   14    13     1      0.1529 224262.400
   15    13     1      0.1529 224262.400
   16    15     1      0.1529 224262.400
   17    15     1      0.1529 224262.400
   18     1     1      0.1090 284512.000
   19     1     1      0.1090 284512.000
   20     1     1      0.1090 284512.000
   21     4     1      0.1090 284512.000
   22     5     1      0.1090 284512.000
   23     5     1      0.1090 284512.000
   24     5     1      0.1090 284512.000
   25     6     1      0.1090 284512.000
   26     6     1      0.1090 284512.000
   27     7     1      0.1090 284512.000
   28     8     1      0.1090 284512.000
   29    13     1      0.1090 284512.000
   30    14     1      0.1090 284512.000
   31    14     1      0.1090 284512.000
   32    14     1      0.1090 284512.000
   33    15     1      0.1090 284512.000
   34    16     1      0.1090 284512.000
   35    16     1      0.1090 284512.000
   36    16     1      0.1090 284512.000
   37    17     1      0.1090 284512.000
   38    17     1      0.1090 284512.000
   39    17     1      0.1090 284512.000

[ angles ]
;  ai    aj    ak funct            c0            c1            c2            c3 
    1     2     3     1    120.400    669.440
    1     2     4     1    116.000    585.760
    2     4     5     1    111.100    527.184
    2     4     6     1    111.100    527.184
    4     6     7     1    112.700    488.273
    6     7     8     1    111.100    527.184
    7     8     9     1    120.400    669.440
    6     7    10     1    109.500    418.400
    7    10    11     1    116.900    694.544
   10    11    12     1    123.400    694.544
   10    11    13     1    111.400    677.808
   11    13    14     1    111.100    527.184
   11    13    15     1    111.100    527.184
   13    15    16     1    112.700    488.273
   13    15    17     1    112.700    488.273
    2     1    18     1    109.500    292.880
    2     1    19     1    109.500    292.880
    2     1    20     1    109.500    292.880
    2     4    21     1    109.500    292.880
    4     5    22     1    110.700    313.800
    4     5    23     1    110.700    313.800
    4     5    24     1    110.700    313.800
    4     6    25     1    110.700    313.800
    4     6    26     1    110.700    313.800
    6     7    27     1    110.700    313.800
    7     8    28     1    115.000    292.880
   11    13    29     1    109.500    292.880
   13    14    30     1    110.700    313.800
   13    14    31     1    110.700    313.800
   13    14    32     1    110.700    313.800
   13    15    33     1    110.700    313.800
   15    16    34     1    110.700    313.800
   15    16    35     1    110.700    313.800
   15    16    36     1    110.700    313.800
   15    17    37     1    110.700    313.800
   15    17    38     1    110.700    313.800
   15    17    39     1    110.700    313.800
    9     8    28     1    123.000    292.880
    5     4     6     1    112.700    488.273
    8     7    27     1    109.500    292.880
   14    13    29     1    110.700    313.800
   30    14    31     1    107.800    276.144
   19     1    20     1    107.800    276.144
    8     7    10     1    109.500    418.400
    7     6    25     1    110.700    313.800
   31    14    32     1    107.800    276.144
   30    14    32     1    107.800    276.144
   22     5    24     1    107.800    276.144
   23     5    24     1    107.800    276.144
   10     7    27     1    109.500    292.880
    6     4    21     1    110.700    313.800
   14    13    15     1    112.700    488.273
   15    13    29     1    110.700    313.800
    7     6    26     1    110.700    313.800
   35    16    36     1    107.800    276.144
   18     1    19     1    107.800    276.144
   37    17    38     1    107.800    276.144
   37    17    39     1    107.800    276.144
    3     2     4     1    120.400    669.440
   16    15    17     1    112.700    488.273
   25     6    26     1    107.800    276.144
    5     4    21     1    110.700    313.800
   18     1    20     1    107.800    276.144
   12    11    13     1    120.400    669.440
   22     5    23     1    107.800    276.144
   34    16    35     1    107.800    276.144
   34    16    36     1    107.800    276.144
   16    15    33     1    110.700    313.800
   17    15    33     1    110.700    313.800
   38    17    39     1    107.800    276.144

[ dihedrals ]
; IMPROPER DIHEDRAL ANGLES 
;  ai    aj    ak    al funct            c0            c1            c2            c3            c4            c5
     4     2     1     3    4        180.000     43.932     2  
    13    11    10    12    4        180.000     43.932     2  
    28     8     7     9    4        180.000     43.932     2  

[ dihedrals ]
; PROPER DIHEDRAL ANGLES
;  ai    aj    ak    al funct            c0            c1            c2            c3            c4            c5
    8    7    6    4        3      -4.960   6.286   1.310  -2.636  -0.000   0.000
   11   10    7    8        3      -2.197   5.201   0.527  -3.531  -0.000   0.000
   11   10    7    6        3      -2.197   5.201   0.527  -3.531  -0.000   0.000
   13   11   10    7        3      31.206  -9.768  -21.439  -0.000  -0.000   0.000
    6    4    2    1        3       0.818  -7.906   0.602   6.485  -0.000   0.000
    5    4    2    1        3       0.818  -7.906   0.602   6.485  -0.000   0.000
   15   13   11   12        3       0.000   0.000   0.000  -0.000  -0.000   0.000
   14   13   11   12        3       0.000   0.000   0.000  -0.000  -0.000   0.000
    6    4    2    3        3       0.000   0.000   0.000  -0.000  -0.000   0.000
    5    4    2    3        3       0.000   0.000   0.000  -0.000  -0.000   0.000
   15   13   11   10        3      -1.157  -3.471   0.000   4.628  -0.000   0.000
   14   13   11   10        3      -1.157  -3.471   0.000   4.628  -0.000   0.000
    7    6    4    2        3      -4.960   6.286   1.310  -2.636  -0.000   0.000
   16   15   13   11        3      -4.960   6.286   1.310  -2.636  -0.000   0.000
   17   15   13   11        3      -4.960   6.286   1.310  -2.636  -0.000   0.000
   16   15   13   14        3       2.301  -1.464   0.837  -1.674  -0.000   0.000
   17   15   13   14        3       2.301  -1.464   0.837  -1.674  -0.000   0.000
    7    6    4    5        3       2.301  -1.464   0.837  -1.674  -0.000   0.000
   28    8    7    6        3       0.000   0.000   0.000  -0.000  -0.000   0.000
   28    8    7   27        3       0.753   2.259   0.000  -3.012  -0.000   0.000
   28    8    7   10        3       0.979   2.937   0.000  -3.916  -0.000   0.000
   20    1    2    4        3       0.575   1.726   0.000  -2.301  -0.000   0.000
   18    1    2    4        3       0.575   1.726   0.000  -2.301  -0.000   0.000
   19    1    2    4        3       0.575   1.726   0.000  -2.301  -0.000   0.000
   21    4    2    1        3       0.575   1.726   0.000  -2.301  -0.000   0.000
   18    1    2    3        3       0.000   0.000   0.000  -0.000  -0.000   0.000
   19    1    2    3        3       0.000   0.000   0.000  -0.000  -0.000   0.000
   29   13   11   12        3       0.000   0.000   0.000  -0.000  -0.000   0.000
   27    7    8    9        3       0.000   0.000   0.000  -0.000  -0.000   0.000
   21    4    2    3        3       0.000   0.000   0.000  -0.000  -0.000   0.000
   20    1    2    3        3       0.000   0.000   0.000  -0.000  -0.000   0.000
   29   13   11   10        3       0.276   0.828   0.000  -1.105  -0.000   0.000
   25    6    7    8        3      -0.209  -0.628   0.000   0.837  -0.000   0.000
   22    5    4    2        3      -0.209  -0.628   0.000   0.837  -0.000   0.000
   32   14   13   11        3      -0.209  -0.628   0.000   0.837  -0.000   0.000
   26    6    7    8        3      -0.209  -0.628   0.000   0.837  -0.000   0.000
   26    6    4    2        3      -0.209  -0.628   0.000   0.837  -0.000   0.000
   24    5    4    2        3      -0.209  -0.628   0.000   0.837  -0.000   0.000
   25    6    4    2        3      -0.209  -0.628   0.000   0.837  -0.000   0.000
   23    5    4    2        3      -0.209  -0.628   0.000   0.837  -0.000   0.000
   30   14   13   11        3      -0.209  -0.628   0.000   0.837  -0.000   0.000
   33   15   13   11        3      -0.209  -0.628   0.000   0.837  -0.000   0.000
   31   14   13   11        3      -0.209  -0.628   0.000   0.837  -0.000   0.000
   25    6    4    5        3       0.628   1.883   0.000  -2.510  -0.000   0.000
   34   16   15   17        3       0.628   1.883   0.000  -2.510  -0.000   0.000
   33   15   13   14        3       0.628   1.883   0.000  -2.510  -0.000   0.000
   35   16   15   13        3       0.628   1.883   0.000  -2.510  -0.000   0.000
   21    4    6    7        3       0.628   1.883   0.000  -2.510  -0.000   0.000
   24    5    4    6        3       0.628   1.883   0.000  -2.510  -0.000   0.000
   32   14   13   15        3       0.628   1.883   0.000  -2.510  -0.000   0.000
   29   13   15   16        3       0.628   1.883   0.000  -2.510  -0.000   0.000
   26    6    4    5        3       0.628   1.883   0.000  -2.510  -0.000   0.000
   38   17   15   16        3       0.628   1.883   0.000  -2.510  -0.000   0.000
   27    7    6    4        3       0.628   1.883   0.000  -2.510  -0.000   0.000
   22    5    4    6        3       0.628   1.883   0.000  -2.510  -0.000   0.000
   30   14   13   15        3       0.628   1.883   0.000  -2.510  -0.000   0.000
   36   16   15   13        3       0.628   1.883   0.000  -2.510  -0.000   0.000
   34   16   15   13        3       0.628   1.883   0.000  -2.510  -0.000   0.000
   37   17   15   13        3       0.628   1.883   0.000  -2.510  -0.000   0.000
   29   13   15   17        3       0.628   1.883   0.000  -2.510  -0.000   0.000
   37   17   15   16        3       0.628   1.883   0.000  -2.510  -0.000   0.000
   39   17   15   16        3       0.628   1.883   0.000  -2.510  -0.000   0.000
   36   16   15   17        3       0.628   1.883   0.000  -2.510  -0.000   0.000
   35   16   15   17        3       0.628   1.883   0.000  -2.510  -0.000   0.000
   31   14   13   15        3       0.628   1.883   0.000  -2.510  -0.000   0.000
   38   17   15   13        3       0.628   1.883   0.000  -2.510  -0.000   0.000
   23    5    4    6        3       0.628   1.883   0.000  -2.510  -0.000   0.000
   39   17   15   13        3       0.628   1.883   0.000  -2.510  -0.000   0.000
   24    5    4   21        3       0.628   1.883   0.000  -2.510  -0.000   0.000
   38   17   15   33        3       0.628   1.883   0.000  -2.510  -0.000   0.000
   26    6    4   21        3       0.628   1.883   0.000  -2.510  -0.000   0.000
   32   14   13   29        3       0.628   1.883   0.000  -2.510  -0.000   0.000
   31   14   13   29        3       0.628   1.883   0.000  -2.510  -0.000   0.000
   35   16   15   33        3       0.628   1.883   0.000  -2.510  -0.000   0.000
   37   17   15   33        3       0.628   1.883   0.000  -2.510  -0.000   0.000
   25    6    4   21        3       0.628   1.883   0.000  -2.510  -0.000   0.000
   39   17   15   33        3       0.628   1.883   0.000  -2.510  -0.000   0.000
   23    5    4   21        3       0.628   1.883   0.000  -2.510  -0.000   0.000
   34   16   15   33        3       0.628   1.883   0.000  -2.510  -0.000   0.000
   33   15   13   29        3       0.628   1.883   0.000  -2.510  -0.000   0.000
   22    5    4   21        3       0.628   1.883   0.000  -2.510  -0.000   0.000
   36   16   15   33        3       0.628   1.883   0.000  -2.510  -0.000   0.000
   30   14   13   29        3       0.628   1.883   0.000  -2.510  -0.000   0.000
   27    7    6   25        3       0.628   1.883   0.000  -2.510  -0.000   0.000
   27    7    6   26        3       0.628   1.883   0.000  -2.510  -0.000   0.000
   25    6    7   10        3       0.979   2.937   0.000  -3.916  -0.000   0.000
   26    6    7   10        3       0.979   2.937   0.000  -3.916  -0.000   0.000
   27    7   10   11        3       0.414   1.243   0.000  -1.657  -0.000   0.000
    9    8    7    6        3       0.000   0.000   0.000  -0.000  -0.000   0.000
   12   11   10    7        3      21.439   0.000  -21.439  -0.000  -0.000   0.000
   10    7    8    9        3       0.000   0.000   0.000  -0.000  -0.000   0.000
   10    7    6    4        3       2.874   0.582   2.092  -5.548  -0.000   0.000

[ pairs ]
     1     5    1
     1     6    1
     3     5    1
     3     6    1
     2     7    1
     5     7    1
     4     8    1
     4    10    1
     6     9    1
     6    11    1
     9    10    1
     8    11    1
     7    12    1
     7    13    1
     3    18    1
     4    18    1
     3    19    1
     1    21    1
     4    19    1
     3    20    1
    10    14    1
     4    20    1
     3    21    1
     2    22    1
    10    15    1
     2    23    1
    12    14    1
     2    24    1
    12    15    1
    11    16    1
     2    25    1
    11    17    1
     7    21    1
     6    22    1
     2    26    1
     6    23    1
    14    16    1
     6    24    1
     5    25    1
    14    17    1
     5    26    1
     4    27    1
     8    25    1
     8    26    1
     6    28    1
    10    25    1
    10    26    1
     9    27    1
    11    27    1
    10    28    1
    10    29    1
    12    29    1
    11    30    1
    11    31    1
    21    22    1
    11    32    1
    21    23    1
    11    33    1
    21    24    1
    16    29    1
    15    30    1
    21    25    1
    17    29    1
    15    31    1
    21    26    1
    15    32    1
    14    33    1
    13    34    1
    13    35    1
    13    36    1
    13    37    1
    17    34    1
    13    38    1
    25    27    1
    17    35    1
    13    39    1
    26    27    1
    17    36    1
    16    37    1
    16    38    1
    27    28    1
    16    39    1
    29    30    1
    29    31    1
    29    32    1
    29    33    1
    33    34    1
    33    35    1
    33    36    1
    33    37    1
    33    38    1
    33    39    1

