LIGPARGEN GENERATED GRO FILE
   39
    1UNK    C00    1   0.100   0.100   0.000
    1UNK    C01    2  -0.051   0.100   0.000
    1UNK    O02    3  -0.114   0.100   0.106
    1UNK    C03    4  -0.125   0.088  -0.133
    1UNK    C04    5  -0.085   0.201  -0.228
    1UNK    C05    6  -0.104  -0.050  -0.198
    1UNK    C06    7  -0.149  -0.168  -0.111
    1UNK    C07    8  -0.298  -0.166  -0.081
    1UNK    O08    9  -0.382  -0.110  -0.151
    1UNK    O09   10  -0.129  -0.292  -0.182
    1UNK    C0A   11  -0.002  -0.341  -0.182
    1UNK    O0B   12   0.093  -0.287  -0.127
    1UNK    C0C   13   0.005  -0.472  -0.260
    1UNK    C0D   14   0.100  -0.449  -0.378
    1UNK    C0E   15   0.049  -0.587  -0.166
    1UNK    C0F   16  -0.052  -0.607  -0.053
    1UNK    C0G   17   0.067  -0.720  -0.241
    1UNK    H0H   18   0.136   0.126   0.100
    1UNK    H0I   19   0.139   0.175  -0.070
    1UNK    H0J   20   0.137   0.001  -0.026
    1UNK    H0K   21  -0.231   0.102  -0.110
    1UNK    H0M   22   0.015   0.184  -0.271
    1UNK    H0N   23  -0.084   0.297  -0.177
    1UNK    H0O   24  -0.156   0.207  -0.311
    1UNK    H0P   25   0.002  -0.062  -0.223
    1UNK    H0Q   26  -0.157  -0.053  -0.293
    1UNK    H0R   27  -0.097  -0.171  -0.014
    1UNK    H0S   28  -0.328  -0.224   0.008
    1UNK    H0T   29  -0.094  -0.494  -0.301
    1UNK    H0U   30   0.202  -0.427  -0.343
    1UNK    H0V   31   0.067  -0.363  -0.438
    1UNK    H0W   32   0.104  -0.536  -0.444
    1UNK    H0X   33   0.146  -0.561  -0.121
    1UNK    H0Y   34  -0.150  -0.634  -0.092
    1UNK    H0Z   35  -0.062  -0.517   0.008
    1UNK    H10   36  -0.019  -0.688   0.014
    1UNK    H11   37  -0.026  -0.749  -0.292
    1UNK    H12   38   0.093  -0.800  -0.171
    1UNK    H13   39   0.147  -0.714  -0.315
   1.00000   1.00000   1.00000

