LIGPARGEN GENERATED GRO FILE
   33
    1UNK    C00    1   0.100   0.100   0.000
    1UNK    C01    2  -0.051   0.100   0.000
    1UNK    O02    3  -0.115   0.100   0.105
    1UNK    C03    4  -0.122   0.100  -0.134
    1UNK    C04    5  -0.176  -0.037  -0.182
    1UNK    C05    6  -0.057  -0.133  -0.204
    1UNK    C06    7  -0.271  -0.097  -0.077
    1UNK    O07    8  -0.240  -0.196  -0.011
    1UNK    C08    9  -0.405  -0.029  -0.058
    1UNK    C09   10  -0.477  -0.011  -0.191
    1UNK    C0A   11  -0.388   0.057  -0.296
    1UNK    C0B   12  -0.460   0.076  -0.428
    1UNK    O0C   13  -0.577   0.046  -0.449
    1UNK    C0D   14  -0.257  -0.017  -0.316
    1UNK    C0E   15  -0.282  -0.150  -0.391
    1UNK    H0F   16   0.137   0.114   0.102
    1UNK    H0G   17   0.137   0.183  -0.061
    1UNK    H0H   18   0.138   0.006  -0.038
    1UNK    H0I   19  -0.053   0.143  -0.209
    1UNK    H0J   20  -0.202   0.174  -0.123
    1UNK    H0K   21   0.001  -0.147  -0.113
    1UNK    H0M   22   0.010  -0.096  -0.282
    1UNK    H0N   23  -0.090  -0.234  -0.233
    1UNK    H0O   24  -0.389   0.067  -0.008
    1UNK    H0P   25  -0.466  -0.091   0.008
    1UNK    H0Q   26  -0.568   0.050  -0.174
    1UNK    H0R   27  -0.512  -0.108  -0.228
    1UNK    H0S   28  -0.367   0.159  -0.262
    1UNK    H0T   29  -0.400   0.124  -0.508
    1UNK    H0U   30  -0.196   0.045  -0.384
    1UNK    H0V   31  -0.331  -0.224  -0.328
    1UNK    H0W   32  -0.188  -0.193  -0.427
    1UNK    H0X   33  -0.343  -0.135  -0.480
   1.00000   1.00000   1.00000

