
;
; GENERATED BY LigParGen Server
; Jorgensen Lab @ Yale University 
;
[ atomtypes ]
  opls_807  O807    15.9990     0.000    A    2.96000E-01   8.78640E-01
  opls_818  H818     1.0080     0.000    A    2.50000E-01   1.25520E-01
  opls_814  C814    12.0110     0.000    A    3.50000E-01   2.76144E-01
  opls_824  H824     1.0080     0.000    A    2.50000E-01   1.25520E-01
  opls_805  C805    12.0110     0.000    A    3.50000E-01   2.76144E-01
  opls_828  H828     1.0080     0.000    A    2.50000E-01   1.25520E-01
  opls_832  H832     1.0080     0.000    A    2.50000E-01   1.25520E-01
  opls_815  H815     1.0080     0.000    A    2.50000E-01   1.25520E-01
  opls_809  C809    12.0110     0.000    A    3.50000E-01   2.76144E-01
  opls_802  O802    15.9990     0.000    A    2.96000E-01   8.78640E-01
  opls_822  H822     1.0080     0.000    A    2.50000E-01   1.25520E-01
  opls_803  C803    12.0110     0.000    A    3.50000E-01   2.76144E-01
  opls_825  H825     1.0080     0.000    A    2.50000E-01   1.25520E-01
  opls_830  H830     1.0080     0.000    A    2.50000E-01   1.25520E-01
  opls_810  C810    12.0110     0.000    A    3.50000E-01   2.76144E-01
  opls_820  H820     1.0080     0.000    A    2.50000E-01   1.25520E-01
  opls_801  C801    12.0110     0.000    A    3.55000E-01   2.92880E-01
  opls_821  H821     1.0080     0.000    A    2.50000E-01   1.25520E-01
  opls_831  H831     1.0080     0.000    A    2.50000E-01   1.25520E-01
  opls_812  O812    15.9990     0.000    A    2.96000E-01   8.78640E-01
  opls_816  H816     1.0080     0.000    A    2.50000E-01   1.25520E-01
  opls_800  C800    12.0110     0.000    A    3.50000E-01   2.76144E-01
  opls_823  H823     1.0080     0.000    A    2.50000E-01   1.25520E-01
  opls_811  C811    12.0110     0.000    A    3.55000E-01   2.92880E-01
  opls_813  C813    12.0110     0.000    A    3.50000E-01   2.76144E-01
  opls_806  C806    12.0110     0.000    A    3.55000E-01   2.92880E-01
  opls_826  H826     1.0080     0.000    A    2.50000E-01   1.25520E-01
  opls_819  H819     1.0080     0.000    A    2.50000E-01   1.25520E-01
  opls_804  C804    12.0110     0.000    A    3.50000E-01   2.76144E-01
  opls_827  H827     1.0080     0.000    A    2.50000E-01   1.25520E-01
  opls_808  C808    12.0110     0.000    A    3.50000E-01   2.76144E-01
  opls_817  H817     1.0080     0.000    A    2.50000E-01   1.25520E-01
  opls_829  H829     1.0080     0.000    A    2.50000E-01   1.25520E-01
[ moleculetype ]
; Name               nrexcl
UNK                   3
[ atoms ]
;   nr       type  resnr residue  atom   cgnr     charge       mass  
     1   opls_800      1    UNK   C00      1    -0.2992    12.0110 
     2   opls_801      1    UNK   C01      1     0.3651    12.0110 
     3   opls_802      1    UNK   O02      1    -0.4389    15.9990 
     4   opls_803      1    UNK   C03      1    -0.2276    12.0110 
     5   opls_804      1    UNK   C04      1     -0.068    12.0110 
     6   opls_805      1    UNK   C05      1    -0.2313    12.0110 
     7   opls_806      1    UNK   C06      1     0.3815    12.0110 
     8   opls_807      1    UNK   O07      1    -0.4342    15.9990 
     9   opls_808      1    UNK   C08      1    -0.2301    12.0110 
    10   opls_809      1    UNK   C09      1    -0.1599    12.0110 
    11   opls_810      1    UNK   C0A      1    -0.1917    12.0110 
    12   opls_811      1    UNK   C0B      1     0.3182    12.0110 
    13   opls_812      1    UNK   O0C      1    -0.4327    15.9990 
    14   opls_813      1    UNK   C0D      1    -0.0867    12.0110 
    15   opls_814      1    UNK   C0E      1    -0.2443    12.0110 
    16   opls_815      1    UNK   H0F      1     0.1195     1.0080 
    17   opls_816      1    UNK   H0G      1     0.1195     1.0080 
    18   opls_817      1    UNK   H0H      1     0.1195     1.0080 
    19   opls_818      1    UNK   H0I      1     0.1152     1.0080 
    20   opls_819      1    UNK   H0J      1     0.1152     1.0080 
    21   opls_820      1    UNK   H0K      1     0.0964     1.0080 
    22   opls_821      1    UNK   H0M      1     0.0964     1.0080 
    23   opls_822      1    UNK   H0N      1     0.0964     1.0080 
    24   opls_823      1    UNK   H0O      1     0.1333     1.0080 
    25   opls_824      1    UNK   H0P      1     0.1333     1.0080 
    26   opls_825      1    UNK   H0Q      1     0.1131     1.0080 
    27   opls_826      1    UNK   H0R      1     0.1131     1.0080 
    28   opls_827      1    UNK   H0S      1     0.1228     1.0080 
    29   opls_828      1    UNK   H0T      1     0.1073     1.0080 
    30   opls_829      1    UNK   H0U      1     0.0981     1.0080 
    31   opls_830      1    UNK   H0V      1     0.0936     1.0080 
    32   opls_831      1    UNK   H0W      1     0.0936     1.0080 
    33   opls_832      1    UNK   H0X      2     0.0936     1.0080 
[ bonds ]
    2     1     1      0.1522 265265.600
    3     2     1      0.1229 476976.000
    4     2     1      0.1522 265265.600
    5     4     1      0.1529 224262.400
    6     5     1      0.1529 224262.400
    7     5     1      0.1522 265265.600
    8     7     1      0.1229 476976.000
    9     7     1      0.1522 265265.600
   10     9     1      0.1529 224262.400
   11    10     1      0.1529 224262.400
   12    11     1      0.1522 265265.600
   13    12     1      0.1229 476976.000
   14     5     1      0.1529 224262.400
   15    14     1      0.1529 224262.400
   16     1     1      0.1090 284512.000
   17     1     1      0.1090 284512.000
   18     1     1      0.1090 284512.000
   19     4     1      0.1090 284512.000
   20     4     1      0.1090 284512.000
   21     6     1      0.1090 284512.000
   22     6     1      0.1090 284512.000
   23     6     1      0.1090 284512.000
   24     9     1      0.1090 284512.000
   25     9     1      0.1090 284512.000
   26    10     1      0.1090 284512.000
   27    10     1      0.1090 284512.000
   28    11     1      0.1090 284512.000
   29    12     1      0.1090 284512.000
   30    14     1      0.1090 284512.000
   31    15     1      0.1090 284512.000
   32    15     1      0.1090 284512.000
   33    15     1      0.1090 284512.000
   14    11     1      0.1529 224262.400

[ angles ]
;  ai    aj    ak funct            c0            c1            c2            c3 
    1     2     3     1    120.400    669.440
    1     2     4     1    116.000    585.760
    2     4     5     1    111.100    527.184
    4     5     6     1    112.700    488.273
    4     5     7     1    111.100    527.184
    5     7     8     1    120.400    669.440
    5     7     9     1    116.000    585.760
    7     9    10     1    111.100    527.184
    9    10    11     1    112.700    488.273
   10    11    12     1    111.100    527.184
   11    12    13     1    120.400    669.440
    4     5    14     1    112.700    488.273
    5    14    15     1    112.700    488.273
    2     1    16     1    109.500    292.880
    2     1    17     1    109.500    292.880
    2     1    18     1    109.500    292.880
    2     4    19     1    109.500    292.880
    2     4    20     1    109.500    292.880
    5     6    21     1    110.700    313.800
    5     6    22     1    110.700    313.800
    5     6    23     1    110.700    313.800
    7     9    24     1    109.500    292.880
    7     9    25     1    109.500    292.880
    9    10    26     1    110.700    313.800
    9    10    27     1    110.700    313.800
   10    11    28     1    110.700    313.800
   11    12    29     1    115.000    292.880
    5    14    30     1    110.700    313.800
   14    15    31     1    110.700    313.800
   14    15    32     1    110.700    313.800
   14    15    33     1    110.700    313.800
   24     9    25     1    107.800    276.144
   21     6    22     1    107.800    276.144
   32    15    33     1    107.800    276.144
   21     6    23     1    107.800    276.144
    6     5    14     1    112.700    488.273
   16     1    17     1    107.800    276.144
   16     1    18     1    107.800    276.144
   13    12    29     1    123.000    292.880
   11    14    15     1    112.700    488.273
    8     7     9     1    120.400    669.440
   19     4    20     1    107.800    276.144
   10    11    14     1    112.700    488.273
    5    14    11     1    112.700    488.273
   11    10    27     1    110.700    313.800
    6     5     7     1    111.100    527.184
    3     2     4     1    120.400    669.440
    5     4    19     1    110.700    313.800
   10     9    25     1    110.700    313.800
   31    15    32     1    107.800    276.144
   31    15    33     1    107.800    276.144
   11    10    26     1    110.700    313.800
    5     4    20     1    110.700    313.800
   15    14    30     1    110.700    313.800
   17     1    18     1    107.800    276.144
   10     9    24     1    110.700    313.800
   22     6    23     1    107.800    276.144
   12    11    28     1    109.500    292.880
   14    11    28     1    110.700    313.800
   12    11    14     1    111.100    527.184
   26    10    27     1    107.800    276.144
   11    14    30     1    110.700    313.800
    7     5    14     1    111.100    527.184

[ dihedrals ]
; IMPROPER DIHEDRAL ANGLES 
;  ai    aj    ak    al funct            c0            c1            c2            c3            c4            c5
     4     2     1     3    4        180.000     43.932     2  
     9     7     5     8    4        180.000     43.932     2  
    29    12    11    13    4        180.000     43.932     2  

[ dihedrals ]
; PROPER DIHEDRAL ANGLES
;  ai    aj    ak    al funct            c0            c1            c2            c3            c4            c5
    7    5    4    2        3       0.941   7.427   0.000  -8.368  -0.000   0.000
   12   11   14    5        3      -4.960   6.286   1.310  -2.636  -0.000   0.000
   12   11   10    9        3      -4.960   6.286   1.310  -2.636  -0.000   0.000
    9    7    5    4        3       0.818  -7.906   0.602   6.485  -0.000   0.000
    9    7    5    6        3       0.818  -7.906   0.602   6.485  -0.000   0.000
    5    4    2    1        3       0.818  -7.906   0.602   6.485  -0.000   0.000
   10    9    7    5        3       0.818  -7.906   0.602   6.485  -0.000   0.000
   14    5    7    9        3       0.818  -7.906   0.602   6.485  -0.000   0.000
    5    4    2    3        3       0.000   0.000   0.000  -0.000  -0.000   0.000
   14    5    7    8        3       0.000   0.000   0.000  -0.000  -0.000   0.000
   10    9    7    8        3       0.000   0.000   0.000  -0.000  -0.000   0.000
   14   11   12   13        3       0.000   0.000   0.000  -0.000  -0.000   0.000
   11   10    9    7        3      -4.960   6.286   1.310  -2.636  -0.000   0.000
   11   14    5    7        3      -4.960   6.286   1.310  -2.636  -0.000   0.000
    6    5    4    2        3      -4.960   6.286   1.310  -2.636  -0.000   0.000
   15   14    5    7        3      -4.960   6.286   1.310  -2.636  -0.000   0.000
   14    5    4    2        3      -4.960   6.286   1.310  -2.636  -0.000   0.000
   15   14   11   12        3      -4.960   6.286   1.310  -2.636  -0.000   0.000
   11   14    5    4        3       2.301  -1.464   0.837  -1.674  -0.000   0.000
   14   11   10    9        3       2.301  -1.464   0.837  -1.674  -0.000   0.000
   15   14    5    6        3       2.301  -1.464   0.837  -1.674  -0.000   0.000
   11   14    5    6        3       2.301  -1.464   0.837  -1.674  -0.000   0.000
   15   14   11   10        3       2.301  -1.464   0.837  -1.674  -0.000   0.000
   15   14    5    4        3       2.301  -1.464   0.837  -1.674  -0.000   0.000
   10   11   14    5        3       2.301  -1.464   0.837  -1.674  -0.000   0.000
   29   12   11   10        3       0.000   0.000   0.000  -0.000  -0.000   0.000
   29   12   11   14        3       0.000   0.000   0.000  -0.000  -0.000   0.000
   29   12   11   28        3       0.753   2.259   0.000  -3.012  -0.000   0.000
   24    9    7    5        3       0.575   1.726   0.000  -2.301  -0.000   0.000
   20    4    2    1        3       0.575   1.726   0.000  -2.301  -0.000   0.000
   17    1    2    4        3       0.575   1.726   0.000  -2.301  -0.000   0.000
   18    1    2    4        3       0.575   1.726   0.000  -2.301  -0.000   0.000
   19    4    2    1        3       0.575   1.726   0.000  -2.301  -0.000   0.000
   25    9    7    5        3       0.575   1.726   0.000  -2.301  -0.000   0.000
   16    1    2    4        3       0.575   1.726   0.000  -2.301  -0.000   0.000
   24    9    7    8        3       0.000   0.000   0.000  -0.000  -0.000   0.000
   16    1    2    3        3       0.000   0.000   0.000  -0.000  -0.000   0.000
   20    4    2    3        3       0.000   0.000   0.000  -0.000  -0.000   0.000
   18    1    2    3        3       0.000   0.000   0.000  -0.000  -0.000   0.000
   25    9    7    8        3       0.000   0.000   0.000  -0.000  -0.000   0.000
   17    1    2    3        3       0.000   0.000   0.000  -0.000  -0.000   0.000
   19    4    2    3        3       0.000   0.000   0.000  -0.000  -0.000   0.000
   28   11   12   13        3       0.000   0.000   0.000  -0.000  -0.000   0.000
   20    4    5    7        3      -0.209  -0.628   0.000   0.837  -0.000   0.000
   19    4    5    7        3      -0.209  -0.628   0.000   0.837  -0.000   0.000
   22    6    5    7        3      -0.209  -0.628   0.000   0.837  -0.000   0.000
   30   14   11   12        3      -0.209  -0.628   0.000   0.837  -0.000   0.000
   21    6    5    7        3      -0.209  -0.628   0.000   0.837  -0.000   0.000
   27   10    9    7        3      -0.209  -0.628   0.000   0.837  -0.000   0.000
   27   10   11   12        3      -0.209  -0.628   0.000   0.837  -0.000   0.000
   30   14    5    7        3      -0.209  -0.628   0.000   0.837  -0.000   0.000
   26   10   11   12        3      -0.209  -0.628   0.000   0.837  -0.000   0.000
   26   10    9    7        3      -0.209  -0.628   0.000   0.837  -0.000   0.000
   23    6    5    7        3      -0.209  -0.628   0.000   0.837  -0.000   0.000
   28   11   14    5        3       0.628   1.883   0.000  -2.510  -0.000   0.000
   26   10   11   14        3       0.628   1.883   0.000  -2.510  -0.000   0.000
   30   14    5    4        3       0.628   1.883   0.000  -2.510  -0.000   0.000
   24    9   10   11        3       0.628   1.883   0.000  -2.510  -0.000   0.000
   21    6    5    4        3       0.628   1.883   0.000  -2.510  -0.000   0.000
   31   15   14    5        3       0.628   1.883   0.000  -2.510  -0.000   0.000
   23    6    5   14        3       0.628   1.883   0.000  -2.510  -0.000   0.000
   33   15   14   11        3       0.628   1.883   0.000  -2.510  -0.000   0.000
   23    6    5    4        3       0.628   1.883   0.000  -2.510  -0.000   0.000
   31   15   14   11        3       0.628   1.883   0.000  -2.510  -0.000   0.000
   20    4    5   14        3       0.628   1.883   0.000  -2.510  -0.000   0.000
   28   11   10    9        3       0.628   1.883   0.000  -2.510  -0.000   0.000
   22    6    5   14        3       0.628   1.883   0.000  -2.510  -0.000   0.000
   33   15   14    5        3       0.628   1.883   0.000  -2.510  -0.000   0.000
   32   15   14    5        3       0.628   1.883   0.000  -2.510  -0.000   0.000
   21    6    5   14        3       0.628   1.883   0.000  -2.510  -0.000   0.000
   32   15   14   11        3       0.628   1.883   0.000  -2.510  -0.000   0.000
   20    4    5    6        3       0.628   1.883   0.000  -2.510  -0.000   0.000
   22    6    5    4        3       0.628   1.883   0.000  -2.510  -0.000   0.000
   19    4    5    6        3       0.628   1.883   0.000  -2.510  -0.000   0.000
   30   14   11   10        3       0.628   1.883   0.000  -2.510  -0.000   0.000
   27   10   11   14        3       0.628   1.883   0.000  -2.510  -0.000   0.000
   25    9   10   11        3       0.628   1.883   0.000  -2.510  -0.000   0.000
   28   11   14   15        3       0.628   1.883   0.000  -2.510  -0.000   0.000
   30   14    5    6        3       0.628   1.883   0.000  -2.510  -0.000   0.000
   19    4    5   14        3       0.628   1.883   0.000  -2.510  -0.000   0.000
   31   15   14   30        3       0.628   1.883   0.000  -2.510  -0.000   0.000
   26   10    9   24        3       0.628   1.883   0.000  -2.510  -0.000   0.000
   32   15   14   30        3       0.628   1.883   0.000  -2.510  -0.000   0.000
   26   10    9   25        3       0.628   1.883   0.000  -2.510  -0.000   0.000
   33   15   14   30        3       0.628   1.883   0.000  -2.510  -0.000   0.000
   30   14   11   28        3       0.628   1.883   0.000  -2.510  -0.000   0.000
   28   11   10   26        3       0.628   1.883   0.000  -2.510  -0.000   0.000
   27   10    9   25        3       0.628   1.883   0.000  -2.510  -0.000   0.000
   27   10    9   24        3       0.628   1.883   0.000  -2.510  -0.000   0.000
   28   11   10   27        3       0.628   1.883   0.000  -2.510  -0.000   0.000
    8    7    5    6        3       0.000   0.000   0.000  -0.000  -0.000   0.000
   13   12   11   10        3       0.000   0.000   0.000  -0.000  -0.000   0.000
    8    7    5    4        3       0.000   0.000   0.000  -0.000  -0.000   0.000

[ pairs ]
     1     5    1
     3     5    1
     2     6    1
     2     7    1
     4     8    1
     4     9    1
     6     8    1
     6     9    1
     5    10    1
     4    11    1
     2    14    1
     6    11    1
     5    12    1
     8    10    1
     7    11    1
     4    15    1
     3    16    1
     4    16    1
     3    17    1
     1    19    1
     9    12    1
     6    15    1
     4    17    1
     3    18    1
     1    20    1
     8    14    1
     7    15    1
     4    18    1
     3    19    1
    10    13    1
     9    14    1
     3    20    1
    10    15    1
     6    19    1
     4    21    1
     7    19    1
     6    20    1
     4    22    1
    13    14    1
    12    15    1
     7    20    1
     4    23    1
     7    21    1
     7    22    1
     5    24    1
     7    23    1
     5    25    1
     8    24    1
    14    19    1
     8    25    1
     7    26    1
     5    28    1
    14    20    1
     7    27    1
     4    30    1
    14    21    1
    11    24    1
    14    22    1
    11    25    1
     6    30    1
     5    31    1
    14    23    1
     9    28    1
     7    30    1
     5    32    1
    12    26    1
     5    33    1
    12    27    1
    10    29    1
    14    26    1
    10    30    1
    14    27    1
    13    28    1
    12    30    1
    11    31    1
    15    28    1
    14    29    1
    11    32    1
    11    33    1
    24    26    1
    25    26    1
    24    27    1
    25    27    1
    26    28    1
    27    28    1
    28    29    1
    28    30    1
    30    31    1
    30    32    1
    30    33    1

