LIGPARGEN GENERATED GRO FILE
   34
    1UNK    C00    1   0.100   0.100   0.000
    1UNK    C01    2  -0.054   0.100   0.000
    1UNK    C02    3  -0.110   0.100   0.143
    1UNK    C03    4  -0.267   0.132   0.147
    1UNK    C04    5  -0.365   0.161   0.031
    1UNK    C05    6  -0.374   0.031  -0.051
    1UNK    C06    7  -0.507  -0.044  -0.041
    1UNK    C07    8  -0.268  -0.048   0.020
    1UNK    C08    9  -0.233  -0.195   0.036
    1UNK    C09   10  -0.159  -0.199   0.174
    1UNK    C0A   11  -0.151  -0.050   0.212
    1UNK    C0B   12  -0.286  -0.017   0.169
    1UNK    C0C   13  -0.152  -0.167  -0.103
    1UNK    C0D   14  -0.112  -0.034  -0.031
    1UNK    H0E   15   0.140   0.168   0.076
    1UNK    H0F   16   0.138   0.132  -0.098
    1UNK    H0G   17   0.144   0.002   0.019
    1UNK    H0H   18  -0.093   0.183  -0.060
    1UNK    H0I   19  -0.054   0.165   0.211
    1UNK    H0J   20  -0.292   0.194   0.234
    1UNK    H0K   21  -0.330   0.245  -0.030
    1UNK    H0M   22  -0.464   0.188   0.070
    1UNK    H0N   23  -0.351   0.049  -0.156
    1UNK    H0O   24  -0.534  -0.068   0.062
    1UNK    H0P   25  -0.500  -0.139  -0.095
    1UNK    H0Q   26  -0.589   0.014  -0.085
    1UNK    H0R   27  -0.314  -0.268   0.027
    1UNK    H0S   28  -0.060  -0.247   0.168
    1UNK    H0T   29  -0.219  -0.253   0.247
    1UNK    H0U   30  -0.141  -0.045   0.321
    1UNK    H0V   31  -0.374  -0.050   0.223
    1UNK    H0W   32  -0.213  -0.154  -0.193
    1UNK    H0X   33  -0.069  -0.235  -0.126
    1UNK    H0Y   34  -0.029  -0.087   0.018
   1.00000   1.00000   1.00000

