LIGPARGEN GENERATED GRO FILE
   34
    1UNK    C00    1   0.100   0.100   0.000
    1UNK    C01    2  -0.052   0.100   0.000
    1UNK    C02    3  -0.111   0.100   0.138
    1UNK    C03    4  -0.089   0.207   0.242
    1UNK    C04    5  -0.219   0.202   0.166
    1UNK    C05    6  -0.348   0.151   0.223
    1UNK    C06    7  -0.404   0.239   0.334
    1UNK    C07    8  -0.550   0.197   0.339
    1UNK    C08    9  -0.591   0.185   0.192
    1UNK    C09   10  -0.709   0.091   0.172
    1UNK    C0A   11  -0.460   0.150   0.116
    1UNK    C0B   12  -0.460   0.021   0.035
    1UNK    H0C   13   0.137   0.086  -0.102
    1UNK    H0D   14   0.140   0.020   0.062
    1UNK    H0E   15   0.139   0.195   0.037
    1UNK    H0F   16  -0.087   0.010  -0.052
    1UNK    H0G   17  -0.088   0.185  -0.058
    1UNK    H0H   18  -0.120  -0.001   0.176
    1UNK    H0I   19  -0.020   0.288   0.219
    1UNK    H0J   20  -0.089   0.178   0.346
    1UNK    H0K   21  -0.234   0.284   0.098
    1UNK    H0M   22  -0.335   0.050   0.264
    1UNK    H0N   23  -0.396   0.346   0.309
    1UNK    H0O   24  -0.354   0.223   0.429
    1UNK    H0P   25  -0.612   0.269   0.393
    1UNK    H0Q   26  -0.559   0.100   0.390
    1UNK    H0R   27  -0.622   0.285   0.158
    1UNK    H0S   28  -0.686  -0.011   0.205
    1UNK    H0T   29  -0.738   0.088   0.066
    1UNK    H0U   30  -0.795   0.126   0.229
    1UNK    H0V   31  -0.443   0.232   0.045
    1UNK    H0W   32  -0.477  -0.067   0.098
    1UNK    H0X   33  -0.363   0.007  -0.015
    1UNK    H0Y   34  -0.537   0.024  -0.043
   1.00000   1.00000   1.00000

