LIGPARGEN GENERATED GRO FILE
   37
    1UNK    C00    1   0.100   0.100   0.000
    1UNK    C01    2  -0.052   0.100   0.000
    1UNK    C02    3  -0.112   0.100   0.141
    1UNK    C03    4  -0.075   0.222   0.225
    1UNK    C04    5  -0.181   0.222   0.333
    1UNK    C05    6  -0.310   0.189   0.258
    1UNK    C06    7  -0.420   0.125   0.345
    1UNK    C07    8  -0.435   0.186   0.484
    1UNK    C08    9  -0.573   0.137   0.529
    1UNK    C09   10  -0.567  -0.006   0.584
    1UNK    C0A   11  -0.656   0.156   0.401
    1UNK    Cl0   12  -0.800   0.053   0.389
    1UNK    C0C   13  -0.560   0.136   0.283
    1UNK    C0D   14  -0.266   0.099   0.141
    1UNK    H0E   15   0.138   0.091  -0.102
    1UNK    H0F   16   0.139   0.016   0.058
    1UNK    H0G   17   0.140   0.193   0.042
    1UNK    H0H   18  -0.087   0.011  -0.054
    1UNK    H0I   19  -0.088   0.187  -0.056
    1UNK    H0J   20  -0.077   0.010   0.194
    1UNK    H0K   21  -0.081   0.314   0.165
    1UNK    H0M   22   0.026   0.215   0.267
    1UNK    H0N   23  -0.187   0.318   0.385
    1UNK    H0O   24  -0.158   0.144   0.408
    1UNK    H0P   25  -0.348   0.283   0.215
    1UNK    H0Q   26  -0.396   0.019   0.357
    1UNK    H0R   27  -0.434   0.295   0.479
    1UNK    H0S   28  -0.356   0.154   0.552
    1UNK    H0T   29  -0.611   0.202   0.610
    1UNK    H0U   30  -0.540  -0.079   0.507
    1UNK    H0V   31  -0.663  -0.036   0.626
    1UNK    H0W   32  -0.493  -0.013   0.664
    1UNK    H0X   33  -0.693   0.259   0.399
    1UNK    H0Y   34  -0.568   0.223   0.217
    1UNK    H0Z   35  -0.583   0.047   0.223
    1UNK    H10   36  -0.306   0.138   0.047
    1UNK    H11   37  -0.302  -0.004   0.151
   1.00000   1.00000   1.00000

