LIGPARGEN GENERATED GRO FILE
   24
    1UNK    C00    1   0.100   0.100   0.000
    1UNK    C01    2  -0.052   0.100   0.000
    1UNK    C02    3  -0.107   0.100   0.143
    1UNK    C03    4  -0.261   0.106   0.153
    1UNK    Cl0    5  -0.336  -0.032   0.067
    1UNK    C05    6  -0.315   0.112   0.299
    1UNK    C06    7  -0.266  -0.008   0.378
    1UNK    N07    8  -0.226  -0.108   0.444
    1UNK    C08    9  -0.271   0.242   0.371
    1UNK    C09   10  -0.327   0.254   0.512
    1UNK    H0A   11   0.138   0.100  -0.103
    1UNK    H0B   12   0.139   0.011   0.051
    1UNK    H0C   13   0.139   0.189   0.051
    1UNK    H0D   14  -0.087   0.012  -0.055
    1UNK    H0E   15  -0.088   0.188  -0.054
    1UNK    H0F   16  -0.064   0.187   0.195
    1UNK    H0G   17  -0.069   0.011   0.195
    1UNK    H0H   18  -0.295   0.196   0.100
    1UNK    H0I   19  -0.424   0.110   0.296
    1UNK    H0J   20  -0.304   0.328   0.312
    1UNK    H0K   21  -0.162   0.247   0.378
    1UNK    H0M   22  -0.437   0.249   0.511
    1UNK    H0N   23  -0.298   0.351   0.556
    1UNK    H0O   24  -0.289   0.176   0.578
   1.00000   1.00000   1.00000

