
;
; GENERATED BY LigParGen Server
; Jorgensen Lab @ Yale University 
;
[ atomtypes ]
  opls_818  H818     1.0080     0.000    A    2.50000E-01   1.25520E-01
  opls_806  C806    12.0110     0.000    A    3.30000E-01   2.76144E-01
  opls_813  H813     1.0080     0.000    A    2.50000E-01   1.25520E-01
  opls_802  C802    12.0110     0.000    A    3.50000E-01   2.76144E-01
  opls_815  H815     1.0080     0.000    A    2.50000E-01   1.25520E-01
  opls_809  C809    12.0110     0.000    A    3.50000E-01   2.76144E-01
  opls_822  H822     1.0080     0.000    A    2.50000E-01   1.25520E-01
  opls_803  C803    12.0110     0.000    A    3.50000E-01   2.76144E-01
  opls_807  N807    14.0070     0.000    A    3.20000E-01   7.11280E-01
  opls_814  H814     1.0080     0.000    A    2.50000E-01   1.25520E-01
  opls_821  H821     1.0080     0.000    A    2.50000E-01   1.25520E-01
  opls_820  H820     1.0080     0.000    A    2.50000E-01   1.25520E-01
  opls_811  H811     1.0080     0.000    A    2.50000E-01   1.25520E-01
  opls_810  H810     1.0080     0.000    A    2.50000E-01   1.25520E-01
  opls_816  H816     1.0080     0.000    A    2.50000E-01   1.25520E-01
  opls_800  C800    12.0110     0.000    A    3.50000E-01   2.76144E-01
  opls_823  H823     1.0080     0.000    A    2.50000E-01   1.25520E-01
  opls_804 Cl804    35.4500     0.000    A    3.40000E-01   1.25520E+00
  opls_819  H819     1.0080     0.000    A    2.50000E-01   1.25520E-01
  opls_805  C805    12.0110     0.000    A    3.50000E-01   2.76144E-01
  opls_801  C801    12.0110     0.000    A    3.50000E-01   2.76144E-01
  opls_808  C808    12.0110     0.000    A    3.50000E-01   2.76144E-01
  opls_817  H817     1.0080     0.000    A    2.50000E-01   1.25520E-01
  opls_812  H812     1.0080     0.000    A    2.50000E-01   1.25520E-01
[ moleculetype ]
; Name               nrexcl
UNK                   3
[ atoms ]
;   nr       type  resnr residue  atom   cgnr     charge       mass  
     1   opls_800      1    UNK   C00      1      -0.24    12.0110 
     2   opls_801      1    UNK   C01      1    -0.1799    12.0110 
     3   opls_802      1    UNK   C02      1    -0.1848    12.0110 
     4   opls_803      1    UNK   C03      1      0.085    12.0110 
     5   opls_804      1    UNK   Cl0      1    -0.2748    35.4500 
     6   opls_805      1    UNK   C05      1     0.0239    12.0110 
     7   opls_806      1    UNK   C06      1     0.1369    12.0110 
     8   opls_807      1    UNK   N07      1     -0.383    14.0070 
     9   opls_808      1    UNK   C08      1    -0.1784    12.0110 
    10   opls_809      1    UNK   C09      1     -0.244    12.0110 
    11   opls_810      1    UNK   H0A      1     0.0848     1.0080 
    12   opls_811      1    UNK   H0B      1     0.0848     1.0080 
    13   opls_812      1    UNK   H0C      1     0.0848     1.0080 
    14   opls_813      1    UNK   H0D      1     0.0988     1.0080 
    15   opls_814      1    UNK   H0E      1     0.0988     1.0080 
    16   opls_815      1    UNK   H0F      1     0.1097     1.0080 
    17   opls_816      1    UNK   H0G      1     0.1097     1.0080 
    18   opls_817      1    UNK   H0H      1     0.1313     1.0080 
    19   opls_818      1    UNK   H0I      1      0.151     1.0080 
    20   opls_819      1    UNK   H0J      1     0.1036     1.0080 
    21   opls_820      1    UNK   H0K      1     0.1036     1.0080 
    22   opls_821      1    UNK   H0M      1     0.0927     1.0080 
    23   opls_822      1    UNK   H0N      1     0.0927     1.0080 
    24   opls_823      1    UNK   H0O      1     0.0927     1.0080 
[ bonds ]
    2     1     1      0.1529 224262.400
    3     2     1      0.1529 224262.400
    4     3     1      0.1529 224262.400
    5     4     1      0.1781 205016.000
    6     4     1      0.1529 224262.400
    7     6     1      0.1470 326352.000
    8     7     1      0.1157 543920.000
    9     6     1      0.1529 224262.400
   10     9     1      0.1529 224262.400
   11     1     1      0.1090 284512.000
   12     1     1      0.1090 284512.000
   13     1     1      0.1090 284512.000
   14     2     1      0.1090 284512.000
   15     2     1      0.1090 284512.000
   16     3     1      0.1090 284512.000
   17     3     1      0.1090 284512.000
   18     4     1      0.1090 284512.000
   19     6     1      0.1090 284512.000
   20     9     1      0.1090 284512.000
   21     9     1      0.1090 284512.000
   22    10     1      0.1090 284512.000
   23    10     1      0.1090 284512.000
   24    10     1      0.1090 284512.000

[ angles ]
;  ai    aj    ak funct            c0            c1            c2            c3 
    1     2     3     1    112.700    488.273
    2     3     4     1    112.700    488.273
    3     4     5     1    109.800    577.392
    3     4     6     1    112.700    488.273
    4     6     7     1    112.700    488.273
    6     7     8     1    180.000   1255.200
    4     6     9     1    112.700    488.273
    6     9    10     1    112.700    488.273
    2     1    11     1    110.700    313.800
    2     1    12     1    110.700    313.800
    2     1    13     1    110.700    313.800
    1     2    14     1    110.700    313.800
    1     2    15     1    110.700    313.800
    2     3    16     1    110.700    313.800
    2     3    17     1    110.700    313.800
    3     4    18     1    110.700    313.800
    4     6    19     1    110.700    313.800
    6     9    20     1    110.700    313.800
    6     9    21     1    110.700    313.800
    9    10    22     1    110.700    313.800
    9    10    23     1    110.700    313.800
    9    10    24     1    110.700    313.800
    5     4     6     1    109.800    577.392
    3     2    14     1    110.700    313.800
   11     1    13     1    107.800    276.144
    3     2    15     1    110.700    313.800
   22    10    23     1    107.800    276.144
   11     1    12     1    107.800    276.144
   20     9    21     1    107.800    276.144
    9     6    19     1    110.700    313.800
   22    10    24     1    107.800    276.144
    7     6    19     1    108.500    292.880
   12     1    13     1    107.800    276.144
   14     2    15     1    107.800    276.144
   23    10    24     1    107.800    276.144
   10     9    21     1    110.700    313.800
    7     6     9     1    112.700    488.273
    4     3    16     1    110.700    313.800
    4     3    17     1    110.700    313.800
   16     3    17     1    107.800    276.144
    6     4    18     1    110.700    313.800
    5     4    18     1    107.600    426.768
   10     9    20     1    110.700    313.800

[ dihedrals ]
; IMPROPER DIHEDRAL ANGLES 
;  ai    aj    ak    al funct            c0            c1            c2            c3            c4            c5

[ dihedrals ]
; PROPER DIHEDRAL ANGLES
;  ai    aj    ak    al funct            c0            c1            c2            c3            c4            c5
    4    3    2    1        3       2.301  -1.464   0.837  -1.674  -0.000   0.000
    6    4    3    2        3       2.301  -1.464   0.837  -1.674  -0.000   0.000
   10    9    6    4        3       2.301  -1.464   0.837  -1.674  -0.000   0.000
    9    6    4    3        3       2.301  -1.464   0.837  -1.674  -0.000   0.000
   10    9    6    7        3      -2.720   0.000   2.720  -0.000  -0.000   0.000
    9    6    4    5        3       0.837   2.510   0.000  -3.347  -0.000   0.000
    9    6    7    8        3       0.000   0.000   0.000  -0.000  -0.000   0.000
    7    6    4    3        3      -2.720   0.000   2.720  -0.000  -0.000   0.000
    7    6    4    5        3       0.837   2.510   0.000  -3.347  -0.000   0.000
    5    4    3    2        3       0.837   2.510   0.000  -3.347  -0.000   0.000
   12    1    2    3        3       0.628   1.883   0.000  -2.510  -0.000   0.000
   24   10    9    6        3       0.628   1.883   0.000  -2.510  -0.000   0.000
   19    6    4    3        3       0.628   1.883   0.000  -2.510  -0.000   0.000
   20    9    6    4        3       0.628   1.883   0.000  -2.510  -0.000   0.000
   16    3    2    1        3       0.628   1.883   0.000  -2.510  -0.000   0.000
   18    4    3    2        3       0.628   1.883   0.000  -2.510  -0.000   0.000
   18    4    6    9        3       0.628   1.883   0.000  -2.510  -0.000   0.000
   14    2    3    4        3       0.628   1.883   0.000  -2.510  -0.000   0.000
   11    1    2    3        3       0.628   1.883   0.000  -2.510  -0.000   0.000
   15    2    3    4        3       0.628   1.883   0.000  -2.510  -0.000   0.000
   16    3    4    6        3       0.628   1.883   0.000  -2.510  -0.000   0.000
   17    3    2    1        3       0.628   1.883   0.000  -2.510  -0.000   0.000
   19    6    9   10        3       0.628   1.883   0.000  -2.510  -0.000   0.000
   22   10    9    6        3       0.628   1.883   0.000  -2.510  -0.000   0.000
   13    1    2    3        3       0.628   1.883   0.000  -2.510  -0.000   0.000
   21    9    6    4        3       0.628   1.883   0.000  -2.510  -0.000   0.000
   23   10    9    6        3       0.628   1.883   0.000  -2.510  -0.000   0.000
   17    3    4    6        3       0.628   1.883   0.000  -2.510  -0.000   0.000
   18    4    6    7        3       0.766   2.297   0.000  -3.063  -0.000   0.000
   21    9    6    7        3       0.766   2.297   0.000  -3.063  -0.000   0.000
   20    9    6    7        3       0.766   2.297   0.000  -3.063  -0.000   0.000
   17    3    4    5        3       0.837   2.510   0.000  -3.347  -0.000   0.000
   16    3    4    5        3       0.837   2.510   0.000  -3.347  -0.000   0.000
   19    6    4    5        3       0.837   2.510   0.000  -3.347  -0.000   0.000
   17    3    2   15        3       0.628   1.883   0.000  -2.510  -0.000   0.000
   18    4    3   17        3       0.628   1.883   0.000  -2.510  -0.000   0.000
   23   10    9   20        3       0.628   1.883   0.000  -2.510  -0.000   0.000
   22   10    9   21        3       0.628   1.883   0.000  -2.510  -0.000   0.000
   16    3    2   15        3       0.628   1.883   0.000  -2.510  -0.000   0.000
   15    2    1   11        3       0.628   1.883   0.000  -2.510  -0.000   0.000
   14    2    1   12        3       0.628   1.883   0.000  -2.510  -0.000   0.000
   20    9    6   19        3       0.628   1.883   0.000  -2.510  -0.000   0.000
   19    6    4   18        3       0.628   1.883   0.000  -2.510  -0.000   0.000
   16    3    2   14        3       0.628   1.883   0.000  -2.510  -0.000   0.000
   18    4    3   16        3       0.628   1.883   0.000  -2.510  -0.000   0.000
   23   10    9   21        3       0.628   1.883   0.000  -2.510  -0.000   0.000
   24   10    9   20        3       0.628   1.883   0.000  -2.510  -0.000   0.000
   14    2    1   13        3       0.628   1.883   0.000  -2.510  -0.000   0.000
   15    2    1   12        3       0.628   1.883   0.000  -2.510  -0.000   0.000
   17    3    2   14        3       0.628   1.883   0.000  -2.510  -0.000   0.000
   24   10    9   21        3       0.628   1.883   0.000  -2.510  -0.000   0.000
   22   10    9   20        3       0.628   1.883   0.000  -2.510  -0.000   0.000
   14    2    1   11        3       0.628   1.883   0.000  -2.510  -0.000   0.000
   15    2    1   13        3       0.628   1.883   0.000  -2.510  -0.000   0.000
   21    9    6   19        3       0.628   1.883   0.000  -2.510  -0.000   0.000
   19    6    7    8        3       0.000   0.000   0.000  -0.000  -0.000   0.000
    8    7    6    4        3       0.000   0.000   0.000  -0.000  -0.000   0.000

[ pairs ]
     1     4    1
     2     5    1
     2     6    1
     3     7    1
     5     7    1
     4     8    1
     3     9    1
     5     9    1
     4    10    1
     3    11    1
     3    12    1
     3    13    1
     8     9    1
     7    10    1
     1    16    1
     4    14    1
     1    17    1
     4    15    1
     2    18    1
     5    16    1
     6    16    1
     5    17    1
     3    19    1
     6    17    1
     5    19    1
     4    20    1
    11    14    1
     7    18    1
     4    21    1
    12    14    1
    11    15    1
    13    14    1
    12    15    1
     9    18    1
     8    19    1
     7    20    1
    13    15    1
     7    21    1
     6    22    1
    10    19    1
     6    23    1
    14    16    1
     6    24    1
    15    16    1
    14    17    1
    15    17    1
    16    18    1
    17    18    1
    18    19    1
    19    20    1
    19    21    1
    20    22    1
    21    22    1
    20    23    1
    21    23    1
    20    24    1
    21    24    1

