LIGPARGEN GENERATED GRO FILE
   42
    1UNK    C00    1   0.100   0.100   0.000
    1UNK    C01    2  -0.054   0.100   0.000
    1UNK    C02    3  -0.109   0.100   0.143
    1UNK    C03    4  -0.064  -0.014   0.234
    1UNK    C04    5  -0.134  -0.001   0.369
    1UNK    C05    6  -0.095  -0.110   0.464
    1UNK    C06    7  -0.159  -0.116   0.600
    1UNK    C07    8  -0.192  -0.221   0.497
    1UNK    C08    9  -0.142  -0.361   0.513
    1UNK    C09   10  -0.103   0.223  -0.082
    1UNK    C0A   11  -0.256   0.240  -0.112
    1UNK    C0B   12  -0.340   0.279   0.012
    1UNK    C0C   13  -0.272   0.357  -0.212
    1UNK    C0D   14  -0.314   0.113  -0.175
    1UNK    H0E   15   0.140   0.010   0.047
    1UNK    H0F   16   0.140   0.187   0.054
    1UNK    H0G   17   0.140   0.102  -0.102
    1UNK    H0H   18  -0.085   0.008  -0.050
    1UNK    H0I   19  -0.217   0.090   0.138
    1UNK    H0J   20  -0.086   0.196   0.191
    1UNK    H0K   21   0.045  -0.012   0.249
    1UNK    H0M   22  -0.089  -0.111   0.188
    1UNK    H0N   23  -0.243  -0.000   0.355
    1UNK    H0O   24  -0.108   0.095   0.414
    1UNK    H0P   25   0.011  -0.132   0.460
    1UNK    H0Q   26  -0.235  -0.044   0.625
    1UNK    H0R   27  -0.096  -0.144   0.684
    1UNK    H0S   28  -0.291  -0.218   0.454
    1UNK    H0T   29  -0.040  -0.363   0.552
    1UNK    H0U   30  -0.143  -0.412   0.417
    1UNK    H0V   31  -0.207  -0.416   0.582
    1UNK    H0W   32  -0.052   0.217  -0.179
    1UNK    H0X   33  -0.066   0.314  -0.034
    1UNK    H0Y   34  -0.288   0.354   0.072
    1UNK    H0Z   35  -0.365   0.194   0.075
    1UNK    H10   36  -0.436   0.322  -0.018
    1UNK    H11   37  -0.251   0.453  -0.164
    1UNK    H12   38  -0.374   0.361  -0.252
    1UNK    H13   39  -0.203   0.347  -0.297
    1UNK    H14   40  -0.306   0.027  -0.108
    1UNK    H15   41  -0.262   0.088  -0.269
    1UNK    H16   42  -0.420   0.125  -0.198
   1.00000   1.00000   1.00000

