LIGPARGEN GENERATED GRO FILE
   30
    1UNK    C00    1   0.100   0.100   0.000
    1UNK    C01    2  -0.053   0.100   0.000
    1UNK    C02    3  -0.106   0.100   0.145
    1UNK    C03    4  -0.123  -0.048   0.185
    1UNK    C04    5  -0.243  -0.076   0.283
    1UNK    C05    6  -0.389  -0.026   0.254
    1UNK    S06    7  -0.479  -0.076   0.095
    1UNK    C07    8  -0.333  -0.079  -0.007
    1UNK    C08    9  -0.257  -0.015  -0.121
    1UNK    C09   10  -0.109  -0.027  -0.066
    1UNK    C0A   11  -0.117  -0.130   0.051
    1UNK    C0B   12  -0.248  -0.201   0.025
    1UNK    H0C   13   0.138   0.192   0.046
    1UNK    H0D   14   0.139   0.095  -0.102
    1UNK    H0E   15   0.141   0.015   0.056
    1UNK    H0F   16  -0.087   0.190  -0.053
    1UNK    H0G   17  -0.201   0.155   0.149
    1UNK    H0H   18  -0.038   0.152   0.213
    1UNK    H0I   19  -0.032  -0.076   0.240
    1UNK    H0J   20  -0.215  -0.030   0.379
    1UNK    H0K   21  -0.246  -0.183   0.304
    1UNK    H0M   22  -0.390   0.083   0.256
    1UNK    H0N   23  -0.454  -0.059   0.336
    1UNK    H0O   24  -0.306   0.007   0.053
    1UNK    H0P   25  -0.285   0.089  -0.142
    1UNK    H0Q   26  -0.269  -0.073  -0.213
    1UNK    H0R   27  -0.045  -0.062  -0.148
    1UNK    H0S   28  -0.032  -0.198   0.051
    1UNK    H0T   29  -0.281  -0.264   0.108
    1UNK    H0U   30  -0.240  -0.267  -0.063
   1.00000   1.00000   1.00000

