
;
; GENERATED BY LigParGen Server
; Jorgensen Lab @ Yale University 
;
[ atomtypes ]
  opls_818  H818     1.0080     0.000    A    2.50000E-01   1.25520E-01
  opls_824  H824     1.0080     0.000    A    2.50000E-01   1.25520E-01
  opls_805  C805    12.0110     0.000    A    3.50000E-01   2.76144E-01
  opls_828  H828     1.0080     0.000    A    2.50000E-01   1.25520E-01
  opls_813  H813     1.0080     0.000    A    2.50000E-01   1.25520E-01
  opls_802  C802    12.0110     0.000    A    3.50000E-01   2.76144E-01
  opls_815  H815     1.0080     0.000    A    2.50000E-01   1.25520E-01
  opls_809  C809    12.0110     0.000    A    3.50000E-01   2.76144E-01
  opls_822  H822     1.0080     0.000    A    2.50000E-01   1.25520E-01
  opls_803  C803    12.0110     0.000    A    3.50000E-01   2.76144E-01
  opls_825  H825     1.0080     0.000    A    2.50000E-01   1.25520E-01
  opls_814  H814     1.0080     0.000    A    2.50000E-01   1.25520E-01
  opls_810  C810    12.0110     0.000    A    3.50000E-01   2.76144E-01
  opls_820  H820     1.0080     0.000    A    2.50000E-01   1.25520E-01
  opls_821  H821     1.0080     0.000    A    2.50000E-01   1.25520E-01
  opls_816  H816     1.0080     0.000    A    2.50000E-01   1.25520E-01
  opls_800  C800    12.0110     0.000    A    3.50000E-01   2.76144E-01
  opls_806  S806    32.0600     0.000    A    3.60000E-01   1.48532E+00
  opls_811  C811    12.0110     0.000    A    3.50000E-01   2.76144E-01
  opls_823  H823     1.0080     0.000    A    2.50000E-01   1.25520E-01
  opls_826  H826     1.0080     0.000    A    2.50000E-01   1.25520E-01
  opls_819  H819     1.0080     0.000    A    2.50000E-01   1.25520E-01
  opls_804  C804    12.0110     0.000    A    3.50000E-01   2.76144E-01
  opls_827  H827     1.0080     0.000    A    2.50000E-01   1.25520E-01
  opls_801  C801    12.0110     0.000    A    3.50000E-01   2.76144E-01
  opls_808  C808    12.0110     0.000    A    3.50000E-01   2.76144E-01
  opls_817  H817     1.0080     0.000    A    2.50000E-01   1.25520E-01
  opls_812  H812     1.0080     0.000    A    2.50000E-01   1.25520E-01
  opls_829  H829     1.0080     0.000    A    2.50000E-01   1.25520E-01
  opls_807  C807    12.0110     0.000    A    3.50000E-01   2.76144E-01
[ moleculetype ]
; Name               nrexcl
UNK                   3
[ atoms ]
;   nr       type  resnr residue  atom   cgnr     charge       mass  
     1   opls_800      1    UNK   C00      1    -0.2338    12.0110 
     2   opls_801      1    UNK   C01      1    -0.1134    12.0110 
     3   opls_802      1    UNK   C02      1    -0.1787    12.0110 
     4   opls_803      1    UNK   C03      1    -0.1086    12.0110 
     5   opls_804      1    UNK   C04      1    -0.1578    12.0110 
     6   opls_805      1    UNK   C05      1     -0.061    12.0110 
     7   opls_806      1    UNK   S06      1    -0.3405    32.0600 
     8   opls_807      1    UNK   C07      1    -0.1178    12.0110 
     9   opls_808      1    UNK   C08      1    -0.1021    12.0110 
    10   opls_809      1    UNK   C09      1    -0.1268    12.0110 
    11   opls_810      1    UNK   C0A      1    -0.1253    12.0110 
    12   opls_811      1    UNK   C0B      1     -0.159    12.0110 
    13   opls_812      1    UNK   H0C      1     0.0832     1.0080 
    14   opls_813      1    UNK   H0D      1     0.0832     1.0080 
    15   opls_814      1    UNK   H0E      1     0.0832     1.0080 
    16   opls_815      1    UNK   H0F      1     0.1045     1.0080 
    17   opls_816      1    UNK   H0G      1     0.0948     1.0080 
    18   opls_817      1    UNK   H0H      1     0.0948     1.0080 
    19   opls_818      1    UNK   H0I      1     0.0969     1.0080 
    20   opls_819      1    UNK   H0J      1     0.0953     1.0080 
    21   opls_820      1    UNK   H0K      1     0.0953     1.0080 
    22   opls_821      1    UNK   H0M      1     0.1158     1.0080 
    23   opls_822      1    UNK   H0N      1     0.1158     1.0080 
    24   opls_823      1    UNK   H0O      1     0.1152     1.0080 
    25   opls_824      1    UNK   H0P      1     0.1002     1.0080 
    26   opls_825      1    UNK   H0Q      1     0.1002     1.0080 
    27   opls_826      1    UNK   H0R      1     0.1155     1.0080 
    28   opls_827      1    UNK   H0S      1      0.111     1.0080 
    29   opls_828      1    UNK   H0T      1       0.11     1.0080 
    30   opls_829      1    UNK   H0U      1       0.11     1.0080 
[ bonds ]
    2     1     1      0.1529 224262.400
    3     2     1      0.1529 224262.400
    4     3     1      0.1529 224262.400
    5     4     1      0.1529 224262.400
    6     5     1      0.1529 224262.400
    7     6     1      0.1810 185769.600
    8     7     1      0.1810 185769.600
    9     8     1      0.1529 224262.400
   10     2     1      0.1529 224262.400
   11     4     1      0.1529 224262.400
   12     8     1      0.1529 224262.400
   13     1     1      0.1090 284512.000
   14     1     1      0.1090 284512.000
   15     1     1      0.1090 284512.000
   16     2     1      0.1090 284512.000
   17     3     1      0.1090 284512.000
   18     3     1      0.1090 284512.000
   19     4     1      0.1090 284512.000
   20     5     1      0.1090 284512.000
   21     5     1      0.1090 284512.000
   22     6     1      0.1090 284512.000
   23     6     1      0.1090 284512.000
   24     8     1      0.1090 284512.000
   25     9     1      0.1090 284512.000
   26     9     1      0.1090 284512.000
   27    10     1      0.1090 284512.000
   28    11     1      0.1090 284512.000
   29    12     1      0.1090 284512.000
   30    12     1      0.1090 284512.000
   10     9     1      0.1529 224262.400
   11    10     1      0.1529 224262.400
   12    11     1      0.1529 224262.400

[ angles ]
;  ai    aj    ak funct            c0            c1            c2            c3 
    1     2     3     1    112.700    488.273
    2     3     4     1    112.700    488.273
    3     4     5     1    112.700    488.273
    4     5     6     1    112.700    488.273
    5     6     7     1    114.700    418.400
    6     7     8     1     98.900    518.816
    7     8     9     1    114.700    418.400
    1     2    10     1    112.700    488.273
    3     4    11     1    112.700    488.273
    7     8    12     1    114.700    418.400
    2     1    13     1    110.700    313.800
    2     1    14     1    110.700    313.800
    2     1    15     1    110.700    313.800
    1     2    16     1    110.700    313.800
    2     3    17     1    110.700    313.800
    2     3    18     1    110.700    313.800
    3     4    19     1    110.700    313.800
    4     5    20     1    110.700    313.800
    4     5    21     1    110.700    313.800
    5     6    22     1    110.700    313.800
    5     6    23     1    110.700    313.800
    7     8    24     1    109.500    292.880
    8     9    25     1    110.700    313.800
    8     9    26     1    110.700    313.800
    2    10    27     1    110.700    313.800
    4    11    28     1    110.700    313.800
    8    12    29     1    110.700    313.800
    8    12    30     1    110.700    313.800
   10    11    28     1    110.700    313.800
   11    12    30     1    110.700    313.800
   11     4    19     1    110.700    313.800
   29    12    30     1    107.800    276.144
    7     6    22     1    109.500    292.880
   25     9    26     1    107.800    276.144
    9     8    12     1    112.700    488.273
    8    12    11     1    112.700    488.273
   13     1    14     1    107.800    276.144
   17     3    18     1    107.800    276.144
    7     6    23     1    109.500    292.880
    6     5    21     1    110.700    313.800
   14     1    15     1    107.800    276.144
   11    10    27     1    110.700    313.800
    3     2    16     1    110.700    313.800
   12     8    24     1    110.700    313.800
    4     3    18     1    110.700    313.800
   20     5    21     1    107.800    276.144
    2    10    11     1    112.700    488.273
    6     5    20     1    110.700    313.800
   10    11    12     1    112.700    488.273
    5     4    19     1    110.700    313.800
   10     9    25     1    110.700    313.800
   11    12    29     1    110.700    313.800
    4    11    12     1    112.700    488.273
    2    10     9     1    112.700    488.273
    5     4    11     1    112.700    488.273
   10     9    26     1    110.700    313.800
    9    10    11     1    112.700    488.273
   22     6    23     1    107.800    276.144
    4    11    10     1    112.700    488.273
   12    11    28     1    110.700    313.800
    9    10    27     1    110.700    313.800
    8     9    10     1    112.700    488.273
   13     1    15     1    107.800    276.144
    4     3    17     1    110.700    313.800
   10     2    16     1    110.700    313.800
    9     8    24     1    110.700    313.800
    3     2    10     1    112.700    488.273

[ dihedrals ]
; IMPROPER DIHEDRAL ANGLES 
;  ai    aj    ak    al funct            c0            c1            c2            c3            c4            c5

[ dihedrals ]
; PROPER DIHEDRAL ANGLES
;  ai    aj    ak    al funct            c0            c1            c2            c3            c4            c5
    4    3    2    1        3       2.301  -1.464   0.837  -1.674  -0.000   0.000
   11   10    2    1        3       2.301  -1.464   0.837  -1.674  -0.000   0.000
    9   10    2    1        3       2.301  -1.464   0.837  -1.674  -0.000   0.000
   12   11    4    5        3       2.301  -1.464   0.837  -1.674  -0.000   0.000
   10    2    3    4        3       2.301  -1.464   0.837  -1.674  -0.000   0.000
   10   11   12    8        3       2.301  -1.464   0.837  -1.674  -0.000   0.000
    9   10    2    3        3       2.301  -1.464   0.837  -1.674  -0.000   0.000
   12   11   10    9        3       2.301  -1.464   0.837  -1.674  -0.000   0.000
   11   12    8    9        3       2.301  -1.464   0.837  -1.674  -0.000   0.000
    4   11   10    2        3       2.301  -1.464   0.837  -1.674  -0.000   0.000
   10   11    4    3        3       2.301  -1.464   0.837  -1.674  -0.000   0.000
   12    8    9   10        3       2.301  -1.464   0.837  -1.674  -0.000   0.000
   10   11    4    5        3       2.301  -1.464   0.837  -1.674  -0.000   0.000
   12   11    4    3        3       2.301  -1.464   0.837  -1.674  -0.000   0.000
   11    4    5    6        3       2.301  -1.464   0.837  -1.674  -0.000   0.000
    9   10   11    4        3       2.301  -1.464   0.837  -1.674  -0.000   0.000
   11    4    3    2        3       2.301  -1.464   0.837  -1.674  -0.000   0.000
    8    9   10    2        3       2.301  -1.464   0.837  -1.674  -0.000   0.000
   12   11   10    2        3       2.301  -1.464   0.837  -1.674  -0.000   0.000
    8   12   11    4        3       2.301  -1.464   0.837  -1.674  -0.000   0.000
   11   10    2    3        3       2.301  -1.464   0.837  -1.674  -0.000   0.000
   11   10    9    8        3       2.301  -1.464   0.837  -1.674  -0.000   0.000
    5    4    3    2        3       2.301  -1.464   0.837  -1.674  -0.000   0.000
    6    5    4    3        3       2.301  -1.464   0.837  -1.674  -0.000   0.000
   11   12    8    7        3       3.425  -3.860   2.594  -2.159  -0.000   0.000
   10    9    8    7        3       3.425  -3.860   2.594  -2.159  -0.000   0.000
    9    8    7    6        3       0.941   2.314   2.410  -5.665  -0.000   0.000
   12    8    7    6        3       0.941   2.314   2.410  -5.665  -0.000   0.000
    8    7    6    5        3       0.941   2.314   2.410  -5.665  -0.000   0.000
   18    3    4   11        3       0.628   1.883   0.000  -2.510  -0.000   0.000
   25    9    8   12        3       0.628   1.883   0.000  -2.510  -0.000   0.000
   16    2   10   11        3       0.628   1.883   0.000  -2.510  -0.000   0.000
   18    3    2    1        3       0.628   1.883   0.000  -2.510  -0.000   0.000
   28   11    4    5        3       0.628   1.883   0.000  -2.510  -0.000   0.000
   28   11   10    2        3       0.628   1.883   0.000  -2.510  -0.000   0.000
   19    4    5    6        3       0.628   1.883   0.000  -2.510  -0.000   0.000
   27   10   11    4        3       0.628   1.883   0.000  -2.510  -0.000   0.000
   30   12    8    9        3       0.628   1.883   0.000  -2.510  -0.000   0.000
   18    3    4    5        3       0.628   1.883   0.000  -2.510  -0.000   0.000
   27   10    9    8        3       0.628   1.883   0.000  -2.510  -0.000   0.000
   13    1    2    3        3       0.628   1.883   0.000  -2.510  -0.000   0.000
   21    5    4   11        3       0.628   1.883   0.000  -2.510  -0.000   0.000
   14    1    2    3        3       0.628   1.883   0.000  -2.510  -0.000   0.000
   13    1    2   10        3       0.628   1.883   0.000  -2.510  -0.000   0.000
   17    3    2    1        3       0.628   1.883   0.000  -2.510  -0.000   0.000
   28   11    4    3        3       0.628   1.883   0.000  -2.510  -0.000   0.000
   30   12   11    4        3       0.628   1.883   0.000  -2.510  -0.000   0.000
   17    3    4   11        3       0.628   1.883   0.000  -2.510  -0.000   0.000
   15    1    2    3        3       0.628   1.883   0.000  -2.510  -0.000   0.000
   26    9   10    2        3       0.628   1.883   0.000  -2.510  -0.000   0.000
   25    9   10    2        3       0.628   1.883   0.000  -2.510  -0.000   0.000
   28   11   10    9        3       0.628   1.883   0.000  -2.510  -0.000   0.000
   17    3    4    5        3       0.628   1.883   0.000  -2.510  -0.000   0.000
   19    4   11   10        3       0.628   1.883   0.000  -2.510  -0.000   0.000
   30   12   11   10        3       0.628   1.883   0.000  -2.510  -0.000   0.000
   28   11   12    8        3       0.628   1.883   0.000  -2.510  -0.000   0.000
   29   12   11    4        3       0.628   1.883   0.000  -2.510  -0.000   0.000
   27   10    2    3        3       0.628   1.883   0.000  -2.510  -0.000   0.000
   27   10    2    1        3       0.628   1.883   0.000  -2.510  -0.000   0.000
   24    8    9   10        3       0.628   1.883   0.000  -2.510  -0.000   0.000
   21    5    4    3        3       0.628   1.883   0.000  -2.510  -0.000   0.000
   19    4   11   12        3       0.628   1.883   0.000  -2.510  -0.000   0.000
   19    4    3    2        3       0.628   1.883   0.000  -2.510  -0.000   0.000
   18    3    2   10        3       0.628   1.883   0.000  -2.510  -0.000   0.000
   24    8   12   11        3       0.628   1.883   0.000  -2.510  -0.000   0.000
   29   12   11   10        3       0.628   1.883   0.000  -2.510  -0.000   0.000
   16    2    3    4        3       0.628   1.883   0.000  -2.510  -0.000   0.000
   23    6    5    4        3       0.628   1.883   0.000  -2.510  -0.000   0.000
   27   10   11   12        3       0.628   1.883   0.000  -2.510  -0.000   0.000
   26    9   10   11        3       0.628   1.883   0.000  -2.510  -0.000   0.000
   22    6    5    4        3       0.628   1.883   0.000  -2.510  -0.000   0.000
   20    5    4   11        3       0.628   1.883   0.000  -2.510  -0.000   0.000
   20    5    4    3        3       0.628   1.883   0.000  -2.510  -0.000   0.000
   15    1    2   10        3       0.628   1.883   0.000  -2.510  -0.000   0.000
   14    1    2   10        3       0.628   1.883   0.000  -2.510  -0.000   0.000
   17    3    2   10        3       0.628   1.883   0.000  -2.510  -0.000   0.000
   29   12    8    9        3       0.628   1.883   0.000  -2.510  -0.000   0.000
   25    9   10   11        3       0.628   1.883   0.000  -2.510  -0.000   0.000
   26    9    8   12        3       0.628   1.883   0.000  -2.510  -0.000   0.000
   16    2   10    9        3       0.628   1.883   0.000  -2.510  -0.000   0.000
   28   11    4   19        3       0.628   1.883   0.000  -2.510  -0.000   0.000
   25    9    8   24        3       0.628   1.883   0.000  -2.510  -0.000   0.000
   16    2    1   13        3       0.628   1.883   0.000  -2.510  -0.000   0.000
   17    3    2   16        3       0.628   1.883   0.000  -2.510  -0.000   0.000
   22    6    5   20        3       0.628   1.883   0.000  -2.510  -0.000   0.000
   21    5    4   19        3       0.628   1.883   0.000  -2.510  -0.000   0.000
   30   12   11   28        3       0.628   1.883   0.000  -2.510  -0.000   0.000
   16    2    1   15        3       0.628   1.883   0.000  -2.510  -0.000   0.000
   18    3    2   16        3       0.628   1.883   0.000  -2.510  -0.000   0.000
   27   10    2   16        3       0.628   1.883   0.000  -2.510  -0.000   0.000
   29   12   11   28        3       0.628   1.883   0.000  -2.510  -0.000   0.000
   30   12    8   24        3       0.628   1.883   0.000  -2.510  -0.000   0.000
   28   11   10   27        3       0.628   1.883   0.000  -2.510  -0.000   0.000
   16    2    1   14        3       0.628   1.883   0.000  -2.510  -0.000   0.000
   26    9    8   24        3       0.628   1.883   0.000  -2.510  -0.000   0.000
   27   10    9   26        3       0.628   1.883   0.000  -2.510  -0.000   0.000
   19    4    3   17        3       0.628   1.883   0.000  -2.510  -0.000   0.000
   19    4    3   18        3       0.628   1.883   0.000  -2.510  -0.000   0.000
   23    6    5   21        3       0.628   1.883   0.000  -2.510  -0.000   0.000
   27   10    9   25        3       0.628   1.883   0.000  -2.510  -0.000   0.000
   22    6    5   21        3       0.628   1.883   0.000  -2.510  -0.000   0.000
   23    6    5   20        3       0.628   1.883   0.000  -2.510  -0.000   0.000
   29   12    8   24        3       0.628   1.883   0.000  -2.510  -0.000   0.000
   20    5    4   19        3       0.628   1.883   0.000  -2.510  -0.000   0.000
   20    5    6    7        3       0.946   2.837   0.000  -3.782  -0.000   0.000
   25    9    8    7        3       0.946   2.837   0.000  -3.782  -0.000   0.000
   21    5    6    7        3       0.946   2.837   0.000  -3.782  -0.000   0.000
   29   12    8    7        3       0.946   2.837   0.000  -3.782  -0.000   0.000
   26    9    8    7        3       0.946   2.837   0.000  -3.782  -0.000   0.000
   30   12    8    7        3       0.946   2.837   0.000  -3.782  -0.000   0.000
   23    6    7    8        3       1.354   4.061   0.000  -5.414  -0.000   0.000
   22    6    7    8        3       1.354   4.061   0.000  -5.414  -0.000   0.000
   24    8    7    6        3       1.354   4.061   0.000  -5.414  -0.000   0.000
    7    6    5    4        3       3.425  -3.860   2.594  -2.159  -0.000   0.000

[ pairs ]
     1     4    1
     2     5    1
     3     6    1
     2     8    1
     1     9    1
     4     7    1
     4     8    1
     3     9    1
     1    11    1
     5     8    1
     4     9    1
     2    12    1
     6     9    1
     5    10    1
     3    12    1
     3    13    1
     7    10    1
     6    11    1
     5    12    1
     3    14    1
     7    11    1
     6    12    1
     3    15    1
     1    17    1
     1    18    1
     4    16    1
     2    19    1
     5    17    1
    10    13    1
     5    18    1
     3    20    1
    10    14    1
     3    21    1
    10    15    1
     9    16    1
     6    19    1
     4    22    1
    11    16    1
    10    17    1
     7    20    1
     4    23    1
     2    25    1
    11    17    1
    10    18    1
     7    21    1
     2    26    1
     1    27    1
    13    16    1
    11    18    1
    10    19    1
    14    16    1
     8    22    1
     6    24    1
     3    27    1
     2    28    1
    15    16    1
    12    19    1
    11    20    1
     8    23    1
     4    27    1
     3    28    1
    11    21    1
     7    25    1
    16    17    1
     7    26    1
     5    28    1
     4    29    1
    16    18    1
    10    24    1
     4    30    1
    11    24    1
     8    27    1
    17    19    1
    11    25    1
     8    28    1
     7    29    1
    18    19    1
    12    25    1
    11    26    1
     9    28    1
     7    30    1
    12    26    1
     9    29    1
    19    20    1
    12    27    1
    10    29    1
     9    30    1
    19    21    1
    10    30    1
    20    22    1
    21    22    1
    20    23    1
    16    27    1
    21    23    1
    19    28    1
    24    25    1
    24    26    1
    25    27    1
    26    27    1
    24    29    1
    24    30    1
    27    28    1
    28    29    1
    28    30    1

