LIGPARGEN GENERATED GRO FILE
   28
    1UNK    C00    1   0.100   0.100   0.000
    1UNK    O01    2  -0.043   0.100   0.000
    1UNK    C02    3  -0.098   0.100   0.124
    1UNK    O03    4  -0.036   0.096   0.229
    1UNK    C04    5  -0.248   0.106   0.114
    1UNK    C05    6  -0.309   0.174   0.236
    1UNK    O06    7  -0.452   0.171   0.222
    1UNK    C07    8  -0.499   0.293   0.184
    1UNK    O08    9  -0.615   0.315   0.151
    1UNK    C09   10  -0.389   0.396   0.188
    1UNK    C0A   11  -0.421   0.510   0.283
    1UNK    C0B   12  -0.388   0.453   0.420
    1UNK    C0C   13  -0.263   0.370   0.395
    1UNK    C0D   14  -0.272   0.321   0.250
    1UNK    H0E   15   0.134   0.105  -0.104
    1UNK    H0F   16   0.138   0.008   0.045
    1UNK    H0G   17   0.138   0.188   0.053
    1UNK    H0H   18  -0.287   0.004   0.103
    1UNK    H0I   19  -0.277   0.161   0.023
    1UNK    H0J   20  -0.283   0.117   0.326
    1UNK    H0K   21  -0.368   0.429   0.086
    1UNK    H0M   22  -0.525   0.543   0.278
    1UNK    H0N   23  -0.356   0.596   0.262
    1UNK    H0O   24  -0.469   0.388   0.456
    1UNK    H0P   25  -0.371   0.531   0.495
    1UNK    H0Q   26  -0.251   0.290   0.468
    1UNK    H0R   27  -0.175   0.435   0.405
    1UNK    H0S   28  -0.177   0.345   0.200
   1.00000   1.00000   1.00000

