LIGPARGEN GENERATED GRO FILE
   45
    1UNK    C00    1   0.100   0.100   0.000
    1UNK    C01    2  -0.052   0.100   0.000
    1UNK    C02    3  -0.116   0.100   0.141
    1UNK    C03    4  -0.062   0.220   0.222
    1UNK    C04    5  -0.273   0.100   0.133
    1UNK    C05    6  -0.330  -0.023   0.061
    1UNK    C06    7  -0.485  -0.046   0.059
    1UNK    C07    8  -0.506  -0.184  -0.009
    1UNK    C08    9  -0.562   0.056  -0.028
    1UNK    C09   10  -0.543  -0.053   0.203
    1UNK    O0A   11  -0.577   0.073   0.261
    1UNK    C0B   12  -0.472   0.167   0.287
    1UNK    C0C   13  -0.499   0.295   0.205
    1UNK    C0D   14  -0.638   0.354   0.236
    1UNK    C0E   15  -0.395   0.406   0.219
    1UNK    C0F   16  -0.332   0.106   0.273
    1UNK    O0G   17  -0.276   0.051   0.369
    1UNK    H0H   18   0.137   0.091  -0.102
    1UNK    H0I   19   0.139   0.016   0.058
    1UNK    H0J   20   0.141   0.193   0.041
    1UNK    H0K   21  -0.085   0.011  -0.055
    1UNK    H0M   22  -0.088   0.188  -0.056
    1UNK    H0N   23  -0.084   0.009   0.193
    1UNK    H0O   24  -0.078   0.314   0.168
    1UNK    H0P   25   0.045   0.210   0.241
    1UNK    H0Q   26  -0.109   0.229   0.320
    1UNK    H0R   27  -0.301   0.189   0.077
    1UNK    H0S   28  -0.283  -0.112   0.105
    1UNK    H0T   29  -0.297  -0.020  -0.044
    1UNK    H0U   30  -0.470  -0.182  -0.112
    1UNK    H0V   31  -0.613  -0.211  -0.012
    1UNK    H0W   32  -0.453  -0.264   0.044
    1UNK    H0X   33  -0.494   0.121  -0.083
    1UNK    H0Y   34  -0.630   0.118   0.030
    1UNK    H0Z   35  -0.626   0.007  -0.102
    1UNK    H10   36  -0.478  -0.110   0.271
    1UNK    H11   37  -0.638  -0.109   0.201
    1UNK    H12   38  -0.482   0.194   0.393
    1UNK    H13   39  -0.501   0.269   0.099
    1UNK    H14   40  -0.637   0.409   0.331
    1UNK    H15   41  -0.715   0.277   0.242
    1UNK    H16   42  -0.667   0.424   0.157
    1UNK    H17   43  -0.398   0.453   0.317
    1UNK    H18   44  -0.414   0.484   0.143
    1UNK    H19   45  -0.294   0.370   0.201
   1.00000   1.00000   1.00000

