LIGPARGEN GENERATED GRO FILE
   36
    1UNK    C00    1   0.100   0.100   0.000
    1UNK    C01    2  -0.052   0.100   0.000
    1UNK    C02    3  -0.108   0.100   0.143
    1UNK    C03    4  -0.262   0.106   0.151
    1UNK    C04    5  -0.326  -0.015   0.078
    1UNK    C05    6  -0.480  -0.020   0.071
    1UNK    C06    7  -0.541   0.097  -0.005
    1UNK    C07    8  -0.309   0.110   0.298
    1UNK    C08    9  -0.261   0.229   0.387
    1UNK    C09   10  -0.301   0.364   0.327
    1UNK    C0A   11  -0.318   0.215   0.532
    1UNK    C0B   12  -0.470   0.211   0.524
    1UNK    N0C   13  -0.596   0.208   0.518
    1UNK    H0D   14   0.138   0.100  -0.103
    1UNK    H0E   15   0.139   0.011   0.050
    1UNK    H0F   16   0.140   0.189   0.051
    1UNK    H0G   17  -0.085   0.011  -0.055
    1UNK    H0H   18  -0.089   0.188  -0.054
    1UNK    H0I   19  -0.066   0.186   0.195
    1UNK    H0J   20  -0.073   0.010   0.195
    1UNK    H0K   21  -0.295   0.198   0.100
    1UNK    H0M   22  -0.292  -0.107   0.126
    1UNK    H0N   23  -0.291  -0.018  -0.026
    1UNK    H0O   24  -0.523  -0.026   0.171
    1UNK    H0P   25  -0.509  -0.112   0.020
    1UNK    H0Q   26  -0.522   0.192   0.045
    1UNK    H0R   27  -0.649   0.084  -0.012
    1UNK    H0S   28  -0.501   0.103  -0.107
    1UNK    H0T   29  -0.279   0.016   0.347
    1UNK    H0U   30  -0.418   0.111   0.298
    1UNK    H0V   31  -0.152   0.226   0.396
    1UNK    H0W   32  -0.404   0.364   0.291
    1UNK    H0X   33  -0.236   0.389   0.242
    1UNK    H0Y   34  -0.291   0.445   0.400
    1UNK    H0Z   35  -0.286   0.299   0.595
    1UNK    H10   36  -0.282   0.122   0.578
   1.00000   1.00000   1.00000

