LIGPARGEN GENERATED GRO FILE
   28
    1UNK    C00    1   0.100   0.100   0.000
    1UNK    C01    2  -0.054   0.100   0.000
    1UNK    C02    3  -0.080   0.100   0.155
    1UNK    C03    4  -0.163   0.218   0.200
    1UNK    C04    5  -0.310   0.180   0.212
    1UNK    C05    6  -0.384   0.190   0.079
    1UNK    C06    7  -0.290   0.167  -0.042
    1UNK    C07    8  -0.192   0.036  -0.044
    1UNK    C08    9  -0.191   0.285  -0.044
    1UNK    C09   10  -0.072   0.218  -0.100
    1UNK    C0A   11  -0.152   0.327   0.097
    1UNK    O0B   12  -0.102   0.436   0.121
    1UNK    H0C   13   0.127   0.188   0.064
    1UNK    H0D   14   0.149   0.129  -0.094
    1UNK    H0E   15   0.152   0.017   0.047
    1UNK    H0F   16   0.014   0.094   0.214
    1UNK    H0G   17  -0.123   0.004   0.186
    1UNK    H0H   18  -0.125   0.250   0.298
    1UNK    H0I   19  -0.357   0.246   0.286
    1UNK    H0J   20  -0.323   0.076   0.252
    1UNK    H0K   21  -0.421   0.295   0.071
    1UNK    H0M   22  -0.471   0.126   0.076
    1UNK    H0N   23  -0.351   0.166  -0.134
    1UNK    H0O   24  -0.190  -0.008  -0.144
    1UNK    H0P   25  -0.235  -0.040   0.023
    1UNK    H0Q   26  -0.224   0.372  -0.101
    1UNK    H0R   27   0.012   0.286  -0.115
    1UNK    H0S   28  -0.091   0.177  -0.201
   1.00000   1.00000   1.00000

