
;
; GENERATED BY LigParGen Server
; Jorgensen Lab @ Yale University 
;
[ atomtypes ]
  opls_818  H818     1.0080     0.000    A    2.50000E-01   1.25520E-01
  opls_824  H824     1.0080     0.000    A    2.50000E-01   1.25520E-01
  opls_805  C805    12.0110     0.000    A    3.50000E-01   2.76144E-01
  opls_813  H813     1.0080     0.000    A    2.50000E-01   1.25520E-01
  opls_802  C802    12.0110     0.000    A    3.50000E-01   2.76144E-01
  opls_815  H815     1.0080     0.000    A    2.50000E-01   1.25520E-01
  opls_809  C809    12.0110     0.000    A    3.50000E-01   2.76144E-01
  opls_811  O811    15.9990     0.000    A    2.96000E-01   8.78640E-01
  opls_822  H822     1.0080     0.000    A    2.50000E-01   1.25520E-01
  opls_803  C803    12.0110     0.000    A    3.50000E-01   2.76144E-01
  opls_825  H825     1.0080     0.000    A    2.50000E-01   1.25520E-01
  opls_814  H814     1.0080     0.000    A    2.50000E-01   1.25520E-01
  opls_821  H821     1.0080     0.000    A    2.50000E-01   1.25520E-01
  opls_820  H820     1.0080     0.000    A    2.50000E-01   1.25520E-01
  opls_810  C810    12.0110     0.000    A    3.55000E-01   2.92880E-01
  opls_816  H816     1.0080     0.000    A    2.50000E-01   1.25520E-01
  opls_800  C800    12.0110     0.000    A    3.50000E-01   2.76144E-01
  opls_806  C806    12.0110     0.000    A    3.50000E-01   2.76144E-01
  opls_823  H823     1.0080     0.000    A    2.50000E-01   1.25520E-01
  opls_826  H826     1.0080     0.000    A    2.50000E-01   1.25520E-01
  opls_819  H819     1.0080     0.000    A    2.50000E-01   1.25520E-01
  opls_804  C804    12.0110     0.000    A    3.50000E-01   2.76144E-01
  opls_827  H827     1.0080     0.000    A    2.50000E-01   1.25520E-01
  opls_801  C801    12.0110     0.000    A    3.50000E-01   2.76144E-01
  opls_808  C808    12.0110     0.000    A    3.50000E-01   2.76144E-01
  opls_817  H817     1.0080     0.000    A    2.50000E-01   1.25520E-01
  opls_812  H812     1.0080     0.000    A    2.50000E-01   1.25520E-01
  opls_807  C807    12.0110     0.000    A    3.50000E-01   2.76144E-01
[ moleculetype ]
; Name               nrexcl
UNK                   3
[ atoms ]
;   nr       type  resnr residue  atom   cgnr     charge       mass  
     1   opls_800      1    UNK   C00      1    -0.1954    12.0110 
     2   opls_801      1    UNK   C01      1    -0.0827    12.0110 
     3   opls_802      1    UNK   C02      1    -0.1687    12.0110 
     4   opls_803      1    UNK   C03      1    -0.1632    12.0110 
     5   opls_804      1    UNK   C04      1    -0.1676    12.0110 
     6   opls_805      1    UNK   C05      1    -0.1742    12.0110 
     7   opls_806      1    UNK   C06      1     -0.116    12.0110 
     8   opls_807      1    UNK   C07      1    -0.1254    12.0110 
     9   opls_808      1    UNK   C08      1    -0.1828    12.0110 
    10   opls_809      1    UNK   C09      1    -0.1805    12.0110 
    11   opls_810      1    UNK   C0A      1     0.3991    12.0110 
    12   opls_811      1    UNK   O0B      1     -0.446    15.9990 
    13   opls_812      1    UNK   H0C      1     0.0834     1.0080 
    14   opls_813      1    UNK   H0D      1     0.0834     1.0080 
    15   opls_814      1    UNK   H0E      1     0.0834     1.0080 
    16   opls_815      1    UNK   H0F      1     0.0944     1.0080 
    17   opls_816      1    UNK   H0G      1     0.0944     1.0080 
    18   opls_817      1    UNK   H0H      1     0.1306     1.0080 
    19   opls_818      1    UNK   H0I      1     0.0953     1.0080 
    20   opls_819      1    UNK   H0J      1     0.0953     1.0080 
    21   opls_820      1    UNK   H0K      1     0.0956     1.0080 
    22   opls_821      1    UNK   H0M      1     0.0956     1.0080 
    23   opls_822      1    UNK   H0N      1     0.1101     1.0080 
    24   opls_823      1    UNK   H0O      1     0.0947     1.0080 
    25   opls_824      1    UNK   H0P      1     0.0947     1.0080 
    26   opls_825      1    UNK   H0Q      1     0.1378     1.0080 
    27   opls_826      1    UNK   H0R      1     0.1073     1.0080 
    28   opls_827      1    UNK   H0S      1     0.1073     1.0080 
[ bonds ]
    2     1     1      0.1529 224262.400
    3     2     1      0.1529 224262.400
    4     3     1      0.1529 224262.400
    5     4     1      0.1529 224262.400
    6     5     1      0.1529 224262.400
    7     6     1      0.1529 224262.400
    8     2     1      0.1529 224262.400
    9     7     1      0.1529 224262.400
   10     2     1      0.1529 224262.400
   11     4     1      0.1522 265265.600
   12    11     1      0.1229 476976.000
   13     1     1      0.1090 284512.000
   14     1     1      0.1090 284512.000
   15     1     1      0.1090 284512.000
   16     3     1      0.1090 284512.000
   17     3     1      0.1090 284512.000
   18     4     1      0.1090 284512.000
   19     5     1      0.1090 284512.000
   20     5     1      0.1090 284512.000
   21     6     1      0.1090 284512.000
   22     6     1      0.1090 284512.000
   23     7     1      0.1090 284512.000
   24     8     1      0.1090 284512.000
   25     8     1      0.1090 284512.000
   26     9     1      0.1090 284512.000
   27    10     1      0.1090 284512.000
   28    10     1      0.1090 284512.000
    8     7     1      0.1529 224262.400
   10     9     1      0.1529 224262.400
   11     9     1      0.1522 265265.600

[ angles ]
;  ai    aj    ak funct            c0            c1            c2            c3 
    1     2     3     1    112.700    488.273
    2     3     4     1    112.700    488.273
    3     4     5     1    112.700    488.273
    4     5     6     1    112.700    488.273
    5     6     7     1    112.700    488.273
    1     2     8     1    112.700    488.273
    6     7     9     1    112.700    488.273
    1     2    10     1    112.700    488.273
    3     4    11     1    111.100    527.184
    4    11    12     1    120.400    669.440
    2     1    13     1    110.700    313.800
    2     1    14     1    110.700    313.800
    2     1    15     1    110.700    313.800
    2     3    16     1    110.700    313.800
    2     3    17     1    110.700    313.800
    3     4    18     1    110.700    313.800
    4     5    19     1    110.700    313.800
    4     5    20     1    110.700    313.800
    5     6    21     1    110.700    313.800
    5     6    22     1    110.700    313.800
    6     7    23     1    110.700    313.800
    2     8    24     1    110.700    313.800
    2     8    25     1    110.700    313.800
    7     9    26     1    110.700    313.800
    2    10    27     1    110.700    313.800
    2    10    28     1    110.700    313.800
   27    10    28     1    107.800    276.144
   13     1    14     1    107.800    276.144
    4    11     9     1    116.000    585.760
    9    10    27     1    110.700    313.800
    7     6    22     1    110.700    313.800
   21     6    22     1    107.800    276.144
    7     8    24     1    110.700    313.800
    2     8     7     1    112.700    488.273
    6     5    19     1    110.700    313.800
   10     9    26     1    110.700    313.800
    8     7     9     1    112.700    488.273
    8     2    10     1    112.700    488.273
   14     1    15     1    107.800    276.144
    6     7     8     1    112.700    488.273
    7     9    11     1    111.100    527.184
    3     2     8     1    112.700    488.273
    8     7    23     1    110.700    313.800
    9     7    23     1    110.700    313.800
   19     5    20     1    107.800    276.144
    6     5    20     1    110.700    313.800
    9    10    28     1    110.700    313.800
    9    11    12     1    120.400    669.440
    2    10     9     1    112.700    488.273
    5     4    11     1    111.100    527.184
   10     9    11     1    111.100    527.184
    7     8    25     1    110.700    313.800
   24     8    25     1    107.800    276.144
    4     3    16     1    110.700    313.800
    4     3    17     1    110.700    313.800
   16     3    17     1    107.800    276.144
    7     9    10     1    112.700    488.273
    5     4    18     1    110.700    313.800
   13     1    15     1    107.800    276.144
    7     6    21     1    110.700    313.800
   11     4    18     1    109.500    292.880
   11     9    26     1    109.500    292.880
    3     2    10     1    112.700    488.273

[ dihedrals ]
; IMPROPER DIHEDRAL ANGLES 
;  ai    aj    ak    al funct            c0            c1            c2            c3            c4            c5
    12    11     4     9    4        180.000     43.932     2  

[ dihedrals ]
; PROPER DIHEDRAL ANGLES
;  ai    aj    ak    al funct            c0            c1            c2            c3            c4            c5
   11    9   10    2        3      -4.960   6.286   1.310  -2.636  -0.000   0.000
   11    4    3    2        3      -4.960   6.286   1.310  -2.636  -0.000   0.000
   11    4    5    6        3      -4.960   6.286   1.310  -2.636  -0.000   0.000
   11    9    7    8        3      -4.960   6.286   1.310  -2.636  -0.000   0.000
   11    9    7    6        3      -4.960   6.286   1.310  -2.636  -0.000   0.000
    9   11    4    3        3       0.818  -7.906   0.602   6.485  -0.000   0.000
    9   11    4    5        3       0.818  -7.906   0.602   6.485  -0.000   0.000
   10    9   11    4        3       0.818  -7.906   0.602   6.485  -0.000   0.000
    7    9   11    4        3       0.818  -7.906   0.602   6.485  -0.000   0.000
    6    7    8    2        3       2.301  -1.464   0.837  -1.674  -0.000   0.000
   10    9    7    8        3       2.301  -1.464   0.837  -1.674  -0.000   0.000
    9   10    2    3        3       2.301  -1.464   0.837  -1.674  -0.000   0.000
    9   10    2    1        3       2.301  -1.464   0.837  -1.674  -0.000   0.000
    8    7    6    5        3       2.301  -1.464   0.837  -1.674  -0.000   0.000
    7    9   10    2        3       2.301  -1.464   0.837  -1.674  -0.000   0.000
    7    8    2    3        3       2.301  -1.464   0.837  -1.674  -0.000   0.000
    8    2    3    4        3       2.301  -1.464   0.837  -1.674  -0.000   0.000
    9    7    8    2        3       2.301  -1.464   0.837  -1.674  -0.000   0.000
   10    9    7    6        3       2.301  -1.464   0.837  -1.674  -0.000   0.000
   10    2    8    7        3       2.301  -1.464   0.837  -1.674  -0.000   0.000
   10    2    3    4        3       2.301  -1.464   0.837  -1.674  -0.000   0.000
    9   10    2    8        3       2.301  -1.464   0.837  -1.674  -0.000   0.000
    9    7    6    5        3       2.301  -1.464   0.837  -1.674  -0.000   0.000
    4    3    2    1        3       2.301  -1.464   0.837  -1.674  -0.000   0.000
    7    8    2    1        3       2.301  -1.464   0.837  -1.674  -0.000   0.000
    5    4    3    2        3       2.301  -1.464   0.837  -1.674  -0.000   0.000
    6    5    4    3        3       2.301  -1.464   0.837  -1.674  -0.000   0.000
    7    6    5    4        3       2.301  -1.464   0.837  -1.674  -0.000   0.000
   18    4   11    9        3       0.575   1.726   0.000  -2.301  -0.000   0.000
   26    9   11    4        3       0.575   1.726   0.000  -2.301  -0.000   0.000
   26    9   11   12        3       0.000   0.000   0.000  -0.000  -0.000   0.000
   18    4   11   12        3       0.000   0.000   0.000  -0.000  -0.000   0.000
   23    7    9   11        3      -0.209  -0.628   0.000   0.837  -0.000   0.000
   17    3    4   11        3      -0.209  -0.628   0.000   0.837  -0.000   0.000
   27   10    9   11        3      -0.209  -0.628   0.000   0.837  -0.000   0.000
   20    5    4   11        3      -0.209  -0.628   0.000   0.837  -0.000   0.000
   19    5    4   11        3      -0.209  -0.628   0.000   0.837  -0.000   0.000
   16    3    4   11        3      -0.209  -0.628   0.000   0.837  -0.000   0.000
   28   10    9   11        3      -0.209  -0.628   0.000   0.837  -0.000   0.000
   27   10    2    3        3       0.628   1.883   0.000  -2.510  -0.000   0.000
   13    1    2    3        3       0.628   1.883   0.000  -2.510  -0.000   0.000
   16    3    4    5        3       0.628   1.883   0.000  -2.510  -0.000   0.000
   28   10    2    1        3       0.628   1.883   0.000  -2.510  -0.000   0.000
   19    5    4    3        3       0.628   1.883   0.000  -2.510  -0.000   0.000
   23    7    6    5        3       0.628   1.883   0.000  -2.510  -0.000   0.000
   17    3    4    5        3       0.628   1.883   0.000  -2.510  -0.000   0.000
   28   10    2    3        3       0.628   1.883   0.000  -2.510  -0.000   0.000
   28   10    9    7        3       0.628   1.883   0.000  -2.510  -0.000   0.000
   26    9    7    6        3       0.628   1.883   0.000  -2.510  -0.000   0.000
   25    8    7    9        3       0.628   1.883   0.000  -2.510  -0.000   0.000
   24    8    7    6        3       0.628   1.883   0.000  -2.510  -0.000   0.000
   27   10    9    7        3       0.628   1.883   0.000  -2.510  -0.000   0.000
   26    9   10    2        3       0.628   1.883   0.000  -2.510  -0.000   0.000
   24    8    2   10        3       0.628   1.883   0.000  -2.510  -0.000   0.000
   15    1    2   10        3       0.628   1.883   0.000  -2.510  -0.000   0.000
   14    1    2    3        3       0.628   1.883   0.000  -2.510  -0.000   0.000
   25    8    2   10        3       0.628   1.883   0.000  -2.510  -0.000   0.000
   13    1    2   10        3       0.628   1.883   0.000  -2.510  -0.000   0.000
   17    3    2    1        3       0.628   1.883   0.000  -2.510  -0.000   0.000
   17    3    2    8        3       0.628   1.883   0.000  -2.510  -0.000   0.000
   21    6    5    4        3       0.628   1.883   0.000  -2.510  -0.000   0.000
   18    4    5    6        3       0.628   1.883   0.000  -2.510  -0.000   0.000
   15    1    2    8        3       0.628   1.883   0.000  -2.510  -0.000   0.000
   24    8    2    1        3       0.628   1.883   0.000  -2.510  -0.000   0.000
   22    6    7    9        3       0.628   1.883   0.000  -2.510  -0.000   0.000
   21    6    7    9        3       0.628   1.883   0.000  -2.510  -0.000   0.000
   28   10    2    8        3       0.628   1.883   0.000  -2.510  -0.000   0.000
   22    6    7    8        3       0.628   1.883   0.000  -2.510  -0.000   0.000
   21    6    7    8        3       0.628   1.883   0.000  -2.510  -0.000   0.000
   14    1    2    8        3       0.628   1.883   0.000  -2.510  -0.000   0.000
   25    8    7    6        3       0.628   1.883   0.000  -2.510  -0.000   0.000
   25    8    2    3        3       0.628   1.883   0.000  -2.510  -0.000   0.000
   16    3    2    8        3       0.628   1.883   0.000  -2.510  -0.000   0.000
   16    3    2    1        3       0.628   1.883   0.000  -2.510  -0.000   0.000
   22    6    5    4        3       0.628   1.883   0.000  -2.510  -0.000   0.000
   19    5    6    7        3       0.628   1.883   0.000  -2.510  -0.000   0.000
   25    8    2    1        3       0.628   1.883   0.000  -2.510  -0.000   0.000
   18    4    3    2        3       0.628   1.883   0.000  -2.510  -0.000   0.000
   16    3    2   10        3       0.628   1.883   0.000  -2.510  -0.000   0.000
   26    9    7    8        3       0.628   1.883   0.000  -2.510  -0.000   0.000
   20    5    6    7        3       0.628   1.883   0.000  -2.510  -0.000   0.000
   24    8    7    9        3       0.628   1.883   0.000  -2.510  -0.000   0.000
   15    1    2    3        3       0.628   1.883   0.000  -2.510  -0.000   0.000
   14    1    2   10        3       0.628   1.883   0.000  -2.510  -0.000   0.000
   27   10    2    1        3       0.628   1.883   0.000  -2.510  -0.000   0.000
   23    7    9   10        3       0.628   1.883   0.000  -2.510  -0.000   0.000
   27   10    2    8        3       0.628   1.883   0.000  -2.510  -0.000   0.000
   13    1    2    8        3       0.628   1.883   0.000  -2.510  -0.000   0.000
   23    7    8    2        3       0.628   1.883   0.000  -2.510  -0.000   0.000
   20    5    4    3        3       0.628   1.883   0.000  -2.510  -0.000   0.000
   24    8    2    3        3       0.628   1.883   0.000  -2.510  -0.000   0.000
   17    3    2   10        3       0.628   1.883   0.000  -2.510  -0.000   0.000
   24    8    7   23        3       0.628   1.883   0.000  -2.510  -0.000   0.000
   26    9    7   23        3       0.628   1.883   0.000  -2.510  -0.000   0.000
   27   10    9   26        3       0.628   1.883   0.000  -2.510  -0.000   0.000
   18    4    3   17        3       0.628   1.883   0.000  -2.510  -0.000   0.000
   18    4    3   16        3       0.628   1.883   0.000  -2.510  -0.000   0.000
   25    8    7   23        3       0.628   1.883   0.000  -2.510  -0.000   0.000
   21    6    5   19        3       0.628   1.883   0.000  -2.510  -0.000   0.000
   21    6    5   20        3       0.628   1.883   0.000  -2.510  -0.000   0.000
   23    7    6   22        3       0.628   1.883   0.000  -2.510  -0.000   0.000
   22    6    5   20        3       0.628   1.883   0.000  -2.510  -0.000   0.000
   28   10    9   26        3       0.628   1.883   0.000  -2.510  -0.000   0.000
   20    5    4   18        3       0.628   1.883   0.000  -2.510  -0.000   0.000
   19    5    4   18        3       0.628   1.883   0.000  -2.510  -0.000   0.000
   23    7    6   21        3       0.628   1.883   0.000  -2.510  -0.000   0.000
   22    6    5   19        3       0.628   1.883   0.000  -2.510  -0.000   0.000
   12   11    9    7        3       0.000   0.000   0.000  -0.000  -0.000   0.000
   12   11    9   10        3       0.000   0.000   0.000  -0.000  -0.000   0.000
   12   11    4    5        3       0.000   0.000   0.000  -0.000  -0.000   0.000
   12   11    4    3        3       0.000   0.000   0.000  -0.000  -0.000   0.000

[ pairs ]
     1     4    1
     2     5    1
     2     6    1
     1     7    1
     3     6    1
     3     7    1
     1     9    1
     4     7    1
     4     8    1
     3     9    1
     5     8    1
     2    11    1
     5     9    1
     4    10    1
     3    12    1
     6    10    1
     3    13    1
     6    11    1
     5    12    1
     3    14    1
     1    16    1
     3    15    1
     1    17    1
     8    11    1
     7    12    1
     2    18    1
     8    13    1
     5    16    1
    10    12    1
     8    14    1
     5    17    1
     3    19    1
    10    13    1
     8    15    1
     3    20    1
    10    14    1
     8    16    1
     6    18    1
    10    15    1
     8    17    1
     4    21    1
     2    23    1
     1    24    1
    10    16    1
     7    19    1
     4    22    1
     1    25    1
    11    16    1
    10    17    1
     9    18    1
     7    20    1
     3    24    1
    11    17    1
     5    23    1
     3    25    1
     2    26    1
     1    27    1
     8    21    1
     1    28    1
    12    18    1
    11    19    1
     9    21    1
     8    22    1
     6    24    1
     4    26    1
     3    27    1
    11    20    1
     9    22    1
     6    25    1
     3    28    1
     6    26    1
    10    23    1
     9    24    1
    16    18    1
    11    23    1
    10    24    1
     9    25    1
     8    26    1
     7    27    1
    17    18    1
    10    25    1
     8    27    1
     7    28    1
     8    28    1
    18    19    1
    18    20    1
    12    26    1
    11    27    1
    11    28    1
    19    21    1
    20    21    1
    19    22    1
    20    22    1
    21    23    1
    22    23    1
    23    24    1
    23    25    1
    23    26    1
    26    27    1
    26    28    1

