LIGPARGEN GENERATED GRO FILE
   37
    1UNK    C00    1   0.100   0.100   0.000
    1UNK    C01    2  -0.052   0.100   0.000
    1UNK    C02    3  -0.114   0.100   0.141
    1UNK    N03    4  -0.082   0.214   0.229
    1UNK    C04    5  -0.125   0.343   0.170
    1UNK    C05    6  -0.087   0.467   0.252
    1UNK    C06    7  -0.131   0.602   0.191
    1UNK    C07    8  -0.283   0.611   0.175
    1UNK    C08    9  -0.081   0.716   0.280
    1UNK    C09   10  -0.136   0.194   0.367
    1UNK    C0A   11  -0.289   0.187   0.377
    1UNK    C0B   12  -0.073   0.074   0.440
    1UNK    H0C   13   0.137   0.088  -0.102
    1UNK    H0D   14   0.139   0.017   0.060
    1UNK    H0E   15   0.140   0.194   0.039
    1UNK    H0F   16  -0.086   0.009  -0.051
    1UNK    H0G   17  -0.089   0.184  -0.060
    1UNK    H0H   18  -0.080   0.007   0.187
    1UNK    H0I   19  -0.223   0.091   0.128
    1UNK    H0J   20  -0.233   0.341   0.151
    1UNK    H0K   21  -0.076   0.355   0.072
    1UNK    H0M   22   0.023   0.468   0.265
    1UNK    H0N   23  -0.130   0.462   0.353
    1UNK    H0O   24  -0.085   0.612   0.092
    1UNK    H0P   25  -0.333   0.592   0.271
    1UNK    H0Q   26  -0.320   0.540   0.102
    1UNK    H0R   27  -0.312   0.711   0.142
    1UNK    H0S   28  -0.125   0.711   0.380
    1UNK    H0T   29  -0.108   0.813   0.237
    1UNK    H0U   30   0.028   0.713   0.290
    1UNK    H0V   31  -0.104   0.279   0.429
    1UNK    H0W   32  -0.330   0.101   0.323
    1UNK    H0X   33  -0.336   0.278   0.339
    1UNK    H0Y   34  -0.320   0.176   0.482
    1UNK    H0Z   35  -0.101  -0.022   0.395
    1UNK    H10   36  -0.106   0.071   0.544
    1UNK    H11   37   0.036   0.082   0.440
   1.00000   1.00000   1.00000

