LIGPARGEN GENERATED GRO FILE
   36
    1UNK    C00    1   0.100   0.100   0.000
    1UNK    C01    2  -0.054   0.100   0.000
    1UNK    C02    3  -0.100   0.100   0.149
    1UNK    C03    4  -0.177   0.230   0.170
    1UNK    C04    5  -0.240   0.245   0.034
    1UNK    C05    6  -0.324   0.366   0.004
    1UNK    O06    7  -0.343   0.455   0.086
    1UNK    C07    8  -0.392   0.363  -0.135
    1UNK    C08    9  -0.449   0.503  -0.166
    1UNK    C09   10  -0.509   0.264  -0.136
    1UNK    C0A   11  -0.287   0.321  -0.242
    1UNK    C0B   12  -0.197   0.199  -0.202
    1UNK    C0C   13  -0.127   0.222  -0.068
    1UNK    C0D   14  -0.028   0.338  -0.090
    1UNK    H0E   15   0.138   0.013   0.055
    1UNK    H0F   16   0.141   0.188   0.051
    1UNK    H0G   17   0.141   0.096  -0.101
    1UNK    H0H   18  -0.086   0.007  -0.047
    1UNK    H0I   19  -0.018   0.091   0.221
    1UNK    H0J   20  -0.167   0.014   0.165
    1UNK    H0K   21  -0.110   0.313   0.194
    1UNK    H0M   22  -0.251   0.220   0.249
    1UNK    H0N   23  -0.312   0.162   0.028
    1UNK    H0O   24  -0.532   0.527  -0.098
    1UNK    H0P   25  -0.488   0.509  -0.268
    1UNK    H0Q   26  -0.373   0.581  -0.152
    1UNK    H0R   27  -0.588   0.295  -0.067
    1UNK    H0S   28  -0.479   0.163  -0.106
    1UNK    H0T   29  -0.553   0.256  -0.236
    1UNK    H0U   30  -0.223   0.407  -0.264
    1UNK    H0V   31  -0.337   0.298  -0.337
    1UNK    H0W   32  -0.124   0.181  -0.281
    1UNK    H0X   33  -0.261   0.110  -0.196
    1UNK    H0Y   34   0.053   0.305  -0.158
    1UNK    H0Z   35   0.019   0.372   0.002
    1UNK    H10   36  -0.071   0.426  -0.137
   1.00000   1.00000   1.00000

