LIGPARGEN GENERATED GRO FILE
   39
    1UNK    C00    1   0.100   0.100   0.000
    1UNK    C01    2  -0.052   0.100   0.000
    1UNK    C02    3  -0.107   0.100   0.143
    1UNK    C03    4  -0.262   0.106   0.154
    1UNK    C04    5  -0.332  -0.013   0.082
    1UNK    C05    6  -0.289  -0.153   0.128
    1UNK    C06    7  -0.361  -0.267   0.054
    1UNK    C07    8  -0.330  -0.268  -0.096
    1UNK    C08    9  -0.322  -0.402   0.115
    1UNK    C09   10  -0.303   0.118   0.302
    1UNK    C0A   11  -0.440   0.185   0.300
    1UNK    C0B   12  -0.437   0.279   0.180
    1UNK    C0C   13  -0.316   0.240   0.096
    1UNK    H0D   14   0.138   0.100  -0.103
    1UNK    H0E   15   0.139   0.011   0.051
    1UNK    H0F   16   0.139   0.189   0.051
    1UNK    H0G   17  -0.087   0.012  -0.055
    1UNK    H0H   18  -0.087   0.188  -0.054
    1UNK    H0I   19  -0.065   0.186   0.196
    1UNK    H0J   20  -0.070   0.012   0.196
    1UNK    H0K   21  -0.313  -0.003  -0.026
    1UNK    H0M   22  -0.441  -0.004   0.093
    1UNK    H0N   23  -0.310  -0.163   0.235
    1UNK    H0O   24  -0.181  -0.166   0.115
    1UNK    H0P   25  -0.470  -0.255   0.066
    1UNK    H0Q   26  -0.222  -0.270  -0.114
    1UNK    H0R   27  -0.371  -0.180  -0.146
    1UNK    H0S   28  -0.373  -0.357  -0.144
    1UNK    H0T   29  -0.214  -0.420   0.106
    1UNK    H0U   30  -0.374  -0.484   0.065
    1UNK    H0V   31  -0.349  -0.406   0.221
    1UNK    H0W   32  -0.233   0.183   0.356
    1UNK    H0X   33  -0.306   0.022   0.354
    1UNK    H0Y   34  -0.459   0.239   0.393
    1UNK    H0Z   35  -0.519   0.110   0.288
    1UNK    H10   36  -0.429   0.383   0.212
    1UNK    H11   37  -0.530   0.270   0.123
    1UNK    H12   38  -0.240   0.319   0.104
    1UNK    H13   39  -0.342   0.232  -0.010
   1.00000   1.00000   1.00000

