LIGPARGEN GENERATED GRO FILE
   37
    1UNK    C00    1   0.100   0.100   0.000
    1UNK    C01    2  -0.052   0.100   0.000
    1UNK    O02    3  -0.097   0.100   0.135
    1UNK    C03    4  -0.239   0.110   0.150
    1UNK    C04    5  -0.315  -0.011   0.090
    1UNK    C05    6  -0.269  -0.148   0.141
    1UNK    C06    7  -0.336  -0.270   0.070
    1UNK    C07    8  -0.489  -0.260   0.080
    1UNK    C08    9  -0.296  -0.272  -0.078
    1UNK    O09   10  -0.189  -0.230  -0.120
    1UNK    C0A   11  -0.284  -0.400   0.135
    1UNK    C0B   12  -0.340  -0.530   0.077
    1UNK    C0C   13  -0.271   0.133   0.296
    1UNK    O0D   14  -0.393   0.205   0.291
    1UNK    C0E   15  -0.393   0.272   0.172
    1UNK    O0F   16  -0.474   0.357   0.141
    1UNK    O0G   17  -0.291   0.230   0.092
    1UNK    H0H   18   0.139   0.095  -0.102
    1UNK    H0I   19   0.139   0.014   0.056
    1UNK    H0J   20   0.139   0.190   0.048
    1UNK    H0K   21  -0.087   0.010  -0.052
    1UNK    H0M   22  -0.088   0.189  -0.053
    1UNK    H0N   23  -0.305  -0.007  -0.020
    1UNK    H0O   24  -0.422   0.002   0.108
    1UNK    H0P   25  -0.291  -0.155   0.248
    1UNK    H0Q   26  -0.160  -0.156   0.131
    1UNK    H0R   27  -0.528  -0.171   0.030
    1UNK    H0S   28  -0.522  -0.257   0.184
    1UNK    H0T   29  -0.539  -0.345   0.031
    1UNK    H0U   30  -0.368  -0.320  -0.146
    1UNK    H0V   31  -0.306  -0.399   0.243
    1UNK    H0W   32  -0.175  -0.404   0.126
    1UNK    H0X   33  -0.448  -0.538   0.093
    1UNK    H0Y   34  -0.293  -0.616   0.127
    1UNK    H0Z   35  -0.320  -0.538  -0.030
    1UNK    H10   36  -0.196   0.195   0.347
    1UNK    H11   37  -0.283   0.041   0.353
   1.00000   1.00000   1.00000

