LIGPARGEN GENERATED GRO FILE
   31
    1UNK    C00    1   0.100   0.100   0.000
    1UNK    C01    2  -0.053   0.100   0.000
    1UNK    C02    3  -0.117   0.100   0.141
    1UNK    C03    4  -0.080  -0.032   0.213
    1UNK    C04    5  -0.272   0.112   0.131
    1UNK    C05    6  -0.305   0.237   0.216
    1UNK    C06    7  -0.449   0.242   0.262
    1UNK    C07    8  -0.258   0.362   0.139
    1UNK    C08    9  -0.106   0.357   0.154
    1UNK    C09   10  -0.082   0.224   0.230
    1UNK    C0A   11  -0.201   0.228   0.328
    1UNK    H0B   12   0.137   0.100  -0.103
    1UNK    H0C   13   0.140   0.011   0.049
    1UNK    H0D   14   0.140   0.188   0.050
    1UNK    H0E   15  -0.087   0.011  -0.055
    1UNK    H0F   16  -0.087   0.186  -0.059
    1UNK    H0G   17  -0.103  -0.118   0.150
    1UNK    H0H   18  -0.134  -0.045   0.307
    1UNK    H0I   19   0.027  -0.035   0.237
    1UNK    H0J   20  -0.321   0.023   0.171
    1UNK    H0K   21  -0.307   0.124   0.027
    1UNK    H0M   22  -0.517   0.248   0.176
    1UNK    H0N   23  -0.467   0.330   0.326
    1UNK    H0O   24  -0.476   0.153   0.320
    1UNK    H0P   25  -0.297   0.454   0.184
    1UNK    H0Q   26  -0.289   0.360   0.034
    1UNK    H0R   27  -0.072   0.441   0.216
    1UNK    H0S   28  -0.054   0.363   0.058
    1UNK    H0T   29   0.016   0.218   0.278
    1UNK    H0U   30  -0.200   0.317   0.392
    1UNK    H0V   31  -0.211   0.139   0.390
   1.00000   1.00000   1.00000

