
;
; GENERATED BY LigParGen Server
; Jorgensen Lab @ Yale University 
;
[ atomtypes ]
  opls_818  H818     1.0080     0.000    A    2.50000E-01   1.25520E-01
  opls_824  H824     1.0080     0.000    A    2.50000E-01   1.25520E-01
  opls_805  C805    12.0110     0.000    A    3.50000E-01   2.76144E-01
  opls_828  H828     1.0080     0.000    A    2.50000E-01   1.25520E-01
  opls_813  H813     1.0080     0.000    A    2.50000E-01   1.25520E-01
  opls_802  C802    12.0110     0.000    A    3.50000E-01   2.76144E-01
  opls_815  H815     1.0080     0.000    A    2.50000E-01   1.25520E-01
  opls_809  C809    12.0110     0.000    A    3.50000E-01   2.76144E-01
  opls_830  H830     1.0080     0.000    A    2.50000E-01   1.25520E-01
  opls_822  H822     1.0080     0.000    A    2.50000E-01   1.25520E-01
  opls_803  C803    12.0110     0.000    A    3.50000E-01   2.76144E-01
  opls_825  H825     1.0080     0.000    A    2.50000E-01   1.25520E-01
  opls_814  H814     1.0080     0.000    A    2.50000E-01   1.25520E-01
  opls_810  C810    12.0110     0.000    A    3.50000E-01   2.76144E-01
  opls_820  H820     1.0080     0.000    A    2.50000E-01   1.25520E-01
  opls_811  H811     1.0080     0.000    A    2.50000E-01   1.25520E-01
  opls_821  H821     1.0080     0.000    A    2.50000E-01   1.25520E-01
  opls_816  H816     1.0080     0.000    A    2.50000E-01   1.25520E-01
  opls_800  C800    12.0110     0.000    A    3.50000E-01   2.76144E-01
  opls_806  C806    12.0110     0.000    A    3.50000E-01   2.76144E-01
  opls_823  H823     1.0080     0.000    A    2.50000E-01   1.25520E-01
  opls_826  H826     1.0080     0.000    A    2.50000E-01   1.25520E-01
  opls_819  H819     1.0080     0.000    A    2.50000E-01   1.25520E-01
  opls_804  C804    12.0110     0.000    A    3.50000E-01   2.76144E-01
  opls_827  H827     1.0080     0.000    A    2.50000E-01   1.25520E-01
  opls_801  C801    12.0110     0.000    A    3.50000E-01   2.76144E-01
  opls_808  C808    12.0110     0.000    A    3.50000E-01   2.76144E-01
  opls_817  H817     1.0080     0.000    A    2.50000E-01   1.25520E-01
  opls_812  H812     1.0080     0.000    A    2.50000E-01   1.25520E-01
  opls_829  H829     1.0080     0.000    A    2.50000E-01   1.25520E-01
  opls_807  C807    12.0110     0.000    A    3.50000E-01   2.76144E-01
[ moleculetype ]
; Name               nrexcl
UNK                   3
[ atoms ]
;   nr       type  resnr residue  atom   cgnr     charge       mass  
     1   opls_800      1    UNK   C00      1    -0.2366    12.0110 
     2   opls_801      1    UNK   C01      1    -0.1606    12.0110 
     3   opls_802      1    UNK   C02      1    -0.0487    12.0110 
     4   opls_803      1    UNK   C03      1    -0.2269    12.0110 
     5   opls_804      1    UNK   C04      1    -0.1665    12.0110 
     6   opls_805      1    UNK   C05      1    -0.0734    12.0110 
     7   opls_806      1    UNK   C06      1     -0.217    12.0110 
     8   opls_807      1    UNK   C07      1    -0.1733    12.0110 
     9   opls_808      1    UNK   C08      1    -0.1812    12.0110 
    10   opls_809      1    UNK   C09      1    -0.1128    12.0110 
    11   opls_810      1    UNK   C0A      1    -0.1842    12.0110 
    12   opls_811      1    UNK   H0B      1     0.0803     1.0080 
    13   opls_812      1    UNK   H0C      1     0.0803     1.0080 
    14   opls_813      1    UNK   H0D      1     0.0803     1.0080 
    15   opls_814      1    UNK   H0E      1      0.087     1.0080 
    16   opls_815      1    UNK   H0F      1      0.087     1.0080 
    17   opls_816      1    UNK   H0G      1     0.0809     1.0080 
    18   opls_817      1    UNK   H0H      1     0.0809     1.0080 
    19   opls_818      1    UNK   H0I      1     0.0809     1.0080 
    20   opls_819      1    UNK   H0J      1     0.0951     1.0080 
    21   opls_820      1    UNK   H0K      1     0.0951     1.0080 
    22   opls_821      1    UNK   H0M      1     0.0825     1.0080 
    23   opls_822      1    UNK   H0N      1     0.0825     1.0080 
    24   opls_823      1    UNK   H0O      1     0.0825     1.0080 
    25   opls_824      1    UNK   H0P      1     0.0926     1.0080 
    26   opls_825      1    UNK   H0Q      1     0.0926     1.0080 
    27   opls_826      1    UNK   H0R      1     0.0927     1.0080 
    28   opls_827      1    UNK   H0S      1     0.0927     1.0080 
    29   opls_828      1    UNK   H0T      1     0.1143     1.0080 
    30   opls_829      1    UNK   H0U      1     0.1005     1.0080 
    31   opls_830      1    UNK   H0V      1     0.1005     1.0080 
[ bonds ]
    2     1     1      0.1529 224262.400
    3     2     1      0.1529 224262.400
    4     3     1      0.1529 224262.400
    5     3     1      0.1529 224262.400
    6     5     1      0.1529 224262.400
    7     6     1      0.1529 224262.400
    8     6     1      0.1529 224262.400
    9     8     1      0.1529 224262.400
   10     3     1      0.1529 224262.400
   11     6     1      0.1529 224262.400
   12     1     1      0.1090 284512.000
   13     1     1      0.1090 284512.000
   14     1     1      0.1090 284512.000
   15     2     1      0.1090 284512.000
   16     2     1      0.1090 284512.000
   17     4     1      0.1090 284512.000
   18     4     1      0.1090 284512.000
   19     4     1      0.1090 284512.000
   20     5     1      0.1090 284512.000
   21     5     1      0.1090 284512.000
   22     7     1      0.1090 284512.000
   23     7     1      0.1090 284512.000
   24     7     1      0.1090 284512.000
   25     8     1      0.1090 284512.000
   26     8     1      0.1090 284512.000
   27     9     1      0.1090 284512.000
   28     9     1      0.1090 284512.000
   29    10     1      0.1090 284512.000
   30    11     1      0.1090 284512.000
   31    11     1      0.1090 284512.000
   10     9     1      0.1529 224262.400
   11    10     1      0.1529 224262.400

[ angles ]
;  ai    aj    ak funct            c0            c1            c2            c3 
    1     2     3     1    112.700    488.273
    2     3     4     1    112.700    488.273
    2     3     5     1    112.700    488.273
    3     5     6     1    112.700    488.273
    5     6     7     1    112.700    488.273
    5     6     8     1    112.700    488.273
    6     8     9     1    112.700    488.273
    2     3    10     1    112.700    488.273
    5     6    11     1    112.700    488.273
    2     1    12     1    110.700    313.800
    2     1    13     1    110.700    313.800
    2     1    14     1    110.700    313.800
    1     2    15     1    110.700    313.800
    1     2    16     1    110.700    313.800
    3     4    17     1    110.700    313.800
    3     4    18     1    110.700    313.800
    3     4    19     1    110.700    313.800
    3     5    20     1    110.700    313.800
    3     5    21     1    110.700    313.800
    6     7    22     1    110.700    313.800
    6     7    23     1    110.700    313.800
    6     7    24     1    110.700    313.800
    6     8    25     1    110.700    313.800
    6     8    26     1    110.700    313.800
    8     9    27     1    110.700    313.800
    8     9    28     1    110.700    313.800
    3    10    29     1    110.700    313.800
    6    11    30     1    110.700    313.800
    6    11    31     1    110.700    313.800
   10    11    30     1    110.700    313.800
    9     8    25     1    110.700    313.800
    8     6    11     1    112.700    488.273
   11    10    29     1    110.700    313.800
    5     3    10     1    112.700    488.273
   10     9    28     1    110.700    313.800
    9    10    29     1    110.700    313.800
   12     1    13     1    107.800    276.144
    3     2    15     1    110.700    313.800
    6    11    10     1    112.700    488.273
   27     9    28     1    107.800    276.144
   23     7    24     1    107.800    276.144
   17     4    18     1    107.800    276.144
   12     1    14     1    107.800    276.144
    4     3    10     1    112.700    488.273
    4     3     5     1    112.700    488.273
    7     6    11     1    112.700    488.273
   18     4    19     1    107.800    276.144
   15     2    16     1    107.800    276.144
   22     7    24     1    107.800    276.144
    3     2    16     1    110.700    313.800
    9    10    11     1    112.700    488.273
   17     4    19     1    107.800    276.144
    6     5    20     1    110.700    313.800
    7     6     8     1    112.700    488.273
    3    10     9     1    112.700    488.273
   25     8    26     1    107.800    276.144
   13     1    14     1    107.800    276.144
   30    11    31     1    107.800    276.144
    6     5    21     1    110.700    313.800
   22     7    23     1    107.800    276.144
    9     8    26     1    110.700    313.800
    3    10    11     1    112.700    488.273
   10    11    31     1    110.700    313.800
    8     9    10     1    112.700    488.273
   10     9    27     1    110.700    313.800
   20     5    21     1    107.800    276.144

[ dihedrals ]
; IMPROPER DIHEDRAL ANGLES 
;  ai    aj    ak    al funct            c0            c1            c2            c3            c4            c5

[ dihedrals ]
; PROPER DIHEDRAL ANGLES
;  ai    aj    ak    al funct            c0            c1            c2            c3            c4            c5
    4    3    2    1        3       2.301  -1.464   0.837  -1.674  -0.000   0.000
    8    9   10    3        3       2.301  -1.464   0.837  -1.674  -0.000   0.000
   11    6    5    3        3       2.301  -1.464   0.837  -1.674  -0.000   0.000
   11   10    3    4        3       2.301  -1.464   0.837  -1.674  -0.000   0.000
    9   10    3    5        3       2.301  -1.464   0.837  -1.674  -0.000   0.000
    9   10   11    6        3       2.301  -1.464   0.837  -1.674  -0.000   0.000
   10   11    6    7        3       2.301  -1.464   0.837  -1.674  -0.000   0.000
   11   10    3    2        3       2.301  -1.464   0.837  -1.674  -0.000   0.000
    9   10    3    4        3       2.301  -1.464   0.837  -1.674  -0.000   0.000
   11   10    3    5        3       2.301  -1.464   0.837  -1.674  -0.000   0.000
   10   11    6    5        3       2.301  -1.464   0.837  -1.674  -0.000   0.000
   10    3    2    1        3       2.301  -1.464   0.837  -1.674  -0.000   0.000
    9    8    6    7        3       2.301  -1.464   0.837  -1.674  -0.000   0.000
    9   10    3    2        3       2.301  -1.464   0.837  -1.674  -0.000   0.000
   11   10    9    8        3       2.301  -1.464   0.837  -1.674  -0.000   0.000
    6    5    3    4        3       2.301  -1.464   0.837  -1.674  -0.000   0.000
    5    3    2    1        3       2.301  -1.464   0.837  -1.674  -0.000   0.000
    6   11   10    3        3       2.301  -1.464   0.837  -1.674  -0.000   0.000
   10    3    5    6        3       2.301  -1.464   0.837  -1.674  -0.000   0.000
    6    5    3    2        3       2.301  -1.464   0.837  -1.674  -0.000   0.000
   10    9    8    6        3       2.301  -1.464   0.837  -1.674  -0.000   0.000
    7    6    5    3        3       2.301  -1.464   0.837  -1.674  -0.000   0.000
    9    8    6    5        3       2.301  -1.464   0.837  -1.674  -0.000   0.000
   10   11    6    8        3       2.301  -1.464   0.837  -1.674  -0.000   0.000
    8    6    5    3        3       2.301  -1.464   0.837  -1.674  -0.000   0.000
   11    6    8    9        3       2.301  -1.464   0.837  -1.674  -0.000   0.000
   20    5    6   11        3       0.628   1.883   0.000  -2.510  -0.000   0.000
   19    4    3   10        3       0.628   1.883   0.000  -2.510  -0.000   0.000
   30   11    6    7        3       0.628   1.883   0.000  -2.510  -0.000   0.000
   26    8    6    7        3       0.628   1.883   0.000  -2.510  -0.000   0.000
   30   11    6    5        3       0.628   1.883   0.000  -2.510  -0.000   0.000
   25    8    6    7        3       0.628   1.883   0.000  -2.510  -0.000   0.000
   21    5    6    7        3       0.628   1.883   0.000  -2.510  -0.000   0.000
   20    5    6    8        3       0.628   1.883   0.000  -2.510  -0.000   0.000
   22    7    6    8        3       0.628   1.883   0.000  -2.510  -0.000   0.000
   29   10   11    6        3       0.628   1.883   0.000  -2.510  -0.000   0.000
   15    2    3    4        3       0.628   1.883   0.000  -2.510  -0.000   0.000
   14    1    2    3        3       0.628   1.883   0.000  -2.510  -0.000   0.000
   28    9   10    3        3       0.628   1.883   0.000  -2.510  -0.000   0.000
   25    8    6   11        3       0.628   1.883   0.000  -2.510  -0.000   0.000
   26    8    6    5        3       0.628   1.883   0.000  -2.510  -0.000   0.000
   29   10    3    4        3       0.628   1.883   0.000  -2.510  -0.000   0.000
   21    5    3   10        3       0.628   1.883   0.000  -2.510  -0.000   0.000
   19    4    3    5        3       0.628   1.883   0.000  -2.510  -0.000   0.000
   31   11    6    5        3       0.628   1.883   0.000  -2.510  -0.000   0.000
   27    9   10    3        3       0.628   1.883   0.000  -2.510  -0.000   0.000
   31   11   10    3        3       0.628   1.883   0.000  -2.510  -0.000   0.000
   15    2    3   10        3       0.628   1.883   0.000  -2.510  -0.000   0.000
   18    4    3    5        3       0.628   1.883   0.000  -2.510  -0.000   0.000
   27    9   10   11        3       0.628   1.883   0.000  -2.510  -0.000   0.000
   24    7    6   11        3       0.628   1.883   0.000  -2.510  -0.000   0.000
   29   10    3    5        3       0.628   1.883   0.000  -2.510  -0.000   0.000
   20    5    3    2        3       0.628   1.883   0.000  -2.510  -0.000   0.000
   31   11   10    9        3       0.628   1.883   0.000  -2.510  -0.000   0.000
   17    4    3    5        3       0.628   1.883   0.000  -2.510  -0.000   0.000
   25    8    9   10        3       0.628   1.883   0.000  -2.510  -0.000   0.000
   21    5    6    8        3       0.628   1.883   0.000  -2.510  -0.000   0.000
   23    7    6    5        3       0.628   1.883   0.000  -2.510  -0.000   0.000
   24    7    6    8        3       0.628   1.883   0.000  -2.510  -0.000   0.000
   29   10    9    8        3       0.628   1.883   0.000  -2.510  -0.000   0.000
   20    5    3   10        3       0.628   1.883   0.000  -2.510  -0.000   0.000
   20    5    6    7        3       0.628   1.883   0.000  -2.510  -0.000   0.000
   21    5    3    2        3       0.628   1.883   0.000  -2.510  -0.000   0.000
   31   11    6    7        3       0.628   1.883   0.000  -2.510  -0.000   0.000
   28    9   10   11        3       0.628   1.883   0.000  -2.510  -0.000   0.000
   18    4    3    2        3       0.628   1.883   0.000  -2.510  -0.000   0.000
   30   11    6    8        3       0.628   1.883   0.000  -2.510  -0.000   0.000
   21    5    3    4        3       0.628   1.883   0.000  -2.510  -0.000   0.000
   16    2    3   10        3       0.628   1.883   0.000  -2.510  -0.000   0.000
   23    7    6    8        3       0.628   1.883   0.000  -2.510  -0.000   0.000
   17    4    3   10        3       0.628   1.883   0.000  -2.510  -0.000   0.000
   22    7    6    5        3       0.628   1.883   0.000  -2.510  -0.000   0.000
   17    4    3    2        3       0.628   1.883   0.000  -2.510  -0.000   0.000
   12    1    2    3        3       0.628   1.883   0.000  -2.510  -0.000   0.000
   19    4    3    2        3       0.628   1.883   0.000  -2.510  -0.000   0.000
   30   11   10    3        3       0.628   1.883   0.000  -2.510  -0.000   0.000
   27    9    8    6        3       0.628   1.883   0.000  -2.510  -0.000   0.000
   23    7    6   11        3       0.628   1.883   0.000  -2.510  -0.000   0.000
   29   10    3    2        3       0.628   1.883   0.000  -2.510  -0.000   0.000
   28    9    8    6        3       0.628   1.883   0.000  -2.510  -0.000   0.000
   25    8    6    5        3       0.628   1.883   0.000  -2.510  -0.000   0.000
   20    5    3    4        3       0.628   1.883   0.000  -2.510  -0.000   0.000
   31   11    6    8        3       0.628   1.883   0.000  -2.510  -0.000   0.000
   15    2    3    5        3       0.628   1.883   0.000  -2.510  -0.000   0.000
   16    2    3    4        3       0.628   1.883   0.000  -2.510  -0.000   0.000
   24    7    6    5        3       0.628   1.883   0.000  -2.510  -0.000   0.000
   16    2    3    5        3       0.628   1.883   0.000  -2.510  -0.000   0.000
   26    8    6   11        3       0.628   1.883   0.000  -2.510  -0.000   0.000
   21    5    6   11        3       0.628   1.883   0.000  -2.510  -0.000   0.000
   26    8    9   10        3       0.628   1.883   0.000  -2.510  -0.000   0.000
   30   11   10    9        3       0.628   1.883   0.000  -2.510  -0.000   0.000
   22    7    6   11        3       0.628   1.883   0.000  -2.510  -0.000   0.000
   13    1    2    3        3       0.628   1.883   0.000  -2.510  -0.000   0.000
   18    4    3   10        3       0.628   1.883   0.000  -2.510  -0.000   0.000
   29   10    9   28        3       0.628   1.883   0.000  -2.510  -0.000   0.000
   31   11   10   29        3       0.628   1.883   0.000  -2.510  -0.000   0.000
   27    9    8   25        3       0.628   1.883   0.000  -2.510  -0.000   0.000
   27    9    8   26        3       0.628   1.883   0.000  -2.510  -0.000   0.000
   15    2    1   14        3       0.628   1.883   0.000  -2.510  -0.000   0.000
   16    2    1   13        3       0.628   1.883   0.000  -2.510  -0.000   0.000
   28    9    8   25        3       0.628   1.883   0.000  -2.510  -0.000   0.000
   16    2    1   14        3       0.628   1.883   0.000  -2.510  -0.000   0.000
   30   11   10   29        3       0.628   1.883   0.000  -2.510  -0.000   0.000
   15    2    1   12        3       0.628   1.883   0.000  -2.510  -0.000   0.000
   16    2    1   12        3       0.628   1.883   0.000  -2.510  -0.000   0.000
   15    2    1   13        3       0.628   1.883   0.000  -2.510  -0.000   0.000
   29   10    9   27        3       0.628   1.883   0.000  -2.510  -0.000   0.000
   28    9    8   26        3       0.628   1.883   0.000  -2.510  -0.000   0.000

[ pairs ]
     1     4    1
     1     5    1
     2     6    1
     4     6    1
     3     7    1
     3     8    1
     2     9    1
     1    10    1
     4     9    1
     2    11    1
     5     9    1
     4    11    1
     3    12    1
     7     9    1
     3    13    1
     7    10    1
     3    14    1
     4    15    1
     2    17    1
     5    15    1
     4    16    1
     2    18    1
     5    16    1
     2    19    1
     5    17    1
     2    20    1
     5    18    1
     2    21    1
     5    19    1
     4    20    1
    10    15    1
     4    21    1
    10    16    1
    12    15    1
    10    17    1
     7    20    1
     5    22    1
    13    15    1
    12    16    1
    10    18    1
     8    20    1
     7    21    1
     5    23    1
    14    15    1
    13    16    1
    10    19    1
     8    21    1
     5    24    1
    14    16    1
    10    20    1
     8    22    1
     5    25    1
     3    27    1
    11    20    1
    10    21    1
     8    23    1
     5    26    1
     3    28    1
     2    29    1
    11    21    1
     8    24    1
     7    25    1
    11    22    1
     7    26    1
     6    27    1
     4    29    1
     3    30    1
    11    23    1
     6    28    1
     5    29    1
     3    31    1
    11    24    1
    10    25    1
     6    29    1
     5    30    1
    11    25    1
    10    26    1
     5    31    1
    11    26    1
     8    29    1
     7    30    1
    11    27    1
     8    30    1
     7    31    1
    11    28    1
     9    30    1
     8    31    1
     9    31    1
    25    27    1
    26    27    1
    25    28    1
    26    28    1
    27    29    1
    28    29    1
    29    30    1
    29    31    1

