LIGPARGEN GENERATED GRO FILE
   49
    1UNK    C00    1   0.100   0.100   0.000
    1UNK    C01    2  -0.052   0.100   0.000
    1UNK    C02    3  -0.109   0.100   0.142
    1UNK    C03    4  -0.263   0.100   0.138
    1UNK    C04    5  -0.330   0.100   0.278
    1UNK    C05    6  -0.288   0.227   0.354
    1UNK    C06    7  -0.487   0.087   0.271
    1UNK    C07    8  -0.533  -0.038   0.190
    1UNK    C08    9  -0.685  -0.058   0.171
    1UNK    C09   10  -0.755   0.052   0.090
    1UNK    C0A   11  -0.904   0.021   0.071
    1UNK    C0B   12  -0.986   0.120  -0.007
    1UNK    O0C   13  -0.956  -0.081   0.117
    1UNK    C0D   14  -0.558   0.095   0.409
    1UNK    C0E   15  -0.538  -0.018   0.513
    1UNK    C0F   16  -0.395  -0.037   0.565
    1UNK    C0G   17  -0.629   0.011   0.634
    1UNK    H0H   18   0.137   0.105  -0.103
    1UNK    H0I   19   0.139   0.009   0.046
    1UNK    H0J   20   0.139   0.186   0.055
    1UNK    H0K   21  -0.088   0.012  -0.055
    1UNK    H0M   22  -0.088   0.189  -0.053
    1UNK    H0N   23  -0.071   0.188   0.194
    1UNK    H0O   24  -0.074   0.012   0.196
    1UNK    H0P   25  -0.292   0.010   0.083
    1UNK    H0Q   26  -0.299   0.186   0.081
    1UNK    H0R   27  -0.290   0.013   0.330
    1UNK    H0S   28  -0.316   0.317   0.299
    1UNK    H0T   29  -0.180   0.229   0.372
    1UNK    H0U   30  -0.333   0.234   0.453
    1UNK    H0V   31  -0.522   0.174   0.214
    1UNK    H0W   32  -0.493  -0.128   0.238
    1UNK    H0X   33  -0.491  -0.035   0.089
    1UNK    H0Y   34  -0.734  -0.070   0.268
    1UNK    H0Z   35  -0.699  -0.153   0.119
    1UNK    H10   36  -0.710   0.060  -0.010
    1UNK    H11   37  -0.747   0.149   0.141
    1UNK    H12   38  -0.926   0.206  -0.037
    1UNK    H13   39  -1.069   0.155   0.056
    1UNK    H14   40  -1.025   0.071  -0.097
    1UNK    H15   41  -0.666   0.103   0.390
    1UNK    H16   42  -0.534   0.192   0.456
    1UNK    H17   43  -0.571  -0.113   0.470
    1UNK    H18   44  -0.346   0.059   0.585
    1UNK    H19   45  -0.335  -0.095   0.495
    1UNK    H1A   46  -0.394  -0.093   0.659
    1UNK    H1B   47  -0.603   0.107   0.681
    1UNK    H1C   48  -0.619  -0.067   0.710
    1UNK    H1D   49  -0.734   0.015   0.604
   1.00000   1.00000   1.00000

