LIGPARGEN GENERATED GRO FILE
   26
    1UNK    C00    1   0.100   0.100   0.000
    1UNK    C01    2  -0.052   0.100   0.000
    1UNK    S02    3  -0.112   0.100   0.172
    1UNK    C03    4  -0.292   0.100   0.138
    1UNK    C04    5  -0.375   0.093   0.267
    1UNK    C05    6  -0.353   0.211   0.365
    1UNK    C06    7  -0.382   0.350   0.309
    1UNK    S07    8  -0.557   0.079   0.231
    1UNK    S08    9  -0.572  -0.085   0.108
    1UNK    C09   10  -0.541  -0.222   0.222
    1UNK    H0A   11   0.137   0.100  -0.103
    1UNK    H0B   12   0.140   0.011   0.050
    1UNK    H0C   13   0.140   0.189   0.049
    1UNK    H0D   14  -0.089   0.011  -0.051
    1UNK    H0E   15  -0.089   0.189  -0.051
    1UNK    H0F   16  -0.310   0.012   0.075
    1UNK    H0G   17  -0.317   0.189   0.079
    1UNK    H0H   18  -0.349   0.002   0.321
    1UNK    H0I   19  -0.249   0.209   0.400
    1UNK    H0J   20  -0.414   0.196   0.455
    1UNK    H0K   21  -0.328   0.369   0.216
    1UNK    H0M   22  -0.350   0.425   0.382
    1UNK    H0N   23  -0.489   0.364   0.291
    1UNK    H0O   24  -0.546  -0.316   0.167
    1UNK    H0P   25  -0.616  -0.224   0.302
    1UNK    H0Q   26  -0.440  -0.214   0.265
   1.00000   1.00000   1.00000

