
;
; GENERATED BY LigParGen Server
; Jorgensen Lab @ Yale University 
;
[ atomtypes ]
  opls_818  H818     1.0080     0.000    A    2.50000E-01   1.25520E-01
  opls_807  S807    32.0600     0.000    A    3.55000E-01   1.04600E+00
  opls_805  C805    12.0110     0.000    A    3.50000E-01   2.76144E-01
  opls_809  O809    15.9990     0.000    A    2.96000E-01   7.11280E-01
  opls_813  H813     1.0080     0.000    A    2.50000E-01   1.25520E-01
  opls_801  O801    15.9990     0.000    A    2.90000E-01   5.85760E-01
  opls_803  O803    15.9990     0.000    A    2.96000E-01   8.78640E-01
  opls_806  C806    12.0110     0.000    A    3.50000E-01   2.76144E-01
  opls_815  H815     1.0080     0.000    A    2.50000E-01   1.25520E-01
  opls_822  H822     1.0080     0.000    A    2.50000E-01   1.25520E-01
  opls_814  H814     1.0080     0.000    A    2.50000E-01   1.25520E-01
  opls_821  H821     1.0080     0.000    A    2.50000E-01   1.25520E-01
  opls_820  H820     1.0080     0.000    A    2.50000E-01   1.25520E-01
  opls_811  H811     1.0080     0.000    A    2.50000E-01   1.25520E-01
  opls_816  H816     1.0080     0.000    A    2.50000E-01   1.25520E-01
  opls_800  C800    12.0110     0.000    A    3.50000E-01   2.76144E-01
  opls_802  C802    12.0110     0.000    A    3.55000E-01   2.92880E-01
  opls_819  H819     1.0080     0.000    A    2.50000E-01   1.25520E-01
  opls_804  C804    12.0110     0.000    A    3.50000E-01   2.76144E-01
  opls_808  C808    12.0110     0.000    A    3.50000E-01   2.76144E-01
  opls_810  O810    15.9990     0.000    A    2.96000E-01   7.11280E-01
  opls_817  H817     1.0080     0.000    A    2.50000E-01   1.25520E-01
  opls_812  H812     1.0080     0.000    A    2.50000E-01   1.25520E-01
[ moleculetype ]
; Name               nrexcl
UNK                   3
[ atoms ]
;   nr       type  resnr residue  atom   cgnr     charge       mass  
     1   opls_800      1    UNK   C00      1    -0.0579    12.0110 
     2   opls_801      1    UNK   O01      1    -0.3438    15.9990 
     3   opls_802      1    UNK   C02      1     0.4294    12.0110 
     4   opls_803      1    UNK   O03      1    -0.4275    15.9990 
     5   opls_804      1    UNK   C04      1    -0.0884    12.0110 
     6   opls_805      1    UNK   C05      1    -0.2258    12.0110 
     7   opls_806      1    UNK   C06      1     -0.507    12.0110 
     8   opls_807      1    UNK   S07      1     1.2988    32.0600 
     9   opls_808      1    UNK   C08      1    -0.5813    12.0110 
    10   opls_809      1    UNK   O09      1    -0.5573    15.9990 
    11   opls_810      1    UNK   O0A      1    -0.5573    15.9990 
    12   opls_811      1    UNK   H0B      1     0.1072     1.0080 
    13   opls_812      1    UNK   H0C      1     0.1072     1.0080 
    14   opls_813      1    UNK   H0D      1     0.1072     1.0080 
    15   opls_814      1    UNK   H0E      1     0.1542     1.0080 
    16   opls_815      1    UNK   H0F      1     0.1005     1.0080 
    17   opls_816      1    UNK   H0G      1     0.1005     1.0080 
    18   opls_817      1    UNK   H0H      1     0.1005     1.0080 
    19   opls_818      1    UNK   H0I      1     0.1695     1.0080 
    20   opls_819      1    UNK   H0J      1     0.1695     1.0080 
    21   opls_820      1    UNK   H0K      1     0.1673     1.0080 
    22   opls_821      1    UNK   H0M      1     0.1673     1.0080 
    23   opls_822      1    UNK   H0N      1     0.1673     1.0080 
[ bonds ]
    2     1     1      0.1410 267776.000
    3     2     1      0.1327 179075.200
    4     3     1      0.1229 476976.000
    5     3     1      0.1522 265265.600
    6     5     1      0.1529 224262.400
    7     5     1      0.1529 224262.400
    8     7     1      0.1770 284512.000
    9     8     1      0.1770 284512.000
   10     8     1      0.1440 585760.000
   11     8     1      0.1440 585760.000
   12     1     1      0.1090 284512.000
   13     1     1      0.1090 284512.000
   14     1     1      0.1090 284512.000
   15     5     1      0.1090 284512.000
   16     6     1      0.1090 284512.000
   17     6     1      0.1090 284512.000
   18     6     1      0.1090 284512.000
   19     7     1      0.1090 284512.000
   20     7     1      0.1090 284512.000
   21     9     1      0.1090 284512.000
   22     9     1      0.1090 284512.000
   23     9     1      0.1090 284512.000

[ angles ]
;  ai    aj    ak funct            c0            c1            c2            c3 
    1     2     3     1    116.900    694.544
    2     3     4     1    123.400    694.544
    2     3     5     1    111.400    677.808
    3     5     6     1    111.100    527.184
    3     5     7     1    111.100    527.184
    5     7     8     1    108.600    418.400
    7     8     9     1    102.000    518.816
    7     8    10     1    108.900    619.232
    7     8    11     1    108.900    619.232
    2     1    12     1    109.500    292.880
    2     1    13     1    109.500    292.880
    2     1    14     1    109.500    292.880
    3     5    15     1    109.500    292.880
    5     6    16     1    110.700    313.800
    5     6    17     1    110.700    313.800
    5     6    18     1    110.700    313.800
    5     7    19     1    110.700    313.800
    5     7    20     1    110.700    313.800
    8     9    21     1    109.500    292.880
    8     9    22     1    109.500    292.880
    8     9    23     1    109.500    292.880
   21     9    23     1    107.800    276.144
   10     8    11     1    119.000    870.272
   13     1    14     1    107.800    276.144
   19     7    20     1    107.800    276.144
   17     6    18     1    107.800    276.144
   16     6    17     1    107.800    276.144
    9     8    10     1    108.900    619.232
    7     5    15     1    110.700    313.800
   12     1    14     1    107.800    276.144
   22     9    23     1    107.800    276.144
    4     3     5     1    120.400    669.440
    6     5    15     1    110.700    313.800
   21     9    22     1    107.800    276.144
    6     5     7     1    112.700    488.273
   12     1    13     1    107.800    276.144
    8     7    19     1    109.500    292.880
    9     8    11     1    108.900    619.232
   16     6    18     1    107.800    276.144
    8     7    20     1    109.500    292.880

[ dihedrals ]
; IMPROPER DIHEDRAL ANGLES 
;  ai    aj    ak    al funct            c0            c1            c2            c3            c4            c5
     5     3     2     4    4        180.000     43.932     2  

[ dihedrals ]
; PROPER DIHEDRAL ANGLES
;  ai    aj    ak    al funct            c0            c1            c2            c3            c4            c5
    5    3    2    1        3      31.206  -9.768  -21.439  -0.000  -0.000   0.000
    7    5    3    4        3       0.000   0.000   0.000  -0.000  -0.000   0.000
    6    5    3    4        3       0.000   0.000   0.000  -0.000  -0.000   0.000
    6    5    3    2        3      -1.157  -3.471   0.000   4.628  -0.000   0.000
    7    5    3    2        3      -1.157  -3.471   0.000   4.628  -0.000   0.000
    9    8    7    5        3       0.000   0.000   0.000  -0.000  -0.000   0.000
   15    5    3    4        3       0.000   0.000   0.000  -0.000  -0.000   0.000
   15    5    3    2        3       0.276   0.828   0.000  -1.105  -0.000   0.000
   20    7    5    3        3      -0.209  -0.628   0.000   0.837  -0.000   0.000
   17    6    5    3        3      -0.209  -0.628   0.000   0.837  -0.000   0.000
   19    7    5    3        3      -0.209  -0.628   0.000   0.837  -0.000   0.000
   16    6    5    3        3      -0.209  -0.628   0.000   0.837  -0.000   0.000
   18    6    5    3        3      -0.209  -0.628   0.000   0.837  -0.000   0.000
   18    6    5    7        3       0.628   1.883   0.000  -2.510  -0.000   0.000
   16    6    5    7        3       0.628   1.883   0.000  -2.510  -0.000   0.000
   19    7    5    6        3       0.628   1.883   0.000  -2.510  -0.000   0.000
   17    6    5    7        3       0.628   1.883   0.000  -2.510  -0.000   0.000
   20    7    5    6        3       0.628   1.883   0.000  -2.510  -0.000   0.000
   17    6    5   15        3       0.628   1.883   0.000  -2.510  -0.000   0.000
   20    7    5   15        3       0.628   1.883   0.000  -2.510  -0.000   0.000
   19    7    5   15        3       0.628   1.883   0.000  -2.510  -0.000   0.000
   18    6    5   15        3       0.628   1.883   0.000  -2.510  -0.000   0.000
   16    6    5   15        3       0.628   1.883   0.000  -2.510  -0.000   0.000
   15    5    7    8        3       0.946   2.837   0.000  -3.782  -0.000   0.000
   13    1    2    3        3       0.414   1.243   0.000  -1.657  -0.000   0.000
   14    1    2    3        3       0.414   1.243   0.000  -1.657  -0.000   0.000
   12    1    2    3        3       0.414   1.243   0.000  -1.657  -0.000   0.000
   19    7    8    9        3       0.732   2.197   0.000  -2.929  -0.000   0.000
   20    7    8    9        3       0.732   2.197   0.000  -2.929  -0.000   0.000
   22    9    8    7        3       0.732   2.197   0.000  -2.929  -0.000   0.000
   21    9    8    7        3       0.732   2.197   0.000  -2.929  -0.000   0.000
   23    9    8    7        3       0.732   2.197   0.000  -2.929  -0.000   0.000
   22    9    8   10        3       0.732   2.197   0.000  -2.929  -0.000   0.000
   19    7    8   11        3       0.732   2.197   0.000  -2.929  -0.000   0.000
   20    7    8   10        3       0.732   2.197   0.000  -2.929  -0.000   0.000
   23    9    8   11        3       0.732   2.197   0.000  -2.929  -0.000   0.000
   21    9    8   11        3       0.732   2.197   0.000  -2.929  -0.000   0.000
   22    9    8   11        3       0.732   2.197   0.000  -2.929  -0.000   0.000
   21    9    8   10        3       0.732   2.197   0.000  -2.929  -0.000   0.000
   19    7    8   10        3       0.732   2.197   0.000  -2.929  -0.000   0.000
   20    7    8   11        3       0.732   2.197   0.000  -2.929  -0.000   0.000
   23    9    8   10        3       0.732   2.197   0.000  -2.929  -0.000   0.000
    4    3    2    1        3      21.439   0.000  -21.439  -0.000  -0.000   0.000
   10    8    7    5        3       0.000   0.000   0.000  -0.000  -0.000   0.000
   11    8    7    5        3       0.000   0.000   0.000  -0.000  -0.000   0.000
    8    7    5    3        3      -16.259   9.088   7.171  -0.000  -0.000   0.000
    8    7    5    6        3       2.784   0.278   0.828  -3.891  -0.000   0.000

[ pairs ]
     1     4    1
     1     5    1
     2     6    1
     2     7    1
     4     6    1
     4     7    1
     3     8    1
     6     8    1
     5     9    1
     5    10    1
     3    12    1
     5    11    1
     3    13    1
     3    14    1
     2    15    1
     4    15    1
     3    16    1
     3    17    1
     3    18    1
     3    19    1
     8    15    1
     7    16    1
     3    20    1
     7    17    1
     7    18    1
     6    19    1
     6    20    1
     9    19    1
     7    21    1
    10    19    1
     9    20    1
     7    22    1
    11    19    1
    10    20    1
     7    23    1
    15    16    1
    11    20    1
    10    21    1
    15    17    1
    11    21    1
    10    22    1
    15    18    1
    11    22    1
    10    23    1
    15    19    1
    11    23    1
    15    20    1

