LIGPARGEN GENERATED GRO FILE
   23
    1UNK    C00    1   0.100   0.100   0.000
    1UNK    O01    2  -0.043   0.100   0.000
    1UNK    C02    3  -0.098   0.100   0.124
    1UNK    O03    4  -0.037   0.092   0.230
    1UNK    C04    5  -0.249   0.111   0.114
    1UNK    C05    6  -0.310  -0.014   0.177
    1UNK    C06    7  -0.296   0.237   0.186
    1UNK    S07    8  -0.237   0.386   0.106
    1UNK    C08    9  -0.306   0.515   0.207
    1UNK    O09   10  -0.093   0.392   0.121
    1UNK    O0A   11  -0.299   0.394  -0.025
    1UNK    H0B   12   0.134   0.100  -0.104
    1UNK    H0C   13   0.139   0.010   0.049
    1UNK    H0D   14   0.138   0.190   0.049
    1UNK    H0E   15  -0.277   0.114   0.009
    1UNK    H0F   16  -0.290  -0.019   0.285
    1UNK    H0G   17  -0.268  -0.105   0.132
    1UNK    H0H   18  -0.418  -0.016   0.162
    1UNK    H0I   19  -0.263   0.240   0.290
    1UNK    H0J   20  -0.406   0.242   0.184
    1UNK    H0K   21  -0.272   0.501   0.310
    1UNK    H0M   22  -0.414   0.510   0.201
    1UNK    H0N   23  -0.270   0.611   0.168
   1.00000   1.00000   1.00000

