LIGPARGEN GENERATED GRO FILE
   36
    1UNK    C00    1   0.100   0.100   0.000
    1UNK    C01    2  -0.054   0.100   0.000
    1UNK    C02    3  -0.113   0.100   0.144
    1UNK    O03    4  -0.256   0.114   0.139
    1UNK    C04    5  -0.311   0.241   0.175
    1UNK    C05    6  -0.222   0.318   0.272
    1UNK    C06    7  -0.084   0.348   0.208
    1UNK    C07    8  -0.052   0.201   0.245
    1UNK    C08    9  -0.143   0.229   0.375
    1UNK    C09   10  -0.217   0.111   0.439
    1UNK    C0A   11  -0.084   0.313   0.491
    1UNK    C0B   12  -0.109   0.202  -0.100
    1UNK    C0C   13  -0.226   0.133  -0.164
    1UNK    O0D   14  -0.192  -0.004  -0.165
    1UNK    C0E   15  -0.099  -0.029  -0.067
    1UNK    O0F   16  -0.059  -0.141  -0.039
    1UNK    H0G   17   0.140   0.194   0.039
    1UNK    H0H   18   0.140   0.086  -0.101
    1UNK    H0I   19   0.140   0.018   0.061
    1UNK    H0J   20  -0.095   0.000   0.186
    1UNK    H0K   21  -0.409   0.221   0.220
    1UNK    H0M   22  -0.329   0.298   0.083
    1UNK    H0N   23  -0.273   0.406   0.312
    1UNK    H0O   24  -0.022   0.423   0.259
    1UNK    H0P   25  -0.082   0.377   0.103
    1UNK    H0Q   26   0.054   0.181   0.267
    1UNK    H0R   27  -0.259   0.040   0.367
    1UNK    H0S   28  -0.300   0.147   0.501
    1UNK    H0T   29  -0.149   0.054   0.504
    1UNK    H0U   30  -0.030   0.403   0.458
    1UNK    H0V   31  -0.015   0.254   0.551
    1UNK    H0W   32  -0.166   0.348   0.556
    1UNK    H0X   33  -0.034   0.222  -0.178
    1UNK    H0Y   34  -0.138   0.299  -0.060
    1UNK    H0Z   35  -0.242   0.169  -0.267
    1UNK    H10   36  -0.319   0.146  -0.108
   1.00000   1.00000   1.00000

