
;
; GENERATED BY LigParGen Server
; Jorgensen Lab @ Yale University 
;
[ atomtypes ]
  opls_818  H818     1.0080     0.000    A    2.50000E-01   1.25520E-01
  opls_805  C805    12.0110     0.000    A    3.45000E-01   3.47272E-01
  opls_803  O803    15.9990     0.000    A    2.90000E-01   5.85760E-01
  opls_824  H824     1.0080     0.000    A    2.50000E-01   1.25520E-01
  opls_804  C804    12.0110     0.000    A    3.50000E-01   2.76144E-01
  opls_834  H834     1.0080     0.000    A    2.50000E-01   1.25520E-01
  opls_828  H828     1.0080     0.000    A    2.50000E-01   1.25520E-01
  opls_814  C814    12.0110     0.000    A    3.55000E-01   2.92880E-01
  opls_807  C807    12.0110     0.000    A    3.45000E-01   3.47272E-01
  opls_802  C802    12.0110     0.000    A    3.50000E-01   2.76144E-01
  opls_827  H827     1.0080     0.000    A    2.50000E-01   1.25520E-01
  opls_801  C801    12.0110     0.000    A    3.50000E-01   2.76144E-01
  opls_822  H822     1.0080     0.000    A    2.50000E-01   1.25520E-01
  opls_808  C808    12.0110     0.000    A    3.45000E-01   3.47272E-01
  opls_825  H825     1.0080     0.000    A    2.50000E-01   1.25520E-01
  opls_826  H826     1.0080     0.000    A    2.50000E-01   1.25520E-01
  opls_830  H830     1.0080     0.000    A    2.50000E-01   1.25520E-01
  opls_821  H821     1.0080     0.000    A    2.50000E-01   1.25520E-01
  opls_820  H820     1.0080     0.000    A    2.50000E-01   1.25520E-01
  opls_829  H829     1.0080     0.000    A    2.50000E-01   1.25520E-01
  opls_831  H831     1.0080     0.000    A    2.50000E-01   1.25520E-01
  opls_832  H832     1.0080     0.000    A    2.50000E-01   1.25520E-01
  opls_809  C809    12.0110     0.000    A    3.50000E-01   2.76144E-01
  opls_816  H816     1.0080     0.000    A    2.50000E-01   1.25520E-01
  opls_800  C800    12.0110     0.000    A    3.50000E-01   2.76144E-01
  opls_811  C811    12.0110     0.000    A    3.50000E-01   2.76144E-01
  opls_823  H823     1.0080     0.000    A    2.50000E-01   1.25520E-01
  opls_813  O813    15.9990     0.000    A    2.90000E-01   5.85760E-01
  opls_806  C806    12.0110     0.000    A    3.45000E-01   3.47272E-01
  opls_835  H835     1.0080     0.000    A    2.50000E-01   1.25520E-01
  opls_819  H819     1.0080     0.000    A    2.50000E-01   1.25520E-01
  opls_810  C810    12.0110     0.000    A    3.50000E-01   2.76144E-01
  opls_833  H833     1.0080     0.000    A    2.50000E-01   1.25520E-01
  opls_812  C812    12.0110     0.000    A    3.50000E-01   2.76144E-01
  opls_815  O815    15.9990     0.000    A    2.96000E-01   8.78640E-01
  opls_817  H817     1.0080     0.000    A    2.50000E-01   1.25520E-01
[ moleculetype ]
; Name               nrexcl
UNK                   3
[ atoms ]
;   nr       type  resnr residue  atom   cgnr     charge       mass  
     1   opls_800      1    UNK   C00      1    -0.2237    12.0110 
     2   opls_801      1    UNK   C01      1    -0.1166    12.0110 
     3   opls_802      1    UNK   C02      1     0.1144    12.0110 
     4   opls_803      1    UNK   O03      1    -0.3892    15.9990 
     5   opls_804      1    UNK   C04      1     0.0334    12.0110 
     6   opls_805      1    UNK   C05      1    -0.1714    12.0110 
     7   opls_806      1    UNK   C06      1    -0.2136    12.0110 
     8   opls_807      1    UNK   C07      1    -0.1461    12.0110 
     9   opls_808      1    UNK   C08      1    -0.0538    12.0110 
    10   opls_809      1    UNK   C09      1     -0.232    12.0110 
    11   opls_810      1    UNK   C0A      1    -0.2161    12.0110 
    12   opls_811      1    UNK   C0B      1    -0.2195    12.0110 
    13   opls_812      1    UNK   C0C      1     0.0049    12.0110 
    14   opls_813      1    UNK   O0D      1    -0.3268    15.9990 
    15   opls_814      1    UNK   C0E      1      0.451    12.0110 
    16   opls_815      1    UNK   O0F      1    -0.3999    15.9990 
    17   opls_816      1    UNK   H0G      1     0.0996     1.0080 
    18   opls_817      1    UNK   H0H      1     0.0996     1.0080 
    19   opls_818      1    UNK   H0I      1     0.0996     1.0080 
    20   opls_819      1    UNK   H0J      1     0.1433     1.0080 
    21   opls_820      1    UNK   H0K      1     0.0983     1.0080 
    22   opls_821      1    UNK   H0M      1     0.0983     1.0080 
    23   opls_822      1    UNK   H0N      1     0.1213     1.0080 
    24   opls_823      1    UNK   H0O      1     0.1047     1.0080 
    25   opls_824      1    UNK   H0P      1     0.1047     1.0080 
    26   opls_825      1    UNK   H0Q      1     0.1257     1.0080 
    27   opls_826      1    UNK   H0R      1     0.0922     1.0080 
    28   opls_827      1    UNK   H0S      1     0.0922     1.0080 
    29   opls_828      1    UNK   H0T      1     0.0922     1.0080 
    30   opls_829      1    UNK   H0U      1     0.0876     1.0080 
    31   opls_830      1    UNK   H0V      1     0.0876     1.0080 
    32   opls_831      1    UNK   H0W      1     0.0876     1.0080 
    33   opls_832      1    UNK   H0X      2     0.1164     1.0080 
    34   opls_833      1    UNK   H0Y      2     0.1164     1.0080 
    35   opls_834      1    UNK   H0Z      2      0.119     1.0080 
    36   opls_835      1    UNK   H10      2      0.119     1.0080 
[ bonds ]
    2     1     1      0.1529 224262.400
    3     2     1      0.1529 224262.400
    4     3     1      0.1410 267776.000
    5     4     1      0.1410 267776.000
    6     5     1      0.1510 234304.000
    7     6     1      0.1520 217568.000
    8     3     1      0.1510 234304.000
    9     6     1      0.1520 217568.000
   10     9     1      0.1510 234304.000
   11     9     1      0.1510 234304.000
   12     2     1      0.1529 224262.400
   13    12     1      0.1529 224262.400
   14    13     1      0.1410 267776.000
   15     2     1      0.1522 265265.600
   16    15     1      0.1229 476976.000
   17     1     1      0.1090 284512.000
   18     1     1      0.1090 284512.000
   19     1     1      0.1090 284512.000
   20     3     1      0.1090 284512.000
   21     5     1      0.1090 284512.000
   22     5     1      0.1090 284512.000
   23     6     1      0.1088 284512.000
   24     7     1      0.1088 284512.000
   25     7     1      0.1088 284512.000
   26     8     1      0.1088 284512.000
   27    10     1      0.1090 284512.000
   28    10     1      0.1090 284512.000
   29    10     1      0.1090 284512.000
   30    11     1      0.1090 284512.000
   31    11     1      0.1090 284512.000
   32    11     1      0.1090 284512.000
   33    12     1      0.1090 284512.000
   34    12     1      0.1090 284512.000
   35    13     1      0.1090 284512.000
   36    13     1      0.1090 284512.000
    8     7     1      0.1520 217568.000
    9     8     1      0.1520 217568.000
   15    14     1      0.1327 179075.200

[ angles ]
;  ai    aj    ak funct            c0            c1            c2            c3 
    1     2     3     1    112.700    488.273
    2     3     4     1    109.500    418.400
    3     4     5     1    109.500    502.080
    4     5     6     1    109.500    418.400
    5     6     7     1    117.200    313.800
    2     3     8     1    112.700    488.273
    5     6     9     1    117.200    313.800
    6     9    10     1    117.200    313.800
    6     9    11     1    117.200    313.800
    1     2    12     1    112.700    488.273
    2    12    13     1    112.700    488.273
   12    13    14     1    109.500    418.400
    1     2    15     1    111.100    527.184
    2    15    16     1    120.400    669.440
    2     1    17     1    110.700    313.800
    2     1    18     1    110.700    313.800
    2     1    19     1    110.700    313.800
    2     3    20     1    110.700    313.800
    4     5    21     1    109.500    292.880
    4     5    22     1    109.500    292.880
    5     6    23     1    114.300    292.880
    6     7    24     1    117.200    313.800
    6     7    25     1    117.200    313.800
    3     8    26     1    114.300    292.880
    9    10    27     1    110.700    313.800
    9    10    28     1    110.700    313.800
    9    10    29     1    110.700    313.800
    9    11    30     1    110.700    313.800
    9    11    31     1    110.700    313.800
    9    11    32     1    110.700    313.800
    2    12    33     1    110.700    313.800
    2    12    34     1    110.700    313.800
   12    13    35     1    110.700    313.800
   12    13    36     1    110.700    313.800
    8     7    24     1    117.200    313.800
    3     8     7     1    117.200    313.800
   30    11    32     1    107.800    276.144
   13    12    33     1    110.700    313.800
    7     8    26     1    117.200    313.800
    8     3    20     1    110.700    313.800
    6     9     8     1     83.000    251.040
   21     5    22     1    107.800    276.144
    6     5    22     1    110.700    313.800
   14    13    35     1    109.500    292.880
   27    10    28     1    107.800    276.144
    4     3     8     1    109.500    418.400
    7     6    23     1    117.200    313.800
   10     9    11     1    114.300    292.880
   31    11    32     1    107.800    276.144
    6     7     8     1     83.000    251.040
   17     1    18     1    107.800    276.144
   33    12    34     1    107.800    276.144
   30    11    31     1    107.800    276.144
   18     1    19     1    107.800    276.144
    7     8     9     1     83.000    251.040
   13    12    34     1    110.700    313.800
    8     7    25     1    117.200    313.800
   27    10    29     1    107.800    276.144
    9     6    23     1    117.200    313.800
    3     2    12     1    112.700    488.273
   28    10    29     1    107.800    276.144
   13    14    15     1    116.900    694.544
   17     1    19     1    107.800    276.144
   14    13    36     1    109.500    292.880
    6     5    21     1    110.700    313.800
   12     2    15     1    111.100    527.184
    3     2    15     1    111.100    527.184
    9     8    26     1    117.200    313.800
    3     8     9     1    117.200    313.800
   35    13    36     1    107.800    276.144
   14    15    16     1    123.400    694.544
    7     6     9     1     83.000    251.040
    8     9    11     1    117.200    313.800
    2    15    14     1    111.400    677.808
    4     3    20     1    109.500    292.880
    8     9    10     1    117.200    313.800
   24     7    25     1    114.300    292.880

[ dihedrals ]
; IMPROPER DIHEDRAL ANGLES 
;  ai    aj    ak    al funct            c0            c1            c2            c3            c4            c5
    16    15     2    14    4        180.000     43.932     2  

[ dihedrals ]
; PROPER DIHEDRAL ANGLES
;  ai    aj    ak    al funct            c0            c1            c2            c3            c4            c5
   15    2   12   13        3      -4.960   6.286   1.310  -2.636  -0.000   0.000
   15    2    3    8        3      -4.960   6.286   1.310  -2.636  -0.000   0.000
   15    2    3    4        3      -12.929  12.929   0.000  -0.000  -0.000   0.000
   15   14   13   12        3      -2.197   5.201   0.527  -3.531  -0.000   0.000
   13   12    2    1        3       2.301  -1.464   0.837  -1.674  -0.000   0.000
   13   12    2    3        3       2.301  -1.464   0.837  -1.674  -0.000   0.000
   12    2    3    8        3       2.301  -1.464   0.837  -1.674  -0.000   0.000
   12    2    3    4        3       2.874   0.582   2.092  -5.548  -0.000   0.000
   11    9    8    3        3       0.000   0.000   0.000  -0.000  -0.000   0.000
   11    9    6    5        3       0.000   0.000   0.000  -0.000  -0.000   0.000
   10    9    6    5        3       0.000   0.000   0.000  -0.000  -0.000   0.000
   10    9    8    3        3       0.000   0.000   0.000  -0.000  -0.000   0.000
   10    9    8    7        3       0.000   0.000   0.000  -0.000  -0.000   0.000
   10    9    6    7        3       0.000   0.000   0.000  -0.000  -0.000   0.000
   11    9    6    7        3       0.000   0.000   0.000  -0.000  -0.000   0.000
   11    9    8    7        3       0.000   0.000   0.000  -0.000  -0.000   0.000
   13   14   15    2        3      31.206  -9.768  -21.439  -0.000  -0.000   0.000
    5    4    3    2        3       1.715   2.845   1.046  -5.607  -0.000   0.000
    8    3    2    1        3       2.301  -1.464   0.837  -1.674  -0.000   0.000
    6    5    4    3        3       1.715   2.845   1.046  -5.607  -0.000   0.000
    8    3    4    5        3       1.715   2.845   1.046  -5.607  -0.000   0.000
    7    8    3    2        3       0.000   0.000   0.000  -0.000  -0.000   0.000
    9    8    3    2        3       0.000   0.000   0.000  -0.000  -0.000   0.000
    7    8    3    4        3       0.000   0.000   0.000  -0.000  -0.000   0.000
    9    6    5    4        3       0.000   0.000   0.000  -0.000  -0.000   0.000
    9    8    3    4        3       0.000   0.000   0.000  -0.000  -0.000   0.000
    7    6    5    4        3       0.000   0.000   0.000  -0.000  -0.000   0.000
    6    9    8    3        3       0.000   0.000   0.000  -0.000  -0.000   0.000
    8    7    6    5        3       0.000   0.000   0.000  -0.000  -0.000   0.000
    6    7    8    3        3       0.000   0.000   0.000  -0.000  -0.000   0.000
    8    9    6    5        3       0.000   0.000   0.000  -0.000  -0.000   0.000
   33   12    2   15        3      -0.209  -0.628   0.000   0.837  -0.000   0.000
   18    1    2   15        3      -0.209  -0.628   0.000   0.837  -0.000   0.000
   17    1    2   15        3      -0.209  -0.628   0.000   0.837  -0.000   0.000
   34   12    2   15        3      -0.209  -0.628   0.000   0.837  -0.000   0.000
   20    3    2   15        3      -0.209  -0.628   0.000   0.837  -0.000   0.000
   19    1    2   15        3      -0.209  -0.628   0.000   0.837  -0.000   0.000
   34   12    2    1        3       0.628   1.883   0.000  -2.510  -0.000   0.000
   18    1    2    3        3       0.628   1.883   0.000  -2.510  -0.000   0.000
   18    1    2   12        3       0.628   1.883   0.000  -2.510  -0.000   0.000
   33   12    2    3        3       0.628   1.883   0.000  -2.510  -0.000   0.000
   19    1    2    3        3       0.628   1.883   0.000  -2.510  -0.000   0.000
   20    3    2    1        3       0.628   1.883   0.000  -2.510  -0.000   0.000
   33   12    2    1        3       0.628   1.883   0.000  -2.510  -0.000   0.000
   17    1    2    3        3       0.628   1.883   0.000  -2.510  -0.000   0.000
   17    1    2   12        3       0.628   1.883   0.000  -2.510  -0.000   0.000
   35   13   12    2        3       0.628   1.883   0.000  -2.510  -0.000   0.000
   36   13   12    2        3       0.628   1.883   0.000  -2.510  -0.000   0.000
   20    3    2   12        3       0.628   1.883   0.000  -2.510  -0.000   0.000
   19    1    2   12        3       0.628   1.883   0.000  -2.510  -0.000   0.000
   34   12    2    3        3       0.628   1.883   0.000  -2.510  -0.000   0.000
   35   13   12   34        3       0.628   1.883   0.000  -2.510  -0.000   0.000
   36   13   12   33        3       0.628   1.883   0.000  -2.510  -0.000   0.000
   35   13   12   33        3       0.628   1.883   0.000  -2.510  -0.000   0.000
   36   13   12   34        3       0.628   1.883   0.000  -2.510  -0.000   0.000
   33   12   13   14        3       0.979   2.937   0.000  -3.916  -0.000   0.000
   34   12   13   14        3       0.979   2.937   0.000  -3.916  -0.000   0.000
   29   10    9   11        3       0.628   1.883   0.000  -2.510  -0.000   0.000
   32   11    9   10        3       0.628   1.883   0.000  -2.510  -0.000   0.000
   28   10    9   11        3       0.628   1.883   0.000  -2.510  -0.000   0.000
   30   11    9   10        3       0.628   1.883   0.000  -2.510  -0.000   0.000
   31   11    9   10        3       0.628   1.883   0.000  -2.510  -0.000   0.000
   27   10    9   11        3       0.628   1.883   0.000  -2.510  -0.000   0.000
   30   11    9    6        3       0.628   1.883   0.000  -2.510  -0.000   0.000
   21    5    6    7        3       0.628   1.883   0.000  -2.510  -0.000   0.000
   22    5    6    7        3       0.628   1.883   0.000  -2.510  -0.000   0.000
   31   11    9    6        3       0.628   1.883   0.000  -2.510  -0.000   0.000
   27   10    9    8        3       0.628   1.883   0.000  -2.510  -0.000   0.000
   21    5    6    9        3       0.628   1.883   0.000  -2.510  -0.000   0.000
   32   11    9    6        3       0.628   1.883   0.000  -2.510  -0.000   0.000
   29   10    9    6        3       0.628   1.883   0.000  -2.510  -0.000   0.000
   29   10    9    8        3       0.628   1.883   0.000  -2.510  -0.000   0.000
   31   11    9    8        3       0.628   1.883   0.000  -2.510  -0.000   0.000
   28   10    9    8        3       0.628   1.883   0.000  -2.510  -0.000   0.000
   27   10    9    6        3       0.628   1.883   0.000  -2.510  -0.000   0.000
   20    3    8    7        3       0.628   1.883   0.000  -2.510  -0.000   0.000
   20    3    8    9        3       0.628   1.883   0.000  -2.510  -0.000   0.000
   30   11    9    8        3       0.628   1.883   0.000  -2.510  -0.000   0.000
   22    5    6    9        3       0.628   1.883   0.000  -2.510  -0.000   0.000
   32   11    9    8        3       0.628   1.883   0.000  -2.510  -0.000   0.000
   28   10    9    6        3       0.628   1.883   0.000  -2.510  -0.000   0.000
   36   13   14   15        3       0.414   1.243   0.000  -1.657  -0.000   0.000
   35   13   14   15        3       0.414   1.243   0.000  -1.657  -0.000   0.000
   21    5    4    3        3       1.590   4.770   0.000  -6.360  -0.000   0.000
   20    3    4    5        3       1.590   4.770   0.000  -6.360  -0.000   0.000
   22    5    4    3        3       1.590   4.770   0.000  -6.360  -0.000   0.000
   26    8    3    2        3       0.628   1.883   0.000  -2.510  -0.000   0.000
   23    6    5   21        3       0.628   1.883   0.000  -2.510  -0.000   0.000
   23    6    5   22        3       0.628   1.883   0.000  -2.510  -0.000   0.000
   26    8    3   20        3       0.628   1.883   0.000  -2.510  -0.000   0.000
   23    6    5    4        3       0.979   2.937   0.000  -3.916  -0.000   0.000
   26    8    3    4        3       0.979   2.937   0.000  -3.916  -0.000   0.000
   24    7    6    5        3       0.000   0.000   0.000  -0.000  -0.000   0.000
   25    7    8    3        3       0.000   0.000   0.000  -0.000  -0.000   0.000
   24    7    8    3        3       0.000   0.000   0.000  -0.000  -0.000   0.000
   26    8    9   11        3       0.000   0.000   0.000  -0.000  -0.000   0.000
   23    6    9   10        3       0.000   0.000   0.000  -0.000  -0.000   0.000
   23    6    9   11        3       0.000   0.000   0.000  -0.000  -0.000   0.000
   26    8    9   10        3       0.000   0.000   0.000  -0.000  -0.000   0.000
   25    7    6    5        3       0.000   0.000   0.000  -0.000  -0.000   0.000
   25    7    6    9        3       0.000   0.000   0.000  -0.000  -0.000   0.000
   25    7    8    9        3       0.000   0.000   0.000  -0.000  -0.000   0.000
   24    7    6    9        3       0.000   0.000   0.000  -0.000  -0.000   0.000
   26    8    7    6        3       0.000   0.000   0.000  -0.000  -0.000   0.000
   26    8    9    6        3       0.000   0.000   0.000  -0.000  -0.000   0.000
   24    7    8    9        3       0.000   0.000   0.000  -0.000  -0.000   0.000
   23    6    7    8        3       0.000   0.000   0.000  -0.000  -0.000   0.000
   23    6    9    8        3       0.000   0.000   0.000  -0.000  -0.000   0.000
   25    7    6   23        3       0.000   0.000   0.000  -0.000  -0.000   0.000
   26    8    7   24        3       0.000   0.000   0.000  -0.000  -0.000   0.000
   24    7    6   23        3       0.000   0.000   0.000  -0.000  -0.000   0.000
   26    8    7   25        3       0.000   0.000   0.000  -0.000  -0.000   0.000
   16   15    2   12        3       0.000   0.000   0.000  -0.000  -0.000   0.000
   16   15    2    1        3       0.000   0.000   0.000  -0.000  -0.000   0.000
   16   15    2    3        3       0.000   0.000   0.000  -0.000  -0.000   0.000
   16   15   14   13        3      21.439   0.000  -21.439  -0.000  -0.000   0.000
   14   15    2   12        3      -1.157  -3.471   0.000   4.628  -0.000   0.000
   14   15    2    3        3      -1.157  -3.471   0.000   4.628  -0.000   0.000
   14   15    2    1        3      -1.157  -3.471   0.000   4.628  -0.000   0.000
   14   13   12    2        3       2.874   0.582   2.092  -5.548  -0.000   0.000
    4    3    2    1        3       2.874   0.582   2.092  -5.548  -0.000   0.000

[ pairs ]
     1     4    1
     2     5    1
     3     6    1
     2     7    1
     1     8    1
     4     7    1
     2     9    1
     5     8    1
     4     9    1
     3    10    1
     3    11    1
     1    13    1
     5    10    1
     1    14    1
     5    11    1
     4    12    1
     3    13    1
     7    10    1
     3    14    1
     1    16    1
     7    11    1
     4    15    1
     3    16    1
     8    12    1
     3    17    1
     3    18    1
     1    20    1
     3    19    1
     8    15    1
     3    21    1
     5    20    1
     3    22    1
     7    20    1
     4    23    1
     3    24    1
    12    16    1
     7    21    1
     3    25    1
     2    26    1
    13    16    1
    12    17    1
     9    20    1
     7    22    1
     5    24    1
    12    18    1
     9    21    1
     5    25    1
     4    26    1
    12    19    1
     9    22    1
     8    23    1
    15    17    1
    12    20    1
     6    26    1
    15    18    1
    10    23    1
     9    24    1
     6    27    1
    15    19    1
    11    23    1
     9    25    1
     6    28    1
     1    33    1
    15    20    1
     8    27    1
     6    29    1
     1    34    1
    10    26    1
     8    28    1
     6    30    1
     3    33    1
    11    26    1
     8    29    1
     6    31    1
     3    34    1
     2    35    1
    11    27    1
     8    30    1
     6    32    1
     2    36    1
    11    28    1
     8    31    1
    11    29    1
    10    30    1
     8    32    1
    10    31    1
    10    32    1
    21    23    1
    22    23    1
    20    26    1
    23    24    1
    14    33    1
    23    25    1
    15    33    1
    14    34    1
    15    34    1
    24    26    1
    15    35    1
    25    26    1
    15    36    1
    33    35    1
    34    35    1
    33    36    1
    34    36    1

