LIGPARGEN GENERATED GRO FILE
   29
    1UNK    C00    1   0.100   0.100   0.000
    1UNK    C01    2  -0.052   0.100   0.000
    1UNK    C02    3  -0.115   0.100   0.141
    1UNK    C03    4  -0.084   0.226   0.224
    1UNK    C04    5  -0.158   0.351   0.174
    1UNK    C05    6  -0.310   0.332   0.160
    1UNK    C06    7  -0.367   0.452   0.082
    1UNK    C07    8  -0.380   0.325   0.296
    1UNK    C08    9  -0.338   0.202   0.084
    1UNK    O09   10  -0.420   0.195  -0.007
    1UNK    C0A   11  -0.266   0.078   0.132
    1UNK    H0B   12   0.137   0.085  -0.102
    1UNK    H0C   13   0.139   0.019   0.062
    1UNK    H0D   14   0.140   0.195   0.036
    1UNK    H0E   15  -0.085   0.010  -0.053
    1UNK    H0F   16  -0.088   0.185  -0.059
    1UNK    H0G   17  -0.072   0.014   0.195
    1UNK    H0H   18   0.024   0.246   0.226
    1UNK    H0I   19  -0.112   0.207   0.328
    1UNK    H0J   20  -0.114   0.380   0.078
    1UNK    H0K   21  -0.137   0.434   0.243
    1UNK    H0M   22  -0.346   0.546   0.134
    1UNK    H0N   23  -0.476   0.444   0.071
    1UNK    H0O   24  -0.324   0.459  -0.018
    1UNK    H0P   25  -0.366   0.417   0.353
    1UNK    H0Q   26  -0.343   0.242   0.358
    1UNK    H0R   27  -0.488   0.309   0.284
    1UNK    H0S   28  -0.289  -0.005   0.065
    1UNK    H0T   29  -0.307   0.051   0.230
   1.00000   1.00000   1.00000

