LIGPARGEN GENERATED GRO FILE
   27
    1UNK    C00    1   0.100   0.100   0.000
    1UNK    O01    2  -0.043   0.100   0.000
    1UNK    C02    3  -0.098   0.100   0.125
    1UNK    O03    4  -0.034   0.100   0.229
    1UNK    C04    5  -0.249   0.100   0.116
    1UNK    C05    6  -0.313   0.100   0.255
    1UNK    C06    7  -0.452   0.155   0.228
    1UNK    C07    8  -0.525   0.199   0.353
    1UNK    F08    9  -0.525   0.057   0.166
    1UNK    C09   10  -0.429   0.267   0.128
    1UNK    C0A   11  -0.304   0.227   0.048
    1UNK    C0B   12  -0.335   0.205  -0.100
    1UNK    F0C   13  -0.382   0.322  -0.151
    1UNK    H0D   14   0.134   0.093  -0.104
    1UNK    H0E   15   0.139   0.013   0.055
    1UNK    H0F   16   0.138   0.193   0.043
    1UNK    H0G   17  -0.280   0.009   0.062
    1UNK    H0H   18  -0.258   0.164   0.324
    1UNK    H0I   19  -0.317  -0.001   0.296
    1UNK    H0J   20  -0.540   0.113   0.420
    1UNK    H0K   21  -0.624   0.238   0.328
    1UNK    H0M   22  -0.470   0.276   0.407
    1UNK    H0N   23  -0.409   0.362   0.179
    1UNK    H0O   24  -0.516   0.281   0.063
    1UNK    H0P   25  -0.232   0.309   0.055
    1UNK    H0Q   26  -0.411   0.128  -0.115
    1UNK    H0R   27  -0.245   0.178  -0.156
   1.00000   1.00000   1.00000

