LIGPARGEN GENERATED GRO FILE
   48
    1UNK    C00    1   0.100   0.100   0.000
    1UNK    O01    2  -0.042   0.100   0.000
    1UNK    C02    3  -0.095   0.100   0.133
    1UNK    C03    4  -0.250   0.100   0.129
    1UNK    C04    5  -0.299  -0.017   0.041
    1UNK    C05    6  -0.452  -0.035   0.023
    1UNK    C06    7  -0.515   0.089  -0.042
    1UNK    C07    8  -0.485  -0.161  -0.060
    1UNK    C08    9  -0.440  -0.290   0.008
    1UNK    C09   10  -0.471  -0.415  -0.072
    1UNK    O0A   11  -0.417  -0.530  -0.004
    1UNK    C0B   12  -0.283  -0.549  -0.020
    1UNK    O0C   13  -0.210  -0.484  -0.093
    1UNK    O0D   14  -0.244  -0.650   0.061
    1UNK    C0E   15  -0.104  -0.674   0.059
    1UNK    C0F   16  -0.306   0.087   0.272
    1UNK    N0G   17  -0.262   0.189   0.370
    1UNK    C0H   18  -0.304   0.324   0.331
    1UNK    C0I   19  -0.318   0.156   0.502
    1UNK    H0J   20   0.134   0.070  -0.100
    1UNK    H0K   21   0.140   0.029   0.073
    1UNK    H0M   22   0.137   0.201   0.021
    1UNK    H0N   23  -0.058   0.188   0.186
    1UNK    H0O   24  -0.059   0.010   0.185
    1UNK    H0P   25  -0.283   0.194   0.082
    1UNK    H0Q   26  -0.257  -0.108   0.084
    1UNK    H0R   27  -0.255  -0.008  -0.060
    1UNK    H0S   28  -0.499  -0.048   0.122
    1UNK    H0T   29  -0.457   0.123  -0.128
    1UNK    H0U   30  -0.520   0.172   0.030
    1UNK    H0V   31  -0.617   0.068  -0.076
    1UNK    H0W   32  -0.438  -0.152  -0.159
    1UNK    H0X   33  -0.594  -0.166  -0.077
    1UNK    H0Y   34  -0.487  -0.298   0.107
    1UNK    H0Z   35  -0.332  -0.287   0.027
    1UNK    H10   36  -0.432  -0.409  -0.175
    1UNK    H11   37  -0.579  -0.430  -0.080
    1UNK    H12   38  -0.082  -0.756   0.128
    1UNK    H13   39  -0.049  -0.585   0.093
    1UNK    H14   40  -0.072  -0.703  -0.042
    1UNK    H15   41  -0.277  -0.011   0.310
    1UNK    H16   42  -0.416   0.088   0.268
    1UNK    H17   43  -0.243   0.360   0.248
    1UNK    H18   44  -0.290   0.395   0.413
    1UNK    H19   45  -0.409   0.327   0.300
    1UNK    H1A   46  -0.283   0.057   0.534
    1UNK    H1B   47  -0.428   0.155   0.501
    1UNK    H1C   48  -0.284   0.228   0.577
   1.00000   1.00000   1.00000

