LIGPARGEN GENERATED GRO FILE
   43
    1UNK    C00    1   0.100   0.100   0.000
    1UNK    C01    2  -0.052   0.100   0.000
    1UNK    C02    3  -0.108   0.100   0.142
    1UNK    C03    4  -0.260   0.109   0.147
    1UNK    C04    5  -0.339  -0.004   0.076
    1UNK    C05    6  -0.303  -0.143   0.135
    1UNK    C06    7  -0.376  -0.264   0.071
    1UNK    C07    8  -0.346  -0.264  -0.074
    1UNK    N08    9  -0.318  -0.265  -0.187
    1UNK    C09   10  -0.338  -0.405   0.132
    1UNK    C0A   11  -0.417  -0.517   0.059
    1UNK    C0B   12  -0.188  -0.438   0.121
    1UNK    S0C   13  -0.387  -0.409   0.310
    1UNK    C0D   14  -0.351  -0.572   0.372
    1UNK    O0E   15  -0.300  -0.319   0.384
    1UNK    O0F   16  -0.531  -0.392   0.317
    1UNK    O0G   17  -0.480   0.013   0.096
    1UNK    C0H   18  -0.535   0.129   0.033
    1UNK    H0I   19   0.138   0.091  -0.102
    1UNK    H0J   20   0.139   0.016   0.058
    1UNK    H0K   21   0.139   0.193   0.042
    1UNK    H0M   22  -0.087   0.012  -0.055
    1UNK    H0N   23  -0.088   0.188  -0.054
    1UNK    H0O   24  -0.067   0.186   0.197
    1UNK    H0P   25  -0.073   0.011   0.197
    1UNK    H0Q   26  -0.288   0.206   0.104
    1UNK    H0R   27  -0.293   0.114   0.252
    1UNK    H0S   28  -0.318  -0.001  -0.031
    1UNK    H0T   29  -0.329  -0.138   0.241
    1UNK    H0U   30  -0.195  -0.158   0.128
    1UNK    H0V   31  -0.484  -0.249   0.083
    1UNK    H0W   32  -0.394  -0.522  -0.047
    1UNK    H0X   33  -0.525  -0.502   0.069
    1UNK    H0Y   34  -0.394  -0.616   0.100
    1UNK    H0Z   35  -0.154  -0.439   0.017
    1UNK    H10   36  -0.165  -0.537   0.162
    1UNK    H11   37  -0.126  -0.366   0.175
    1UNK    H12   38  -0.243  -0.590   0.363
    1UNK    H13   39  -0.409  -0.646   0.318
    1UNK    H14   40  -0.378  -0.574   0.478
    1UNK    H15   41  -0.643   0.129   0.050
    1UNK    H16   42  -0.516   0.127  -0.075
    1UNK    H17   43  -0.495   0.221   0.077
   1.00000   1.00000   1.00000

