LIGPARGEN GENERATED GRO FILE
   38
    1UNK    C00    1   0.100   0.100   0.000
    1UNK    C01    2  -0.055   0.100   0.000
    1UNK    C02    3  -0.092   0.100   0.150
    1UNK    N03    4  -0.122   0.208  -0.082
    1UNK    C04    5  -0.089   0.198  -0.230
    1UNK    C05    6  -0.154   0.306  -0.320
    1UNK    C06    7   0.061   0.203  -0.269
    1UNK    C07    8  -0.273   0.213  -0.063
    1UNK    C08    9  -0.342   0.084  -0.111
    1UNK    C09   10  -0.331   0.275   0.068
    1UNK    C0A   11  -0.270   0.409   0.106
    1UNK    C0B   12  -0.483   0.274   0.086
    1UNK    C0C   13  -0.398   0.193   0.178
    1UNK    H0D   14   0.141   0.044   0.085
    1UNK    H0E   15   0.140   0.202   0.008
    1UNK    H0F   16   0.140   0.049  -0.087
    1UNK    H0G   17  -0.085   0.002  -0.040
    1UNK    H0H   18  -0.084   0.200   0.193
    1UNK    H0I   19  -0.027   0.034   0.208
    1UNK    H0J   20  -0.192   0.060   0.165
    1UNK    H0K   21  -0.125   0.100  -0.266
    1UNK    H0M   22  -0.119   0.406  -0.293
    1UNK    H0N   23  -0.263   0.305  -0.318
    1UNK    H0O   24  -0.128   0.288  -0.425
    1UNK    H0P   25   0.118   0.271  -0.205
    1UNK    H0Q   26   0.076   0.239  -0.372
    1UNK    H0R   27   0.105   0.103  -0.269
    1UNK    H0S   28  -0.309   0.291  -0.132
    1UNK    H0T   29  -0.294  -0.006  -0.072
    1UNK    H0U   30  -0.341   0.078  -0.220
    1UNK    H0V   31  -0.447   0.076  -0.082
    1UNK    H0W   32  -0.287   0.482   0.027
    1UNK    H0X   33  -0.162   0.401   0.124
    1UNK    H0Y   34  -0.315   0.449   0.198
    1UNK    H0Z   35  -0.548   0.221   0.017
    1UNK    H10   36  -0.533   0.361   0.128
    1UNK    H11   37  -0.404   0.085   0.168
    1UNK    H12   38  -0.388   0.226   0.281
   1.00000   1.00000   1.00000

