LIGPARGEN GENERATED GRO FILE
   29
    1UNK    C00    1   0.100   0.100   0.000
    1UNK    O01    2  -0.043   0.100   0.000
    1UNK    C02    3  -0.097   0.100   0.125
    1UNK    O03    4  -0.033   0.100   0.229
    1UNK    O04    5  -0.232   0.100   0.112
    1UNK    C05    6  -0.306   0.100   0.234
    1UNK    C06    7  -0.405   0.216   0.230
    1UNK    C07    8  -0.358   0.366   0.225
    1UNK    C08    9  -0.241   0.403   0.317
    1UNK    C09   10  -0.280   0.382   0.464
    1UNK    C0A   11  -0.385   0.272   0.484
    1UNK    C0B   12  -0.477   0.262   0.362
    1UNK    C0C   13  -0.497   0.397   0.288
    1UNK    H0D   14   0.134   0.100  -0.104
    1UNK    H0E   15   0.138   0.010   0.049
    1UNK    H0F   16   0.138   0.190   0.049
    1UNK    H0G   17  -0.242   0.104   0.322
    1UNK    H0H   18  -0.362   0.006   0.238
    1UNK    H0I   19  -0.477   0.195   0.150
    1UNK    H0J   20  -0.343   0.404   0.123
    1UNK    H0K   21  -0.213   0.508   0.302
    1UNK    H0M   22  -0.153   0.343   0.293
    1UNK    H0N   23  -0.323   0.477   0.501
    1UNK    H0O   24  -0.192   0.364   0.526
    1UNK    H0P   25  -0.445   0.296   0.574
    1UNK    H0Q   26  -0.337   0.176   0.504
    1UNK    H0R   27  -0.569   0.206   0.384
    1UNK    H0S   28  -0.506   0.488   0.349
    1UNK    H0T   29  -0.580   0.397   0.216
   1.00000   1.00000   1.00000

