
;
; GENERATED BY LigParGen Server
; Jorgensen Lab @ Yale University 
;
[ atomtypes ]
  opls_818  H818     1.0080     0.000    A    2.50000E-01   1.25520E-01
  opls_824  H824     1.0080     0.000    A    2.50000E-01   1.25520E-01
  opls_806  C806    12.0110     0.000    A    3.45000E-01   3.47272E-01
  opls_805  C805    12.0110     0.000    A    3.50000E-01   2.76144E-01
  opls_828  H828     1.0080     0.000    A    2.50000E-01   1.25520E-01
  opls_813  H813     1.0080     0.000    A    2.50000E-01   1.25520E-01
  opls_801  O801    15.9990     0.000    A    2.90000E-01   5.85760E-01
  opls_807  C807    12.0110     0.000    A    3.45000E-01   3.47272E-01
  opls_803  O803    15.9990     0.000    A    2.96000E-01   8.78640E-01
  opls_815  H815     1.0080     0.000    A    2.50000E-01   1.25520E-01
  opls_809  C809    12.0110     0.000    A    3.50000E-01   2.76144E-01
  opls_822  H822     1.0080     0.000    A    2.50000E-01   1.25520E-01
  opls_825  H825     1.0080     0.000    A    2.50000E-01   1.25520E-01
  opls_826  H826     1.0080     0.000    A    2.50000E-01   1.25520E-01
  opls_814  H814     1.0080     0.000    A    2.50000E-01   1.25520E-01
  opls_821  H821     1.0080     0.000    A    2.50000E-01   1.25520E-01
  opls_820  H820     1.0080     0.000    A    2.50000E-01   1.25520E-01
  opls_816  H816     1.0080     0.000    A    2.50000E-01   1.25520E-01
  opls_800  C800    12.0110     0.000    A    3.50000E-01   2.76144E-01
  opls_823  H823     1.0080     0.000    A    2.50000E-01   1.25520E-01
  opls_802  C802    12.0110     0.000    A    3.55000E-01   2.92880E-01
  opls_811  C811    12.0110     0.000    A    3.45000E-01   3.47272E-01
  opls_819  H819     1.0080     0.000    A    2.50000E-01   1.25520E-01
  opls_810  C810    12.0110     0.000    A    3.50000E-01   2.76144E-01
  opls_827  H827     1.0080     0.000    A    2.50000E-01   1.25520E-01
  opls_808  C808    12.0110     0.000    A    3.50000E-01   2.76144E-01
  opls_817  H817     1.0080     0.000    A    2.50000E-01   1.25520E-01
  opls_812  C812    12.0110     0.000    A    3.45000E-01   3.47272E-01
  opls_804  O804    15.9990     0.000    A    2.90000E-01   5.85760E-01
[ moleculetype ]
; Name               nrexcl
UNK                   3
[ atoms ]
;   nr       type  resnr residue  atom   cgnr     charge       mass  
     1   opls_800      1    UNK   C00      1    -0.0441    12.0110 
     2   opls_801      1    UNK   O01      1    -0.3159    15.9990 
     3   opls_802      1    UNK   C02      1     0.5704    12.0110 
     4   opls_803      1    UNK   O03      1    -0.5009    15.9990 
     5   opls_804      1    UNK   O04      1    -0.3202    15.9990 
     6   opls_805      1    UNK   C05      1     0.0263    12.0110 
     7   opls_806      1    UNK   C06      1    -0.1676    12.0110 
     8   opls_807      1    UNK   C07      1    -0.1178    12.0110 
     9   opls_808      1    UNK   C08      1    -0.1602    12.0110 
    10   opls_809      1    UNK   C09      1    -0.1776    12.0110 
    11   opls_810      1    UNK   C0A      1    -0.1582    12.0110 
    12   opls_811      1    UNK   C0B      1    -0.1203    12.0110 
    13   opls_812      1    UNK   C0C      1     -0.198    12.0110 
    14   opls_813      1    UNK   H0D      1      0.107     1.0080 
    15   opls_814      1    UNK   H0E      1      0.107     1.0080 
    16   opls_815      1    UNK   H0F      1      0.107     1.0080 
    17   opls_816      1    UNK   H0G      1      0.121     1.0080 
    18   opls_817      1    UNK   H0H      1      0.121     1.0080 
    19   opls_818      1    UNK   H0I      1     0.1245     1.0080 
    20   opls_819      1    UNK   H0J      1     0.1134     1.0080 
    21   opls_820      1    UNK   H0K      1     0.0993     1.0080 
    22   opls_821      1    UNK   H0M      1     0.0993     1.0080 
    23   opls_822      1    UNK   H0N      1     0.0891     1.0080 
    24   opls_823      1    UNK   H0O      1     0.0891     1.0080 
    25   opls_824      1    UNK   H0P      1     0.0941     1.0080 
    26   opls_825      1    UNK   H0Q      1     0.0941     1.0080 
    27   opls_826      1    UNK   H0R      1     0.1069     1.0080 
    28   opls_827      1    UNK   H0S      1     0.1057     1.0080 
    29   opls_828      1    UNK   H0T      1     0.1057     1.0080 
[ bonds ]
    2     1     1      0.1410 267776.000
    3     2     1      0.1327 179075.200
    4     3     1      0.1229 476976.000
    5     3     1      0.1327 179075.200
    6     5     1      0.1410 267776.000
    7     6     1      0.1510 234304.000
    8     7     1      0.1520 217568.000
    9     8     1      0.1510 234304.000
   10     9     1      0.1529 224262.400
   11    10     1      0.1529 224262.400
   12     7     1      0.1520 217568.000
   13     8     1      0.1520 217568.000
   14     1     1      0.1090 284512.000
   15     1     1      0.1090 284512.000
   16     1     1      0.1090 284512.000
   17     6     1      0.1090 284512.000
   18     6     1      0.1090 284512.000
   19     7     1      0.1088 284512.000
   20     8     1      0.1088 284512.000
   21     9     1      0.1090 284512.000
   22     9     1      0.1090 284512.000
   23    10     1      0.1090 284512.000
   24    10     1      0.1090 284512.000
   25    11     1      0.1090 284512.000
   26    11     1      0.1090 284512.000
   27    12     1      0.1088 284512.000
   28    13     1      0.1088 284512.000
   29    13     1      0.1088 284512.000
   12    11     1      0.1510 234304.000
   13    12     1      0.1520 217568.000

[ angles ]
;  ai    aj    ak funct            c0            c1            c2            c3 
    1     2     3     1    116.900    694.544
    2     3     4     1    123.400    694.544
    2     3     5     1    118.180    584.923
    3     5     6     1    116.900    694.544
    5     6     7     1    109.500    418.400
    6     7     8     1    117.200    313.800
    7     8     9     1    117.200    313.800
    8     9    10     1    112.700    488.273
    9    10    11     1    112.700    488.273
    6     7    12     1    117.200    313.800
    7     8    13     1     83.000    251.040
    2     1    14     1    109.500    292.880
    2     1    15     1    109.500    292.880
    2     1    16     1    109.500    292.880
    5     6    17     1    109.500    292.880
    5     6    18     1    109.500    292.880
    6     7    19     1    114.300    292.880
    7     8    20     1    117.200    313.800
    8     9    21     1    110.700    313.800
    8     9    22     1    110.700    313.800
    9    10    23     1    110.700    313.800
    9    10    24     1    110.700    313.800
   10    11    25     1    110.700    313.800
   10    11    26     1    110.700    313.800
    7    12    27     1    117.200    313.800
    8    13    28     1    117.200    313.800
    8    13    29     1    117.200    313.800
    7     6    17     1    110.700    313.800
    7    12    11     1    117.200    313.800
    7     6    18     1    110.700    313.800
    9     8    13     1    117.200    313.800
   17     6    18     1    107.800    276.144
    9     8    20     1    114.300    292.880
    8     7    12     1     83.000    251.040
   11    12    27     1    114.300    292.880
    8    13    12     1     83.000    251.040
    4     3     5     1    123.400    694.544
   11    10    24     1    110.700    313.800
   10     9    21     1    110.700    313.800
   14     1    15     1    107.800    276.144
   21     9    22     1    107.800    276.144
   15     1    16     1    107.800    276.144
   10    11    12     1    112.700    488.273
    8     7    19     1    117.200    313.800
   10     9    22     1    110.700    313.800
   12    13    29     1    117.200    313.800
   14     1    16     1    107.800    276.144
   28    13    29     1    114.300    292.880
   23    10    24     1    107.800    276.144
   12    13    28     1    117.200    313.800
   12     7    19     1    117.200    313.800
   12    11    25     1    110.700    313.800
    7    12    13     1     83.000    251.040
   25    11    26     1    107.800    276.144
   11    12    13     1    117.200    313.800
   12    11    26     1    110.700    313.800
   11    10    23     1    110.700    313.800
   13    12    27     1    117.200    313.800
   13     8    20     1    117.200    313.800

[ dihedrals ]
; IMPROPER DIHEDRAL ANGLES 
;  ai    aj    ak    al funct            c0            c1            c2            c3            c4            c5
     5     3     2     4    4        180.000     43.932     2  

[ dihedrals ]
; PROPER DIHEDRAL ANGLES
;  ai    aj    ak    al funct            c0            c1            c2            c3            c4            c5
   11   10    9    8        3       2.301  -1.464   0.837  -1.674  -0.000   0.000
   10    9    8    7        3       0.000   0.000   0.000  -0.000  -0.000   0.000
   10   11   12    7        3       0.000   0.000   0.000  -0.000  -0.000   0.000
   11   12    7    6        3       0.000   0.000   0.000  -0.000  -0.000   0.000
    9    8    7    6        3       0.000   0.000   0.000  -0.000  -0.000   0.000
   11   12    7    8        3       0.000   0.000   0.000  -0.000  -0.000   0.000
   11   12   13    8        3       0.000   0.000   0.000  -0.000  -0.000   0.000
    6    5    3    4        3      21.439   0.000  -21.439  -0.000  -0.000   0.000
    6    5    3    2        3      31.206  -9.768  -21.439  -0.000  -0.000   0.000
   12   11   10    9        3       2.301  -1.464   0.837  -1.674  -0.000   0.000
    7    6    5    3        3      -2.197   5.201   0.527  -3.531  -0.000   0.000
   13    8    9   10        3       0.000   0.000   0.000  -0.000  -0.000   0.000
   13   12   11   10        3       0.000   0.000   0.000  -0.000  -0.000   0.000
    8    7    6    5        3       0.000   0.000   0.000  -0.000  -0.000   0.000
   12    7    6    5        3       0.000   0.000   0.000  -0.000  -0.000   0.000
   13   12    7    6        3       0.000   0.000   0.000  -0.000  -0.000   0.000
   12    7    8    9        3       0.000   0.000   0.000  -0.000  -0.000   0.000
   12   13    8    9        3       0.000   0.000   0.000  -0.000  -0.000   0.000
   13    8    7    6        3       0.000   0.000   0.000  -0.000  -0.000   0.000
   22    9   10   11        3       0.628   1.883   0.000  -2.510  -0.000   0.000
   26   11   10    9        3       0.628   1.883   0.000  -2.510  -0.000   0.000
   21    9   10   11        3       0.628   1.883   0.000  -2.510  -0.000   0.000
   25   11   10    9        3       0.628   1.883   0.000  -2.510  -0.000   0.000
   23   10    9    8        3       0.628   1.883   0.000  -2.510  -0.000   0.000
   24   10   11   12        3       0.628   1.883   0.000  -2.510  -0.000   0.000
   24   10    9    8        3       0.628   1.883   0.000  -2.510  -0.000   0.000
   23   10   11   12        3       0.628   1.883   0.000  -2.510  -0.000   0.000
   26   11   10   23        3       0.628   1.883   0.000  -2.510  -0.000   0.000
   23   10    9   21        3       0.628   1.883   0.000  -2.510  -0.000   0.000
   25   11   10   23        3       0.628   1.883   0.000  -2.510  -0.000   0.000
   24   10    9   21        3       0.628   1.883   0.000  -2.510  -0.000   0.000
   23   10    9   22        3       0.628   1.883   0.000  -2.510  -0.000   0.000
   26   11   10   24        3       0.628   1.883   0.000  -2.510  -0.000   0.000
   25   11   10   24        3       0.628   1.883   0.000  -2.510  -0.000   0.000
   24   10    9   22        3       0.628   1.883   0.000  -2.510  -0.000   0.000
   22    9    8   13        3       0.628   1.883   0.000  -2.510  -0.000   0.000
   26   11   12    7        3       0.628   1.883   0.000  -2.510  -0.000   0.000
   18    6    7    8        3       0.628   1.883   0.000  -2.510  -0.000   0.000
   18    6    7   12        3       0.628   1.883   0.000  -2.510  -0.000   0.000
   26   11   12   13        3       0.628   1.883   0.000  -2.510  -0.000   0.000
   17    6    7    8        3       0.628   1.883   0.000  -2.510  -0.000   0.000
   17    6    7   12        3       0.628   1.883   0.000  -2.510  -0.000   0.000
   21    9    8   13        3       0.628   1.883   0.000  -2.510  -0.000   0.000
   22    9    8    7        3       0.628   1.883   0.000  -2.510  -0.000   0.000
   25   11   12    7        3       0.628   1.883   0.000  -2.510  -0.000   0.000
   25   11   12   13        3       0.628   1.883   0.000  -2.510  -0.000   0.000
   21    9    8    7        3       0.628   1.883   0.000  -2.510  -0.000   0.000
   22    9    8   20        3       0.628   1.883   0.000  -2.510  -0.000   0.000
   21    9    8   20        3       0.628   1.883   0.000  -2.510  -0.000   0.000
   18    6    5    3        3       0.414   1.243   0.000  -1.657  -0.000   0.000
   17    6    5    3        3       0.414   1.243   0.000  -1.657  -0.000   0.000
   14    1    2    3        3       0.414   1.243   0.000  -1.657  -0.000   0.000
   15    1    2    3        3       0.414   1.243   0.000  -1.657  -0.000   0.000
   16    1    2    3        3       0.414   1.243   0.000  -1.657  -0.000   0.000
   20    8    9   10        3       0.628   1.883   0.000  -2.510  -0.000   0.000
   27   12   11   10        3       0.628   1.883   0.000  -2.510  -0.000   0.000
   19    7    6   18        3       0.628   1.883   0.000  -2.510  -0.000   0.000
   19    7    6   17        3       0.628   1.883   0.000  -2.510  -0.000   0.000
   27   12   11   26        3       0.628   1.883   0.000  -2.510  -0.000   0.000
   27   12   11   25        3       0.628   1.883   0.000  -2.510  -0.000   0.000
   19    7    6    5        3       0.979   2.937   0.000  -3.916  -0.000   0.000
   29   13    8    9        3       0.000   0.000   0.000  -0.000  -0.000   0.000
   19    7    8    9        3       0.000   0.000   0.000  -0.000  -0.000   0.000
   19    7   12   11        3       0.000   0.000   0.000  -0.000  -0.000   0.000
   28   13    8    9        3       0.000   0.000   0.000  -0.000  -0.000   0.000
   20    8    7    6        3       0.000   0.000   0.000  -0.000  -0.000   0.000
   29   13   12   11        3       0.000   0.000   0.000  -0.000  -0.000   0.000
   27   12    7    6        3       0.000   0.000   0.000  -0.000  -0.000   0.000
   28   13   12   11        3       0.000   0.000   0.000  -0.000  -0.000   0.000
   29   13    8    7        3       0.000   0.000   0.000  -0.000  -0.000   0.000
   28   13   12    7        3       0.000   0.000   0.000  -0.000  -0.000   0.000
   28   13    8    7        3       0.000   0.000   0.000  -0.000  -0.000   0.000
   20    8   13   12        3       0.000   0.000   0.000  -0.000  -0.000   0.000
   27   12   13    8        3       0.000   0.000   0.000  -0.000  -0.000   0.000
   19    7   12   13        3       0.000   0.000   0.000  -0.000  -0.000   0.000
   20    8    7   12        3       0.000   0.000   0.000  -0.000  -0.000   0.000
   19    7    8   13        3       0.000   0.000   0.000  -0.000  -0.000   0.000
   27   12    7    8        3       0.000   0.000   0.000  -0.000  -0.000   0.000
   29   13   12    7        3       0.000   0.000   0.000  -0.000  -0.000   0.000
   20    8    7   19        3       0.000   0.000   0.000  -0.000  -0.000   0.000
   28   13    8   20        3       0.000   0.000   0.000  -0.000  -0.000   0.000
   27   12    7   19        3       0.000   0.000   0.000  -0.000  -0.000   0.000
   28   13   12   27        3       0.000   0.000   0.000  -0.000  -0.000   0.000
   29   13   12   27        3       0.000   0.000   0.000  -0.000  -0.000   0.000
   29   13    8   20        3       0.000   0.000   0.000  -0.000  -0.000   0.000
    4    3    2    1        3      21.439   0.000  -21.439  -0.000  -0.000   0.000
    5    3    2    1        3      31.206  -9.768  -21.439  -0.000  -0.000   0.000

[ pairs ]
     1     4    1
     1     5    1
     2     6    1
     4     6    1
     3     7    1
     5     8    1
     6     9    1
     7    10    1
     6    11    1
     5    12    1
     3    14    1
     3    15    1
     8    11    1
     6    13    1
     3    16    1
     3    17    1
     9    12    1
     3    18    1
    10    13    1
     5    19    1
     8    17    1
     8    18    1
     6    20    1
     9    19    1
     7    21    1
    12    17    1
     7    22    1
    12    18    1
    11    19    1
    10    20    1
     8    23    1
    13    19    1
    12    20    1
    11    21    1
     8    24    1
     7    25    1
    11    22    1
     7    26    1
     6    27    1
    13    21    1
     9    25    1
    13    22    1
    12    23    1
     9    26    1
     8    27    1
     7    28    1
    17    19    1
    12    24    1
     7    29    1
    18    19    1
    10    27    1
     9    28    1
    13    25    1
     9    29    1
    19    20    1
    13    26    1
    11    28    1
    11    29    1
    20    21    1
    20    22    1
    21    23    1
    22    23    1
    21    24    1
    22    24    1
    19    27    1
    23    25    1
    20    28    1
    24    25    1
    23    26    1
    20    29    1
    24    26    1
    25    27    1
    26    27    1
    27    28    1
    27    29    1

