
;
; GENERATED BY LigParGen Server
; Jorgensen Lab @ Yale University 
;
[ atomtypes ]
  opls_818  H818     1.0080     0.000    A    2.50000E-01   1.25520E-01
  opls_814  C814    12.0110     0.000    A    3.50000E-01   2.76144E-01
  opls_803  O803    15.9990     0.000    A    2.90000E-01   5.85760E-01
  opls_824  H824     1.0080     0.000    A    2.50000E-01   1.25520E-01
  opls_816  O816    15.9990     0.000    A    2.96000E-01   8.78640E-01
  opls_804  C804    12.0110     0.000    A    3.55000E-01   2.92880E-01
  opls_836  H836     1.0080     0.000    A    2.50000E-01   1.25520E-01
  opls_834  H834     1.0080     0.000    A    2.50000E-01   1.25520E-01
  opls_828  H828     1.0080     0.000    A    2.50000E-01   1.25520E-01
  opls_812  C812    12.0110     0.000    A    3.50000E-01   2.76144E-01
  opls_802  C802    12.0110     0.000    A    3.50000E-01   2.76144E-01
  opls_827  H827     1.0080     0.000    A    2.50000E-01   1.25520E-01
  opls_809  C809    12.0110     0.000    A    3.50000E-01   2.76144E-01
  opls_811  O811    15.9990     0.000    A    2.96000E-01   8.78640E-01
  opls_822  H822     1.0080     0.000    A    2.50000E-01   1.25520E-01
  opls_807  C807    12.0110     0.000    A    3.50000E-01   2.76144E-01
  opls_825  H825     1.0080     0.000    A    2.50000E-01   1.25520E-01
  opls_830  H830     1.0080     0.000    A    2.50000E-01   1.25520E-01
  opls_821  H821     1.0080     0.000    A    2.50000E-01   1.25520E-01
  opls_820  H820     1.0080     0.000    A    2.50000E-01   1.25520E-01
  opls_829  H829     1.0080     0.000    A    2.50000E-01   1.25520E-01
  opls_831  H831     1.0080     0.000    A    2.50000E-01   1.25520E-01
  opls_810  C810    12.0110     0.000    A    3.55000E-01   2.92880E-01
  opls_832  H832     1.0080     0.000    A    2.50000E-01   1.25520E-01
  opls_800  C800    12.0110     0.000    A    3.50000E-01   2.76144E-01
  opls_805  O805    15.9990     0.000    A    2.96000E-01   8.78640E-01
  opls_806  C806    12.0110     0.000    A    3.50000E-01   2.76144E-01
  opls_815  C815    12.0110     0.000    A    3.55000E-01   2.92880E-01
  opls_823  H823     1.0080     0.000    A    2.50000E-01   1.25520E-01
  opls_813  C813    12.0110     0.000    A    3.50000E-01   2.76144E-01
  opls_826  H826     1.0080     0.000    A    2.50000E-01   1.25520E-01
  opls_835  H835     1.0080     0.000    A    2.50000E-01   1.25520E-01
  opls_819  H819     1.0080     0.000    A    2.50000E-01   1.25520E-01
  opls_833  H833     1.0080     0.000    A    2.50000E-01   1.25520E-01
  opls_801  C801    12.0110     0.000    A    3.50000E-01   2.76144E-01
  opls_808  C808    12.0110     0.000    A    3.50000E-01   2.76144E-01
  opls_817  H817     1.0080     0.000    A    2.50000E-01   1.25520E-01
[ moleculetype ]
; Name               nrexcl
UNK                   3
[ atoms ]
;   nr       type  resnr residue  atom   cgnr     charge       mass  
     1   opls_800      1    UNK   C00      1    -0.2402    12.0110 
     2   opls_801      1    UNK   C01      1    -0.1739    12.0110 
     3   opls_802      1    UNK   C02      1     0.0474    12.0110 
     4   opls_803      1    UNK   O03      1      -0.38    15.9990 
     5   opls_804      1    UNK   C04      1     0.4575    12.0110 
     6   opls_805      1    UNK   O05      1    -0.3739    15.9990 
     7   opls_806      1    UNK   C06      1    -0.1584    12.0110 
     8   opls_807      1    UNK   C07      1    -0.1584    12.0110 
     9   opls_808      1    UNK   C08      1    -0.1888    12.0110 
    10   opls_809      1    UNK   C09      1    -0.2368    12.0110 
    11   opls_810      1    UNK   C0A      1     0.3173    12.0110 
    12   opls_811      1    UNK   O0B      1     -0.441    15.9990 
    13   opls_812      1    UNK   C0C      1    -0.0872    12.0110 
    14   opls_813      1    UNK   C0D      1    -0.2457    12.0110 
    15   opls_814      1    UNK   C0E      1    -0.2459    12.0110 
    16   opls_815      1    UNK   C0F      1      0.333    12.0110 
    17   opls_816      1    UNK   O0G      1     -0.405    15.9990 
    18   opls_817      1    UNK   H0H      1       0.09     1.0080 
    19   opls_818      1    UNK   H0I      1       0.09     1.0080 
    20   opls_819      1    UNK   H0J      1       0.09     1.0080 
    21   opls_820      1    UNK   H0K      1     0.1169     1.0080 
    22   opls_821      1    UNK   H0M      1     0.1169     1.0080 
    23   opls_822      1    UNK   H0N      1     0.1182     1.0080 
    24   opls_823      1    UNK   H0O      1     0.1364     1.0080 
    25   opls_824      1    UNK   H0P      1     0.1175     1.0080 
    26   opls_825      1    UNK   H0Q      1     0.1175     1.0080 
    27   opls_826      1    UNK   H0R      1     0.1375     1.0080 
    28   opls_827      1    UNK   H0S      1     0.0935     1.0080 
    29   opls_828      1    UNK   H0T      1     0.0935     1.0080 
    30   opls_829      1    UNK   H0U      1     0.0935     1.0080 
    31   opls_830      1    UNK   H0V      1       0.11     1.0080 
    32   opls_831      1    UNK   H0W      1     0.1176     1.0080 
    33   opls_832      1    UNK   H0X      2     0.0964     1.0080 
    34   opls_833      1    UNK   H0Y      2     0.0964     1.0080 
    35   opls_834      1    UNK   H0Z      2     0.0964     1.0080 
    36   opls_835      1    UNK   H10      2     0.1258     1.0080 
    37   opls_836      1    UNK   H11      2     0.1258     1.0080 
[ bonds ]
    2     1     1      0.1529 224262.400
    3     2     1      0.1529 224262.400
    4     3     1      0.1410 267776.000
    5     4     1      0.1327 179075.200
    6     5     1      0.1229 476976.000
    7     5     1      0.1522 265265.600
    8     7     1      0.1529 224262.400
    9     8     1      0.1529 224262.400
   10     9     1      0.1529 224262.400
   11     9     1      0.1522 265265.600
   12    11     1      0.1229 476976.000
   13     7     1      0.1529 224262.400
   14    13     1      0.1529 224262.400
   15    13     1      0.1529 224262.400
   16     3     1      0.1522 265265.600
   17    16     1      0.1229 476976.000
   18     1     1      0.1090 284512.000
   19     1     1      0.1090 284512.000
   20     1     1      0.1090 284512.000
   21     2     1      0.1090 284512.000
   22     2     1      0.1090 284512.000
   23     3     1      0.1090 284512.000
   24     7     1      0.1090 284512.000
   25     8     1      0.1090 284512.000
   26     8     1      0.1090 284512.000
   27     9     1      0.1090 284512.000
   28    10     1      0.1090 284512.000
   29    10     1      0.1090 284512.000
   30    10     1      0.1090 284512.000
   31    11     1      0.1090 284512.000
   32    13     1      0.1090 284512.000
   33    14     1      0.1090 284512.000
   34    14     1      0.1090 284512.000
   35    14     1      0.1090 284512.000
   36    15     1      0.1090 284512.000
   37    15     1      0.1090 284512.000
   16    15     1      0.1522 265265.600

[ angles ]
;  ai    aj    ak funct            c0            c1            c2            c3 
    1     2     3     1    112.700    488.273
    2     3     4     1    109.500    418.400
    3     4     5     1    116.900    694.544
    4     5     6     1    123.400    694.544
    4     5     7     1    111.400    677.808
    5     7     8     1    111.100    527.184
    7     8     9     1    112.700    488.273
    8     9    10     1    112.700    488.273
    8     9    11     1    111.100    527.184
    9    11    12     1    120.400    669.440
    5     7    13     1    111.100    527.184
    7    13    14     1    112.700    488.273
    7    13    15     1    112.700    488.273
    2     3    16     1    111.100    527.184
    3    16    17     1    120.400    669.440
    2     1    18     1    110.700    313.800
    2     1    19     1    110.700    313.800
    2     1    20     1    110.700    313.800
    1     2    21     1    110.700    313.800
    1     2    22     1    110.700    313.800
    2     3    23     1    110.700    313.800
    5     7    24     1    109.500    292.880
    7     8    25     1    110.700    313.800
    7     8    26     1    110.700    313.800
    8     9    27     1    110.700    313.800
    9    10    28     1    110.700    313.800
    9    10    29     1    110.700    313.800
    9    10    30     1    110.700    313.800
    9    11    31     1    115.000    292.880
    7    13    32     1    110.700    313.800
   13    14    33     1    110.700    313.800
   13    14    34     1    110.700    313.800
   13    14    35     1    110.700    313.800
   13    15    36     1    110.700    313.800
   13    15    37     1    110.700    313.800
   33    14    34     1    107.800    276.144
   15    16    17     1    120.400    669.440
   12    11    31     1    123.000    292.880
    9     8    25     1    110.700    313.800
   14    13    32     1    110.700    313.800
   16    15    36     1    109.500    292.880
   16    15    37     1    109.500    292.880
   34    14    35     1    107.800    276.144
    3     2    21     1    110.700    313.800
   29    10    30     1    107.800    276.144
   11     9    27     1    109.500    292.880
   28    10    29     1    107.800    276.144
   33    14    35     1    107.800    276.144
   10     9    11     1    111.100    527.184
    8     7    13     1    112.700    488.273
   14    13    15     1    112.700    488.273
    4     3    23     1    109.500    292.880
    3     2    22     1    110.700    313.800
   36    15    37     1    107.800    276.144
   13     7    24     1    110.700    313.800
   18     1    19     1    107.800    276.144
    6     5     7     1    120.400    669.440
    3    16    15     1    116.000    585.760
   21     2    22     1    107.800    276.144
   25     8    26     1    107.800    276.144
   18     1    20     1    107.800    276.144
   16     3    23     1    109.500    292.880
    9     8    26     1    110.700    313.800
    4     3    16     1    109.500    418.400
   19     1    20     1    107.800    276.144
    8     7    24     1    110.700    313.800
   28    10    30     1    107.800    276.144
   15    13    32     1    110.700    313.800
   10     9    27     1    110.700    313.800
   13    15    16     1    111.100    527.184

[ dihedrals ]
; IMPROPER DIHEDRAL ANGLES 
;  ai    aj    ak    al funct            c0            c1            c2            c3            c4            c5
     7     5     4     6    4        180.000     43.932     2  
    31    11     9    12    4        180.000     43.932     2  
    17    16     3    15    4        180.000     43.932     2  

[ dihedrals ]
; PROPER DIHEDRAL ANGLES
;  ai    aj    ak    al funct            c0            c1            c2            c3            c4            c5
   16   15   13   14        3      -4.960   6.286   1.310  -2.636  -0.000   0.000
   16   15   13    7        3      -4.960   6.286   1.310  -2.636  -0.000   0.000
   11    9    8    7        3      -4.960   6.286   1.310  -2.636  -0.000   0.000
   16    3    2    1        3      -4.960   6.286   1.310  -2.636  -0.000   0.000
   16    3    4    5        3      -2.197   5.201   0.527  -3.531  -0.000   0.000
    5    4    3    2        3      -2.197   5.201   0.527  -3.531  -0.000   0.000
   15   16    3    2        3       0.818  -7.906   0.602   6.485  -0.000   0.000
   15   16    3    4        3       2.874   0.582   2.092  -5.548  -0.000   0.000
    7    5    4    3        3      31.206  -9.768  -21.439  -0.000  -0.000   0.000
   13   15   16    3        3       0.818  -7.906   0.602   6.485  -0.000   0.000
   13    7    5    6        3       0.000   0.000   0.000  -0.000  -0.000   0.000
    8    7    5    6        3       0.000   0.000   0.000  -0.000  -0.000   0.000
    8    7    5    4        3      -1.157  -3.471   0.000   4.628  -0.000   0.000
   13    7    5    4        3      -1.157  -3.471   0.000   4.628  -0.000   0.000
    9    8    7    5        3      -4.960   6.286   1.310  -2.636  -0.000   0.000
   15   13    7    5        3      -4.960   6.286   1.310  -2.636  -0.000   0.000
   14   13    7    5        3      -4.960   6.286   1.310  -2.636  -0.000   0.000
   15   13    7    8        3       2.301  -1.464   0.837  -1.674  -0.000   0.000
   13    7    8    9        3       2.301  -1.464   0.837  -1.674  -0.000   0.000
   14   13    7    8        3       2.301  -1.464   0.837  -1.674  -0.000   0.000
   10    9    8    7        3       2.301  -1.464   0.837  -1.674  -0.000   0.000
   31   11    9   10        3       0.000   0.000   0.000  -0.000  -0.000   0.000
   31   11    9    8        3       0.000   0.000   0.000  -0.000  -0.000   0.000
   31   11    9   27        3       0.753   2.259   0.000  -3.012  -0.000   0.000
   37   15   16    3        3       0.575   1.726   0.000  -2.301  -0.000   0.000
   23    3   16   15        3       0.575   1.726   0.000  -2.301  -0.000   0.000
   36   15   16    3        3       0.575   1.726   0.000  -2.301  -0.000   0.000
   36   15   16   17        3       0.000   0.000   0.000  -0.000  -0.000   0.000
   37   15   16   17        3       0.000   0.000   0.000  -0.000  -0.000   0.000
   27    9   11   12        3       0.000   0.000   0.000  -0.000  -0.000   0.000
   24    7    5    6        3       0.000   0.000   0.000  -0.000  -0.000   0.000
   23    3   16   17        3       0.000   0.000   0.000  -0.000  -0.000   0.000
   24    7    5    4        3       0.276   0.828   0.000  -1.105  -0.000   0.000
   28   10    9   11        3      -0.209  -0.628   0.000   0.837  -0.000   0.000
   22    2    3   16        3      -0.209  -0.628   0.000   0.837  -0.000   0.000
   25    8    7    5        3      -0.209  -0.628   0.000   0.837  -0.000   0.000
   32   13   15   16        3      -0.209  -0.628   0.000   0.837  -0.000   0.000
   26    8    9   11        3      -0.209  -0.628   0.000   0.837  -0.000   0.000
   29   10    9   11        3      -0.209  -0.628   0.000   0.837  -0.000   0.000
   32   13    7    5        3      -0.209  -0.628   0.000   0.837  -0.000   0.000
   21    2    3   16        3      -0.209  -0.628   0.000   0.837  -0.000   0.000
   30   10    9   11        3      -0.209  -0.628   0.000   0.837  -0.000   0.000
   26    8    7    5        3      -0.209  -0.628   0.000   0.837  -0.000   0.000
   25    8    9   11        3      -0.209  -0.628   0.000   0.837  -0.000   0.000
   18    1    2    3        3       0.628   1.883   0.000  -2.510  -0.000   0.000
   25    8    9   10        3       0.628   1.883   0.000  -2.510  -0.000   0.000
   36   15   13   14        3       0.628   1.883   0.000  -2.510  -0.000   0.000
   36   15   13    7        3       0.628   1.883   0.000  -2.510  -0.000   0.000
   23    3    2    1        3       0.628   1.883   0.000  -2.510  -0.000   0.000
   34   14   13    7        3       0.628   1.883   0.000  -2.510  -0.000   0.000
   32   13    7    8        3       0.628   1.883   0.000  -2.510  -0.000   0.000
   30   10    9    8        3       0.628   1.883   0.000  -2.510  -0.000   0.000
   26    8    7   13        3       0.628   1.883   0.000  -2.510  -0.000   0.000
   37   15   13    7        3       0.628   1.883   0.000  -2.510  -0.000   0.000
   29   10    9    8        3       0.628   1.883   0.000  -2.510  -0.000   0.000
   34   14   13   15        3       0.628   1.883   0.000  -2.510  -0.000   0.000
   33   14   13    7        3       0.628   1.883   0.000  -2.510  -0.000   0.000
   19    1    2    3        3       0.628   1.883   0.000  -2.510  -0.000   0.000
   37   15   13   14        3       0.628   1.883   0.000  -2.510  -0.000   0.000
   33   14   13   15        3       0.628   1.883   0.000  -2.510  -0.000   0.000
   26    8    9   10        3       0.628   1.883   0.000  -2.510  -0.000   0.000
   35   14   13   15        3       0.628   1.883   0.000  -2.510  -0.000   0.000
   25    8    7   13        3       0.628   1.883   0.000  -2.510  -0.000   0.000
   27    9    8    7        3       0.628   1.883   0.000  -2.510  -0.000   0.000
   28   10    9    8        3       0.628   1.883   0.000  -2.510  -0.000   0.000
   35   14   13    7        3       0.628   1.883   0.000  -2.510  -0.000   0.000
   24    7   13   15        3       0.628   1.883   0.000  -2.510  -0.000   0.000
   24    7   13   14        3       0.628   1.883   0.000  -2.510  -0.000   0.000
   24    7    8    9        3       0.628   1.883   0.000  -2.510  -0.000   0.000
   20    1    2    3        3       0.628   1.883   0.000  -2.510  -0.000   0.000
   30   10    9   27        3       0.628   1.883   0.000  -2.510  -0.000   0.000
   21    2    1   19        3       0.628   1.883   0.000  -2.510  -0.000   0.000
   22    2    1   18        3       0.628   1.883   0.000  -2.510  -0.000   0.000
   27    9    8   26        3       0.628   1.883   0.000  -2.510  -0.000   0.000
   29   10    9   27        3       0.628   1.883   0.000  -2.510  -0.000   0.000
   25    8    7   24        3       0.628   1.883   0.000  -2.510  -0.000   0.000
   23    3    2   21        3       0.628   1.883   0.000  -2.510  -0.000   0.000
   21    2    1   18        3       0.628   1.883   0.000  -2.510  -0.000   0.000
   28   10    9   27        3       0.628   1.883   0.000  -2.510  -0.000   0.000
   36   15   13   32        3       0.628   1.883   0.000  -2.510  -0.000   0.000
   35   14   13   32        3       0.628   1.883   0.000  -2.510  -0.000   0.000
   34   14   13   32        3       0.628   1.883   0.000  -2.510  -0.000   0.000
   23    3    2   22        3       0.628   1.883   0.000  -2.510  -0.000   0.000
   22    2    1   20        3       0.628   1.883   0.000  -2.510  -0.000   0.000
   37   15   13   32        3       0.628   1.883   0.000  -2.510  -0.000   0.000
   32   13    7   24        3       0.628   1.883   0.000  -2.510  -0.000   0.000
   33   14   13   32        3       0.628   1.883   0.000  -2.510  -0.000   0.000
   21    2    1   20        3       0.628   1.883   0.000  -2.510  -0.000   0.000
   22    2    1   19        3       0.628   1.883   0.000  -2.510  -0.000   0.000
   26    8    7   24        3       0.628   1.883   0.000  -2.510  -0.000   0.000
   27    9    8   25        3       0.628   1.883   0.000  -2.510  -0.000   0.000
   21    2    3    4        3       0.979   2.937   0.000  -3.916  -0.000   0.000
   22    2    3    4        3       0.979   2.937   0.000  -3.916  -0.000   0.000
   23    3    4    5        3       0.414   1.243   0.000  -1.657  -0.000   0.000
   17   16   15   13        3       0.000   0.000   0.000  -0.000  -0.000   0.000
   12   11    9    8        3       0.000   0.000   0.000  -0.000  -0.000   0.000
   17   16    3    2        3       0.000   0.000   0.000  -0.000  -0.000   0.000
   12   11    9   10        3       0.000   0.000   0.000  -0.000  -0.000   0.000
   17   16    3    4        3       0.000   0.000   0.000  -0.000  -0.000   0.000
    6    5    4    3        3      21.439   0.000  -21.439  -0.000  -0.000   0.000
    4    3    2    1        3       2.874   0.582   2.092  -5.548  -0.000   0.000

[ pairs ]
     1     4    1
     2     5    1
     3     6    1
     3     7    1
     4     8    1
     6     8    1
     5     9    1
     3    13    1
     7    10    1
     4    13    1
     2    15    1
     1    16    1
     7    11    1
     6    13    1
     5    14    1
     4    15    1
     2    17    1
     8    12    1
     5    15    1
     5    16    1
     4    17    1
     3    18    1
    10    12    1
     9    13    1
     8    14    1
     3    19    1
     8    15    1
     7    16    1
     3    20    1
     1    23    1
     4    21    1
     4    22    1
     5    23    1
     4    24    1
    14    16    1
    13    17    1
     6    24    1
     5    25    1
     5    26    1
     9    24    1
     7    27    1
    10    25    1
    11    25    1
    10    26    1
     8    28    1
    16    21    1
    11    26    1
     8    29    1
     5    32    1
    16    22    1
    15    23    1
    14    24    1
    13    25    1
     8    30    1
    18    21    1
    15    24    1
    13    26    1
    12    27    1
    11    28    1
     8    31    1
     3    36    1
    19    21    1
    18    22    1
    17    23    1
    11    29    1
     8    32    1
     7    33    1
     3    37    1
    20    21    1
    19    22    1
    11    30    1
    10    31    1
     7    34    1
    20    22    1
     7    35    1
     7    36    1
    21    23    1
     7    37    1
    22    23    1
    16    32    1
    15    33    1
    24    25    1
    15    34    1
    24    26    1
    15    35    1
    14    36    1
    14    37    1
    25    27    1
    26    27    1
    17    36    1
    17    37    1
    27    28    1
    27    29    1
    24    32    1
    27    30    1
    27    31    1
    32    33    1
    32    34    1
    32    35    1
    32    36    1
    32    37    1

