LIGPARGEN GENERATED GRO FILE
   37
    1UNK    C00    1   0.100   0.100   0.000
    1UNK    C01    2  -0.052   0.100   0.000
    1UNK    C02    3  -0.111   0.100   0.141
    1UNK    O03    4  -0.076   0.221   0.210
    1UNK    C04    5  -0.117   0.226   0.339
    1UNK    O05    6  -0.044   0.199   0.433
    1UNK    C06    7  -0.263   0.269   0.351
    1UNK    C07    8  -0.284   0.368   0.467
    1UNK    C08    9  -0.207   0.501   0.463
    1UNK    C09   10  -0.237   0.587   0.340
    1UNK    C0A   11  -0.240   0.584   0.587
    1UNK    O0B   12  -0.316   0.549   0.676
    1UNK    C0C   13  -0.358   0.145   0.361
    1UNK    C0D   14  -0.370   0.085   0.502
    1UNK    C0E   15  -0.324   0.030   0.265
    1UNK    C0F   16  -0.264   0.081   0.135
    1UNK    O0G   17  -0.331   0.112   0.037
    1UNK    H0H   18   0.138   0.090  -0.102
    1UNK    H0I   19   0.139   0.016   0.059
    1UNK    H0J   20   0.140   0.193   0.041
    1UNK    H0K   21  -0.087   0.011  -0.054
    1UNK    H0M   22  -0.087   0.188  -0.055
    1UNK    H0N   23  -0.069   0.014   0.196
    1UNK    H0O   24  -0.288   0.322   0.258
    1UNK    H0P   25  -0.256   0.319   0.561
    1UNK    H0Q   26  -0.392   0.390   0.474
    1UNK    H0R   27  -0.099   0.481   0.467
    1UNK    H0S   28  -0.344   0.611   0.334
    1UNK    H0T   29  -0.207   0.537   0.248
    1UNK    H0U   30  -0.183   0.682   0.346
    1UNK    H0V   31  -0.189   0.682   0.593
    1UNK    H0W   32  -0.457   0.181   0.333
    1UNK    H0X   33  -0.275   0.044   0.536
    1UNK    H0Y   34  -0.444   0.004   0.502
    1UNK    H0Z   35  -0.405   0.158   0.575
    1UNK    H10   36  -0.414  -0.029   0.242
    1UNK    H11   37  -0.253  -0.041   0.310
   1.00000   1.00000   1.00000

