LIGPARGEN GENERATED GRO FILE
   32
    1UNK    C00    1   0.100   0.100   0.000
    1UNK    C01    2  -0.052   0.100   0.000
    1UNK    C02    3  -0.115   0.100   0.142
    1UNK    C03    4  -0.168   0.239   0.175
    1UNK    N04    5  -0.212   0.354   0.202
    1UNK    C05    6  -0.230  -0.003   0.126
    1UNK    C06    7  -0.269   0.015  -0.021
    1UNK    C07    8  -0.127  -0.015  -0.072
    1UNK    C08    9  -0.105  -0.160  -0.016
    1UNK    C09   10   0.042  -0.206  -0.009
    1UNK    C0A   11  -0.176  -0.261  -0.109
    1UNK    C0B   12  -0.167  -0.146   0.127
    1UNK    C0C   13  -0.269  -0.253   0.165
    1UNK    H0D   14   0.137   0.202   0.017
    1UNK    H0E   15   0.140   0.067  -0.096
    1UNK    H0F   16   0.143   0.039   0.080
    1UNK    H0G   17  -0.080   0.192  -0.053
    1UNK    H0H   18  -0.044   0.070   0.220
    1UNK    H0I   19  -0.311   0.010   0.198
    1UNK    H0J   20  -0.303   0.116  -0.044
    1UNK    H0K   21  -0.346  -0.055  -0.053
    1UNK    H0M   22  -0.118  -0.009  -0.181
    1UNK    H0N   23   0.093  -0.186  -0.104
    1UNK    H0O   24   0.048  -0.314   0.010
    1UNK    H0P   25   0.097  -0.159   0.072
    1UNK    H0Q   26  -0.132  -0.259  -0.209
    1UNK    H0R   27  -0.283  -0.243  -0.121
    1UNK    H0S   28  -0.165  -0.364  -0.071
    1UNK    H0T   29  -0.088  -0.150   0.203
    1UNK    H0U   30  -0.357  -0.252   0.100
    1UNK    H0V   31  -0.304  -0.237   0.267
    1UNK    H0W   32  -0.224  -0.353   0.160
   1.00000   1.00000   1.00000

