LIGPARGEN GENERATED GRO FILE
   29
    1UNK    C00    1   0.100   0.100   0.000
    1UNK    C01    2  -0.051   0.100   0.000
    1UNK    C02    3  -0.110   0.100   0.143
    1UNK    C03    4  -0.265   0.093   0.120
    1UNK    C04    5  -0.329   0.216   0.053
    1UNK    C05    6  -0.287   0.345   0.127
    1UNK    C06    7  -0.141   0.340   0.163
    1UNK    C07    8  -0.145   0.229   0.271
    1UNK    C08    9  -0.250   0.321   0.367
    1UNK    C09   10  -0.358   0.351   0.267
    1UNK    C0A   11  -0.497   0.397   0.224
    1UNK    N0B   12  -0.612   0.435   0.189
    1UNK    C0C   13  -0.266   0.088   0.275
    1UNK    O0D   14  -0.325   0.019   0.356
    1UNK    H0E   15   0.137   0.117  -0.102
    1UNK    H0F   16   0.138   0.004   0.034
    1UNK    H0G   17   0.140   0.179   0.065
    1UNK    H0H   18  -0.085   0.010  -0.053
    1UNK    H0I   19  -0.086   0.184  -0.061
    1UNK    H0J   20  -0.069   0.010   0.191
    1UNK    H0K   21  -0.301  -0.000   0.075
    1UNK    H0M   22  -0.438   0.205   0.051
    1UNK    H0N   23  -0.298   0.222  -0.052
    1UNK    H0O   24  -0.309   0.433   0.066
    1UNK    H0P   25  -0.107   0.435   0.207
    1UNK    H0Q   26  -0.074   0.326   0.079
    1UNK    H0R   27  -0.198   0.410   0.403
    1UNK    H0S   28  -0.283   0.263   0.454
    1UNK    H0T   29  -0.408   0.254   0.283
   1.00000   1.00000   1.00000

