
;
; GENERATED BY LigParGen Server
; Jorgensen Lab @ Yale University 
;
[ atomtypes ]
  opls_818  H818     1.0080     0.000    A    2.50000E-01   1.25520E-01
  opls_824  H824     1.0080     0.000    A    2.50000E-01   1.25520E-01
  opls_805  C805    12.0110     0.000    A    3.50000E-01   2.76144E-01
  opls_828  H828     1.0080     0.000    A    2.50000E-01   1.25520E-01
  opls_807  C807    12.0110     0.000    A    3.45000E-01   3.47272E-01
  opls_806  C806    12.0110     0.000    A    3.50000E-01   2.76144E-01
  opls_815  H815     1.0080     0.000    A    2.50000E-01   1.25520E-01
  opls_809  C809    12.0110     0.000    A    3.50000E-01   2.76144E-01
  opls_822  H822     1.0080     0.000    A    2.50000E-01   1.25520E-01
  opls_825  H825     1.0080     0.000    A    2.50000E-01   1.25520E-01
  opls_826  H826     1.0080     0.000    A    2.50000E-01   1.25520E-01
  opls_814  H814     1.0080     0.000    A    2.50000E-01   1.25520E-01
  opls_821  H821     1.0080     0.000    A    2.50000E-01   1.25520E-01
  opls_811  N811    14.0070     0.000    A    3.20000E-01   7.11280E-01
  opls_820  H820     1.0080     0.000    A    2.50000E-01   1.25520E-01
  opls_803  C803    12.0110     0.000    A    3.45000E-01   3.47272E-01
  opls_816  H816     1.0080     0.000    A    2.50000E-01   1.25520E-01
  opls_800  C800    12.0110     0.000    A    3.50000E-01   2.76144E-01
  opls_810  C810    12.0110     0.000    A    3.30000E-01   2.76144E-01
  opls_823  H823     1.0080     0.000    A    2.50000E-01   1.25520E-01
  opls_802  C802    12.0110     0.000    A    3.45000E-01   3.47272E-01
  opls_813  O813    15.9990     0.000    A    2.96000E-01   8.78640E-01
  opls_812  C812    12.0110     0.000    A    3.75000E-01   4.39320E-01
  opls_819  H819     1.0080     0.000    A    2.50000E-01   1.25520E-01
  opls_804  C804    12.0110     0.000    A    3.50000E-01   2.76144E-01
  opls_827  H827     1.0080     0.000    A    2.50000E-01   1.25520E-01
  opls_801  C801    12.0110     0.000    A    3.50000E-01   2.76144E-01
  opls_808  C808    12.0110     0.000    A    3.50000E-01   2.76144E-01
  opls_817  H817     1.0080     0.000    A    2.50000E-01   1.25520E-01
[ moleculetype ]
; Name               nrexcl
UNK                   3
[ atoms ]
;   nr       type  resnr residue  atom   cgnr     charge       mass  
     1   opls_800      1    UNK   C00      1    -0.2506    12.0110 
     2   opls_801      1    UNK   C01      1    -0.1871    12.0110 
     3   opls_802      1    UNK   C02      1     0.0492    12.0110 
     4   opls_803      1    UNK   C03      1    -0.2459    12.0110 
     5   opls_804      1    UNK   C04      1    -0.1429    12.0110 
     6   opls_805      1    UNK   C05      1    -0.1203    12.0110 
     7   opls_806      1    UNK   C06      1    -0.2412    12.0110 
     8   opls_807      1    UNK   C07      1    -0.1428    12.0110 
     9   opls_808      1    UNK   C08      1     0.0136    12.0110 
    10   opls_809      1    UNK   C09      1    -0.0767    12.0110 
    11   opls_810      1    UNK   C0A      1     0.1906    12.0110 
    12   opls_811      1    UNK   N0B      1     -0.395    14.0070 
    13   opls_812      1    UNK   C0C      1     0.2104    12.0110 
    14   opls_813      1    UNK   O0D      1    -0.3588    15.9990 
    15   opls_814      1    UNK   H0E      1     0.0912     1.0080 
    16   opls_815      1    UNK   H0F      1     0.0912     1.0080 
    17   opls_816      1    UNK   H0G      1     0.0912     1.0080 
    18   opls_817      1    UNK   H0H      1     0.1122     1.0080 
    19   opls_818      1    UNK   H0I      1     0.1122     1.0080 
    20   opls_819      1    UNK   H0J      1     0.1301     1.0080 
    21   opls_820      1    UNK   H0K      1     0.1358     1.0080 
    22   opls_821      1    UNK   H0M      1     0.1113     1.0080 
    23   opls_822      1    UNK   H0N      1     0.1113     1.0080 
    24   opls_823      1    UNK   H0O      1     0.1263     1.0080 
    25   opls_824      1    UNK   H0P      1     0.1118     1.0080 
    26   opls_825      1    UNK   H0Q      1     0.1118     1.0080 
    27   opls_826      1    UNK   H0R      1     0.1217     1.0080 
    28   opls_827      1    UNK   H0S      1     0.1217     1.0080 
    29   opls_828      1    UNK   H0T      1     0.1175     1.0080 
[ bonds ]
    2     1     1      0.1529 224262.400
    3     2     1      0.1510 234304.000
    4     3     1      0.1520 217568.000
    5     4     1      0.1510 234304.000
    6     5     1      0.1529 224262.400
    7     6     1      0.1529 224262.400
    8     3     1      0.1520 217568.000
    9     8     1      0.1510 234304.000
   10     6     1      0.1529 224262.400
   11    10     1      0.1470 326352.000
   12    11     1      0.1157 543920.000
   13     4     1      0.1522 265265.600
   14    13     1      0.1229 476976.000
   15     1     1      0.1090 284512.000
   16     1     1      0.1090 284512.000
   17     1     1      0.1090 284512.000
   18     2     1      0.1090 284512.000
   19     2     1      0.1090 284512.000
   20     3     1      0.1088 284512.000
   21     4     1      0.1088 284512.000
   22     5     1      0.1090 284512.000
   23     5     1      0.1090 284512.000
   24     6     1      0.1090 284512.000
   25     7     1      0.1090 284512.000
   26     7     1      0.1090 284512.000
   27     9     1      0.1090 284512.000
   28     9     1      0.1090 284512.000
   29    10     1      0.1090 284512.000
    8     7     1      0.1510 234304.000
   13     8     1      0.1522 265265.600
   10     9     1      0.1529 224262.400

[ angles ]
;  ai    aj    ak funct            c0            c1            c2            c3 
    1     2     3     1    112.700    488.273
    2     3     4     1    117.200    313.800
    3     4     5     1    117.200    313.800
    4     5     6     1    112.700    488.273
    5     6     7     1    112.700    488.273
    2     3     8     1    117.200    313.800
    3     8     9     1    117.200    313.800
    5     6    10     1    112.700    488.273
    6    10    11     1    112.700    488.273
   10    11    12     1    180.000   1255.200
    3     4    13     1     85.000    527.184
    4    13    14     1    134.000    669.440
    2     1    15     1    110.700    313.800
    2     1    16     1    110.700    313.800
    2     1    17     1    110.700    313.800
    1     2    18     1    110.700    313.800
    1     2    19     1    110.700    313.800
    2     3    20     1    114.300    292.880
    3     4    21     1    117.200    313.800
    4     5    22     1    110.700    313.800
    4     5    23     1    110.700    313.800
    5     6    24     1    110.700    313.800
    6     7    25     1    110.700    313.800
    6     7    26     1    110.700    313.800
    8     9    27     1    110.700    313.800
    8     9    28     1    110.700    313.800
    6    10    29     1    110.700    313.800
    7     8     3     1    117.200    313.800
   26     7     8     1    110.700    313.800
   23     5    22     1    107.800    276.144
   18     2     3     1    110.700    313.800
   29    10     9     1    110.700    313.800
    8    13     4     1    116.000    585.760
   13     8     3     1     85.000    527.184
   22     5     6     1    110.700    313.800
   17     1    15     1    107.800    276.144
   10     9     8     1    112.700    488.273
    8     3     4     1     83.000    251.040
   28     9    27     1    107.800    276.144
    9    10     6     1    112.700    488.273
   13     4     5     1    111.100    527.184
   13     8     9     1    111.100    527.184
    8     7     6     1    112.700    488.273
   24     6    10     1    110.700    313.800
   24     6     7     1    110.700    313.800
   25     7     8     1    110.700    313.800
   19     2     3     1    110.700    313.800
   16     1    15     1    107.800    276.144
   20     3     8     1    117.200    313.800
   26     7    25     1    107.800    276.144
   14    13     8     1    134.000    669.440
   29    10    11     1    108.500    292.880
   10     6     7     1    112.700    488.273
   21     4    13     1    110.000    313.800
   17     1    16     1    107.800    276.144
   11    10     9     1    112.700    488.273
   19     2    18     1    107.800    276.144
   23     5     6     1    110.700    313.800
   28     9    10     1    110.700    313.800
   21     4     5     1    114.300    292.880
   20     3     4     1    117.200    313.800
    9     8     7     1    114.300    292.880
   13     8     7     1    111.100    527.184
   27     9    10     1    110.700    313.800

[ dihedrals ]
; IMPROPER DIHEDRAL ANGLES 
;  ai    aj    ak    al funct            c0            c1            c2            c3            c4            c5
    14    13     4     8    4        180.000     10.460     2  

[ dihedrals ]
; PROPER DIHEDRAL ANGLES
;  ai    aj    ak    al funct            c0            c1            c2            c3            c4            c5
   13    8    9   28        3       0.628   1.883   0.000  -2.510  -0.000   0.000
   13    4    5   22        3       0.628   1.883   0.000  -2.510  -0.000   0.000
   13    4    5   23        3       0.628   1.883   0.000  -2.510  -0.000   0.000
   13    8    7   26        3       0.628   1.883   0.000  -2.510  -0.000   0.000
   13    8    9   27        3       0.628   1.883   0.000  -2.510  -0.000   0.000
   13    8    7   25        3       0.628   1.883   0.000  -2.510  -0.000   0.000
   13    8    3   20        3       0.000   0.000   0.000  -0.000  -0.000   0.000
   13    4    3   20        3       0.000   0.000   0.000  -0.000  -0.000   0.000
    7    6   10    9        3       2.301  -1.464   0.837  -1.674  -0.000   0.000
    5    6   10    9        3       2.301  -1.464   0.837  -1.674  -0.000   0.000
    6   10    9    8        3       2.301  -1.464   0.837  -1.674  -0.000   0.000
    5    6    7    8        3       2.301  -1.464   0.837  -1.674  -0.000   0.000
    7    6    5    4        3       2.301  -1.464   0.837  -1.674  -0.000   0.000
    7    6   10   11        3      -2.720   0.000   2.720  -0.000  -0.000   0.000
    5    6   10   11        3      -2.720   0.000   2.720  -0.000  -0.000   0.000
   10    6    7   26        3       0.628   1.883   0.000  -2.510  -0.000   0.000
    6   10    9   28        3       0.628   1.883   0.000  -2.510  -0.000   0.000
   10    6    7   25        3       0.628   1.883   0.000  -2.510  -0.000   0.000
   10    6    5   22        3       0.628   1.883   0.000  -2.510  -0.000   0.000
    5    6    7   25        3       0.628   1.883   0.000  -2.510  -0.000   0.000
    9   10    6   24        3       0.628   1.883   0.000  -2.510  -0.000   0.000
    7    6    5   23        3       0.628   1.883   0.000  -2.510  -0.000   0.000
    5    6    7   26        3       0.628   1.883   0.000  -2.510  -0.000   0.000
    7    6   10   29        3       0.628   1.883   0.000  -2.510  -0.000   0.000
    5    6   10   29        3       0.628   1.883   0.000  -2.510  -0.000   0.000
   10    6    5   23        3       0.628   1.883   0.000  -2.510  -0.000   0.000
    6   10    9   27        3       0.628   1.883   0.000  -2.510  -0.000   0.000
    7    6    5   22        3       0.628   1.883   0.000  -2.510  -0.000   0.000
    6    5    4   13        3       2.301  -1.464   0.837  -1.674  -0.000   0.000
   10    9    8   13        3       2.301  -1.464   0.837  -1.674  -0.000   0.000
    6    7    8   13        3       2.301  -1.464   0.837  -1.674  -0.000   0.000
    6    7    8    9        3       2.301  -1.464   0.837  -1.674  -0.000   0.000
    6    5    4    3        3       0.000   0.000   0.000  -0.000  -0.000   0.000
    1    2    3    8        3       0.000   0.000   0.000  -0.000  -0.000   0.000
    1    2    3   20        3       0.628   1.883   0.000  -2.510  -0.000   0.000
    6    5    4   21        3       0.628   1.883   0.000  -2.510  -0.000   0.000
    9   10   11   12        3       0.000   0.000   0.000  -0.000  -0.000   0.000
    5    4   13    8        3       0.000   0.000   0.000  -0.000  -0.000   0.000
    5    4   13   14        3       0.000   0.000   0.000  -0.000  -0.000   0.000
    9    8   13   14        3       0.000   0.000   0.000  -0.000  -0.000   0.000
    7    8   13   14        3       0.000   0.000   0.000  -0.000  -0.000   0.000
    7    8    9   10        3       2.301  -1.464   0.837  -1.674  -0.000   0.000
    7    8    9   27        3       0.628   1.883   0.000  -2.510  -0.000   0.000
    9    8    7   25        3       0.628   1.883   0.000  -2.510  -0.000   0.000
    9    8    7   26        3       0.628   1.883   0.000  -2.510  -0.000   0.000
    7    8    9   28        3       0.628   1.883   0.000  -2.510  -0.000   0.000
    2    3    8   13        3       0.000   0.000   0.000  -0.000  -0.000   0.000
    2    3    4   13        3       0.000   0.000   0.000  -0.000  -0.000   0.000
    2    3    8    9        3       0.000   0.000   0.000  -0.000  -0.000   0.000
    2    3    8    7        3       0.000   0.000   0.000  -0.000  -0.000   0.000
    5    4    3    2        3       0.000   0.000   0.000  -0.000  -0.000   0.000
    5    4    3    8        3       0.000   0.000   0.000  -0.000  -0.000   0.000
    9    8    3   20        3       0.000   0.000   0.000  -0.000  -0.000   0.000
    7    8    3   20        3       0.000   0.000   0.000  -0.000  -0.000   0.000
    2    3    4   21        3       0.000   0.000   0.000  -0.000  -0.000   0.000
    5    4    3   20        3       0.000   0.000   0.000  -0.000  -0.000   0.000
    4   13    8    9        3       0.000   0.000   0.000  -0.000  -0.000   0.000
    4   13    8    7        3       0.000   0.000   0.000  -0.000  -0.000   0.000
    8   13    4   21        3       0.000   0.000   0.000  -0.000  -0.000   0.000
    8    7    6   10        3       2.301  -1.464   0.837  -1.674  -0.000   0.000
    4    5    6   10        3       2.301  -1.464   0.837  -1.674  -0.000   0.000
    8    9   10   11        3      -2.720   0.000   2.720  -0.000  -0.000   0.000
    8    7    6   24        3       0.628   1.883   0.000  -2.510  -0.000   0.000
    3    2    1   16        3       0.628   1.883   0.000  -2.510  -0.000   0.000
    3    2    1   17        3       0.628   1.883   0.000  -2.510  -0.000   0.000
    4    5    6   24        3       0.628   1.883   0.000  -2.510  -0.000   0.000
    8    9   10   29        3       0.628   1.883   0.000  -2.510  -0.000   0.000
    3    4   13   14        3       0.000   0.000   0.000  -0.000  -0.000   0.000
    3    8   13   14        3       0.000   0.000   0.000  -0.000  -0.000   0.000
    4    3    2    1        3       0.000   0.000   0.000  -0.000  -0.000   0.000
    3    8    9   10        3       0.000   0.000   0.000  -0.000  -0.000   0.000
    3    8    7    6        3       0.000   0.000   0.000  -0.000  -0.000   0.000
    3    8    9   28        3       0.628   1.883   0.000  -2.510  -0.000   0.000
    3    4    5   22        3       0.628   1.883   0.000  -2.510  -0.000   0.000
    3    8    9   27        3       0.628   1.883   0.000  -2.510  -0.000   0.000
    8    3    2   18        3       0.628   1.883   0.000  -2.510  -0.000   0.000
    3    8    7   25        3       0.628   1.883   0.000  -2.510  -0.000   0.000
    4    3    2   19        3       0.628   1.883   0.000  -2.510  -0.000   0.000
    4    3    2   18        3       0.628   1.883   0.000  -2.510  -0.000   0.000
    8    3    2   19        3       0.628   1.883   0.000  -2.510  -0.000   0.000
    3    4    5   23        3       0.628   1.883   0.000  -2.510  -0.000   0.000
    3    8    7   26        3       0.628   1.883   0.000  -2.510  -0.000   0.000
    4    3    8    9        3       0.000   0.000   0.000  -0.000  -0.000   0.000
    4    3    8    7        3       0.000   0.000   0.000  -0.000  -0.000   0.000
    8    3    4   21        3       0.000   0.000   0.000  -0.000  -0.000   0.000
   11   10    6   24        3       0.766   2.297   0.000  -3.063  -0.000   0.000
   11   10    9   28        3       0.766   2.297   0.000  -3.063  -0.000   0.000
   11   10    9   27        3       0.766   2.297   0.000  -3.063  -0.000   0.000
   15    1    2    3        3       0.628   1.883   0.000  -2.510  -0.000   0.000
   17    1    2   19        3       0.628   1.883   0.000  -2.510  -0.000   0.000
   28    9   10   29        3       0.628   1.883   0.000  -2.510  -0.000   0.000
   15    1    2   19        3       0.628   1.883   0.000  -2.510  -0.000   0.000
   15    1    2   18        3       0.628   1.883   0.000  -2.510  -0.000   0.000
   23    5    6   24        3       0.628   1.883   0.000  -2.510  -0.000   0.000
   22    5    6   24        3       0.628   1.883   0.000  -2.510  -0.000   0.000
   24    6    7   26        3       0.628   1.883   0.000  -2.510  -0.000   0.000
   27    9   10   29        3       0.628   1.883   0.000  -2.510  -0.000   0.000
   16    1    2   18        3       0.628   1.883   0.000  -2.510  -0.000   0.000
   24    6    7   25        3       0.628   1.883   0.000  -2.510  -0.000   0.000
   17    1    2   18        3       0.628   1.883   0.000  -2.510  -0.000   0.000
   24    6   10   29        3       0.628   1.883   0.000  -2.510  -0.000   0.000
   16    1    2   19        3       0.628   1.883   0.000  -2.510  -0.000   0.000
   18    2    3   20        3       0.628   1.883   0.000  -2.510  -0.000   0.000
   19    2    3   20        3       0.628   1.883   0.000  -2.510  -0.000   0.000
   21    4    5   22        3       0.628   1.883   0.000  -2.510  -0.000   0.000
   21    4    5   23        3       0.628   1.883   0.000  -2.510  -0.000   0.000
   20    3    4   21        3       0.000   0.000   0.000  -0.000  -0.000   0.000
   12   11   10    6        3       0.000   0.000   0.000  -0.000  -0.000   0.000
   12   11   10   29        3       0.000   0.000   0.000  -0.000  -0.000   0.000
   14   13    4   21        3       0.000   0.000   0.000  -0.000  -0.000   0.000

[ pairs ]
     1     4    1
     2     5    1
     3     6    1
     2     7    1
     1     8    1
     4     7    1
     2     9    1
     5     8    1
     4     9    1
     3    10    1
     5     9    1
     4    10    1
     2    13    1
     5    11    1
     3    14    1
     7    11    1
     6    12    1
     3    15    1
     8    11    1
     6    13    1
     5    14    1
     3    16    1
     3    17    1
     9    12    1
     7    14    1
     1    20    1
     4    18    1
    10    13    1
     9    14    1
     4    19    1
     2    21    1
     5    20    1
     3    22    1
     8    18    1
     3    23    1
     8    19    1
     7    20    1
     6    21    1
     4    24    1
     3    25    1
     9    20    1
     8    21    1
     7    22    1
     3    26    1
     7    23    1
     5    25    1
     3    27    1
     5    26    1
     3    28    1
    10    22    1
     8    24    1
    15    18    1
    13    20    1
    10    23    1
     9    24    1
     6    27    1
    16    18    1
    15    19    1
     9    25    1
     7    27    1
     6    28    1
     5    29    1
    17    18    1
    16    19    1
    14    21    1
    13    22    1
    11    24    1
    10    25    1
     9    26    1
     7    28    1
    17    19    1
    13    23    1
    10    26    1
     7    29    1
     8    29    1
    18    20    1
    13    25    1
    11    27    1
    19    20    1
    13    26    1
    11    28    1
    13    27    1
    20    21    1
    13    28    1
    12    29    1
    21    22    1
    21    23    1
    22    24    1
    23    24    1
    24    25    1
    24    26    1
    24    29    1
    27    29    1
    28    29    1

