LIGPARGEN GENERATED GRO FILE
   23
    1UNK    C00    1   0.100   0.100   0.000
    1UNK    C01    2  -0.051   0.100   0.000
    1UNK    O02    3  -0.112   0.100   0.107
    1UNK    C03    4  -0.123   0.084  -0.135
    1UNK    C04    5  -0.277   0.086  -0.118
    1UNK    C05    6  -0.334   0.222  -0.078
    1UNK    C06    7  -0.304   0.331  -0.179
    1UNK    S07    8  -0.130   0.348  -0.209
    1UNK    O08    9  -0.065   0.392  -0.087
    1UNK    O09   10  -0.114   0.423  -0.332
    1UNK    C0A   11  -0.078   0.182  -0.242
    1UNK    H0B   12   0.136   0.116   0.102
    1UNK    H0C   13   0.139   0.181  -0.062
    1UNK    H0D   14   0.136   0.003  -0.035
    1UNK    H0E   15  -0.096  -0.017  -0.168
    1UNK    H0F   16  -0.306   0.011  -0.043
    1UNK    H0G   17  -0.323   0.054  -0.213
    1UNK    H0H   18  -0.296   0.251   0.021
    1UNK    H0I   19  -0.443   0.212  -0.067
    1UNK    H0J   20  -0.341   0.428  -0.143
    1UNK    H0K   21  -0.352   0.309  -0.275
    1UNK    H0M   22   0.030   0.184  -0.254
    1UNK    H0N   23  -0.121   0.154  -0.339
   1.00000   1.00000   1.00000

