LIGPARGEN GENERATED GRO FILE
   32
    1UNK    C00    1   0.100   0.100   0.000
    1UNK    C01    2  -0.052   0.100   0.000
    1UNK    C02    3  -0.130   0.100   0.137
    1UNK    C03    4  -0.085   0.224   0.218
    1UNK    C04    5  -0.280   0.123   0.098
    1UNK    C05    6  -0.337   0.004   0.025
    1UNK    O06    7  -0.408   0.018  -0.075
    1UNK    C07    8  -0.318  -0.133   0.087
    1UNK    C08    9  -0.175  -0.152   0.138
    1UNK    C09   10  -0.121  -0.034   0.223
    1UNK    C0A   11   0.022  -0.069   0.270
    1UNK    C0B   12  -0.205  -0.026   0.354
    1UNK    H0C   13   0.136   0.123  -0.101
    1UNK    H0D   14   0.141   0.002   0.024
    1UNK    H0E   15   0.142   0.175   0.067
    1UNK    H0F   16  -0.086   0.017  -0.064
    1UNK    H0G   17  -0.081   0.191  -0.055
    1UNK    H0H   18  -0.095   0.315   0.159
    1UNK    H0I   19   0.019   0.216   0.250
    1UNK    H0J   20  -0.147   0.238   0.308
    1UNK    H0K   21  -0.289   0.211   0.032
    1UNK    H0M   22  -0.343   0.144   0.185
    1UNK    H0N   23  -0.341  -0.209   0.013
    1UNK    H0O   24  -0.390  -0.143   0.169
    1UNK    H0P   25  -0.109  -0.169   0.052
    1UNK    H0Q   26  -0.171  -0.245   0.196
    1UNK    H0R   27   0.087  -0.098   0.187
    1UNK    H0S   28   0.020  -0.156   0.337
    1UNK    H0T   29   0.068   0.013   0.325
    1UNK    H0U   30  -0.310  -0.002   0.336
    1UNK    H0V   31  -0.165   0.049   0.423
    1UNK    H0W   32  -0.204  -0.122   0.406
   1.00000   1.00000   1.00000

