LIGPARGEN GENERATED GRO FILE
   34
    1UNK    C00    1   0.100   0.100   0.000
    1UNK    C01    2  -0.052   0.100   0.000
    1UNK    C02    3  -0.115   0.100   0.140
    1UNK    C03    4  -0.076   0.217   0.226
    1UNK    C04    5  -0.109   0.361   0.197
    1UNK    C05    6  -0.185   0.408   0.078
    1UNK    C06    7  -0.183   0.288   0.307
    1UNK    C07    8  -0.169   0.332   0.452
    1UNK    C08    9  -0.245   0.258   0.560
    1UNK    C09   10  -0.095   0.255   0.559
    1UNK    C0A   11  -0.022   0.328   0.668
    1UNK    C0B   12   0.129   0.322   0.650
    1UNK    H0C   13   0.137   0.095  -0.103
    1UNK    H0D   14   0.139   0.014   0.054
    1UNK    H0E   15   0.140   0.191   0.046
    1UNK    H0F   16  -0.087   0.011  -0.053
    1UNK    H0G   17  -0.088   0.186  -0.058
    1UNK    H0H   18  -0.086   0.008   0.192
    1UNK    H0I   19  -0.224   0.096   0.128
    1UNK    H0J   20   0.020   0.198   0.275
    1UNK    H0K   21  -0.034   0.434   0.226
    1UNK    H0M   22  -0.273   0.346   0.056
    1UNK    H0N   23  -0.121   0.410  -0.011
    1UNK    H0O   24  -0.221   0.510   0.096
    1UNK    H0P   25  -0.286   0.260   0.282
    1UNK    H0Q   26  -0.170   0.441   0.463
    1UNK    H0R   27  -0.297   0.167   0.534
    1UNK    H0S   28  -0.296   0.318   0.635
    1UNK    H0T   29  -0.049   0.161   0.533
    1UNK    H0U   30  -0.048   0.282   0.765
    1UNK    H0V   31  -0.054   0.433   0.673
    1UNK    H0W   32   0.164   0.218   0.652
    1UNK    H0X   33   0.179   0.377   0.731
    1UNK    H0Y   34   0.158   0.366   0.554
   1.00000   1.00000   1.00000

