LIGPARGEN GENERATED GRO FILE
   46
    1UNK    C00    1   0.100   0.100   0.000
    1UNK    C01    2  -0.052   0.100   0.000
    1UNK    C02    3  -0.108   0.100   0.142
    1UNK    C03    4  -0.260   0.100   0.139
    1UNK    C04    5  -0.322   0.100   0.280
    1UNK    C05    6  -0.475   0.101   0.265
    1UNK    C06    7  -0.550   0.101   0.399
    1UNK    C07    8  -0.708   0.095   0.387
    1UNK    C08    9  -0.755   0.217   0.308
    1UNK    C09   10  -0.745  -0.036   0.314
    1UNK    C0A   11  -0.768   0.095   0.531
    1UNK    O0B   12  -0.691   0.091   0.628
    1UNK    C0C   13  -0.922   0.108   0.559
    1UNK    C0D   14  -1.013   0.033   0.462
    1UNK    C0E   15  -0.950   0.048   0.699
    1UNK    C0F   16  -0.962   0.256   0.564
    1UNK    H0G   17   0.138   0.100  -0.103
    1UNK    H0H   18   0.139   0.011   0.051
    1UNK    H0I   19   0.139   0.189   0.051
    1UNK    H0J   20  -0.088   0.012  -0.054
    1UNK    H0K   21  -0.088   0.188  -0.054
    1UNK    H0M   22  -0.072   0.188   0.196
    1UNK    H0N   23  -0.072   0.011   0.196
    1UNK    H0O   24  -0.295   0.012   0.084
    1UNK    H0P   25  -0.295   0.188   0.084
    1UNK    H0Q   26  -0.290   0.189   0.335
    1UNK    H0R   27  -0.290   0.012   0.335
    1UNK    H0S   28  -0.501   0.012   0.207
    1UNK    H0T   29  -0.503   0.189   0.207
    1UNK    H0U   30  -0.522   0.191   0.455
    1UNK    H0V   31  -0.516   0.015   0.459
    1UNK    H0W   32  -0.709   0.224   0.209
    1UNK    H0X   33  -0.732   0.310   0.362
    1UNK    H0Y   34  -0.863   0.215   0.289
    1UNK    H0Z   35  -0.690  -0.050   0.221
    1UNK    H10   36  -0.849  -0.040   0.285
    1UNK    H11   37  -0.725  -0.123   0.378
    1UNK    H12   38  -0.988  -0.074   0.458
    1UNK    H13   39  -1.009   0.073   0.361
    1UNK    H14   40  -1.118   0.039   0.493
    1UNK    H15   41  -0.928  -0.059   0.701
    1UNK    H16   42  -1.055   0.061   0.728
    1UNK    H17   43  -0.889   0.096   0.777
    1UNK    H18   44  -0.951   0.306   0.468
    1UNK    H19   45  -0.902   0.311   0.637
    1UNK    H1A   46  -1.068   0.267   0.592
   1.00000   1.00000   1.00000

