LIGPARGEN GENERATED GRO FILE
   28
    1UNK    C00    1   0.100   0.100   0.000
    1UNK    C01    2  -0.052   0.100   0.000
    1UNK    C02    3  -0.107   0.100   0.142
    1UNK    C03    4  -0.261   0.117   0.157
    1UNK    C04    5  -0.283   0.122   0.310
    1UNK    C05    6  -0.336  -0.028   0.298
    1UNK    C06    7  -0.253  -0.155   0.284
    1UNK    C07    8  -0.391   0.022   0.164
    1UNK    C08    9  -0.400  -0.004   0.016
    1UNK    C09   10  -0.359   0.131  -0.045
    1UNK    O0A   11  -0.370   0.163  -0.162
    1UNK    O0B   12  -0.304   0.210   0.056
    1UNK    H0C   13   0.138   0.108  -0.103
    1UNK    H0D   14   0.141   0.009   0.044
    1UNK    H0E   15   0.139   0.187   0.056
    1UNK    H0F   16  -0.089   0.013  -0.055
    1UNK    H0G   17  -0.085   0.190  -0.054
    1UNK    H0H   18  -0.061   0.186   0.193
    1UNK    H0I   19  -0.070   0.012   0.196
    1UNK    H0J   20  -0.358   0.195   0.343
    1UNK    H0K   21  -0.196   0.133   0.375
    1UNK    H0M   22  -0.413  -0.047   0.373
    1UNK    H0N   23  -0.193  -0.157   0.193
    1UNK    H0O   24  -0.320  -0.242   0.278
    1UNK    H0P   25  -0.187  -0.168   0.370
    1UNK    H0Q   26  -0.484   0.078   0.187
    1UNK    H0R   27  -0.504  -0.025  -0.012
    1UNK    H0S   28  -0.335  -0.085  -0.017
   1.00000   1.00000   1.00000

