
;
; GENERATED BY LigParGen Server
; Jorgensen Lab @ Yale University 
;
[ atomtypes ]
  opls_814  C814    12.0110     0.000    A    3.50000E-01   2.76144E-01
  opls_824  H824     1.0080     0.000    A    2.50000E-01   1.25520E-01
  opls_805  C805    12.0110     0.000    A    3.50000E-01   2.76144E-01
  opls_818  C818    12.0110     0.000    A    3.50000E-01   2.76144E-01
  opls_843  H843     1.0080     0.000    A    2.50000E-01   1.25520E-01
  opls_836  H836     1.0080     0.000    A    2.50000E-01   1.25520E-01
  opls_834  H834     1.0080     0.000    A    2.50000E-01   1.25520E-01
  opls_810  C810    12.0110     0.000    A    3.50000E-01   2.76144E-01
  opls_828  H828     1.0080     0.000    A    2.50000E-01   1.25520E-01
  opls_801  O801    15.9990     0.000    A    2.90000E-01   5.85760E-01
  opls_851  H851     1.0080     0.000    A    2.50000E-01   1.25520E-01
  opls_803  O803    15.9990     0.000    A    2.96000E-01   8.78640E-01
  opls_806  C806    12.0110     0.000    A    3.50000E-01   2.76144E-01
  opls_827  H827     1.0080     0.000    A    2.50000E-01   1.25520E-01
  opls_809  C809    12.0110     0.000    A    3.50000E-01   2.76144E-01
  opls_838  H838     1.0080     0.000    A    2.50000E-01   1.25520E-01
  opls_822  H822     1.0080     0.000    A    2.50000E-01   1.25520E-01
  opls_807  C807    12.0110     0.000    A    3.50000E-01   2.76144E-01
  opls_830  H830     1.0080     0.000    A    2.50000E-01   1.25520E-01
  opls_804  C804    12.0110     0.000    A    3.50000E-01   2.76144E-01
  opls_842  H842     1.0080     0.000    A    2.50000E-01   1.25520E-01
  opls_826  H826     1.0080     0.000    A    2.50000E-01   1.25520E-01
  opls_837  H837     1.0080     0.000    A    2.50000E-01   1.25520E-01
  opls_821  H821     1.0080     0.000    A    2.50000E-01   1.25520E-01
  opls_831  H831     1.0080     0.000    A    2.50000E-01   1.25520E-01
  opls_812  O812    15.9990     0.000    A    2.96000E-01   8.78640E-01
  opls_832  H832     1.0080     0.000    A    2.50000E-01   1.25520E-01
  opls_800  C800    12.0110     0.000    A    3.50000E-01   2.76144E-01
  opls_846  H846     1.0080     0.000    A    2.50000E-01   1.25520E-01
  opls_848  H848     1.0080     0.000    A    2.50000E-01   1.25520E-01
  opls_815  C815    12.0110     0.000    A    3.50000E-01   2.76144E-01
  opls_811  C811    12.0110     0.000    A    3.55000E-01   2.92880E-01
  opls_823  H823     1.0080     0.000    A    2.50000E-01   1.25520E-01
  opls_813  O813    15.9990     0.000    A    2.90000E-01   5.85760E-01
  opls_819  C819    12.0110     0.000    A    3.50000E-01   2.76144E-01
  opls_802  C802    12.0110     0.000    A    3.55000E-01   2.92880E-01
  opls_820  C820    12.0110     0.000    A    3.50000E-01   2.76144E-01
  opls_835  H835     1.0080     0.000    A    2.50000E-01   1.25520E-01
  opls_841  H841     1.0080     0.000    A    2.50000E-01   1.25520E-01
  opls_847  H847     1.0080     0.000    A    2.50000E-01   1.25520E-01
  opls_825  H825     1.0080     0.000    A    2.50000E-01   1.25520E-01
  opls_816  C816    12.0110     0.000    A    3.50000E-01   2.76144E-01
  opls_833  H833     1.0080     0.000    A    2.50000E-01   1.25520E-01
  opls_839  H839     1.0080     0.000    A    2.50000E-01   1.25520E-01
  opls_817  C817    12.0110     0.000    A    3.50000E-01   2.76144E-01
  opls_852  H852     1.0080     0.000    A    2.50000E-01   1.25520E-01
  opls_808  C808    12.0110     0.000    A    3.50000E-01   2.76144E-01
  opls_850  H850     1.0080     0.000    A    2.50000E-01   1.25520E-01
  opls_840  H840     1.0080     0.000    A    2.50000E-01   1.25520E-01
  opls_849  H849     1.0080     0.000    A    2.50000E-01   1.25520E-01
  opls_829  H829     1.0080     0.000    A    2.50000E-01   1.25520E-01
  opls_844  H844     1.0080     0.000    A    2.50000E-01   1.25520E-01
  opls_845  H845     1.0080     0.000    A    2.50000E-01   1.25520E-01
[ moleculetype ]
; Name               nrexcl
UNK                   3
[ atoms ]
;   nr       type  resnr residue  atom   cgnr     charge       mass  
     1   opls_800      1    UNK   C00      1    -0.0605    12.0110 
     2   opls_801      1    UNK   O01      1    -0.3568    15.9990 
     3   opls_802      1    UNK   C02      1     0.4365    12.0110 
     4   opls_803      1    UNK   O03      1    -0.4449    15.9990 
     5   opls_804      1    UNK   C04      1    -0.1106    12.0110 
     6   opls_805      1    UNK   C05      1    -0.1659    12.0110 
     7   opls_806      1    UNK   C06      1    -0.1861    12.0110 
     8   opls_807      1    UNK   C07      1     -0.098    12.0110 
     9   opls_808      1    UNK   C08      1    -0.2364    12.0110 
    10   opls_809      1    UNK   C09      1    -0.1109    12.0110 
    11   opls_810      1    UNK   C0A      1    -0.2351    12.0110 
    12   opls_811      1    UNK   C0B      1     0.4469    12.0110 
    13   opls_812      1    UNK   O0C      1    -0.4542    15.9990 
    14   opls_813      1    UNK   O0D      1    -0.3707    15.9990 
    15   opls_814      1    UNK   C0E      1     0.1437    12.0110 
    16   opls_815      1    UNK   C0F      1    -0.2685    12.0110 
    17   opls_816      1    UNK   C0G      1    -0.2387    12.0110 
    18   opls_817      1    UNK   C0H      1    -0.2694    12.0110 
    19   opls_818      1    UNK   C0I      1    -0.1071    12.0110 
    20   opls_819      1    UNK   C0J      1    -0.2438    12.0110 
    21   opls_820      1    UNK   C0K      1    -0.2367    12.0110 
    22   opls_821      1    UNK   H0M      1     0.1019     1.0080 
    23   opls_822      1    UNK   H0N      1     0.1019     1.0080 
    24   opls_823      1    UNK   H0O      1     0.1019     1.0080 
    25   opls_824      1    UNK   H0P      1     0.1305     1.0080 
    26   opls_825      1    UNK   H0Q      1      0.102     1.0080 
    27   opls_826      1    UNK   H0R      1      0.102     1.0080 
    28   opls_827      1    UNK   H0S      1     0.1038     1.0080 
    29   opls_828      1    UNK   H0T      1     0.1038     1.0080 
    30   opls_829      1    UNK   H0U      1     0.1116     1.0080 
    31   opls_830      1    UNK   H0V      1     0.0853     1.0080 
    32   opls_831      1    UNK   H0W      1     0.0853     1.0080 
    33   opls_832      1    UNK   H0X      2     0.0853     1.0080 
    34   opls_833      1    UNK   H0Y      2     0.1287     1.0080 
    35   opls_834      1    UNK   H0Z      2     0.0971     1.0080 
    36   opls_835      1    UNK   H10      2     0.0971     1.0080 
    37   opls_836      1    UNK   H11      2     0.0971     1.0080 
    38   opls_837      1    UNK   H12      2     0.1008     1.0080 
    39   opls_838      1    UNK   H13      2     0.1008     1.0080 
    40   opls_839      1    UNK   H14      2     0.1008     1.0080 
    41   opls_840      1    UNK   H15      2      0.095     1.0080 
    42   opls_841      1    UNK   H16      2      0.095     1.0080 
    43   opls_842      1    UNK   H17      2      0.095     1.0080 
    44   opls_843      1    UNK   H18      2     0.1017     1.0080 
    45   opls_844      1    UNK   H19      2     0.1017     1.0080 
    46   opls_845      1    UNK   H1A      2     0.1017     1.0080 
    47   opls_846      1    UNK   H1B      2     0.1228     1.0080 
    48   opls_847      1    UNK   H1C      2     0.0876     1.0080 
    49   opls_848      1    UNK   H1D      2     0.0876     1.0080 
    50   opls_849      1    UNK   H1E      2     0.0876     1.0080 
    51   opls_850      1    UNK   H1F      2     0.0845     1.0080 
    52   opls_851      1    UNK   H1G      2     0.0845     1.0080 
    53   opls_852      1    UNK   H1H      2     0.0845     1.0080 
[ bonds ]
    2     1     1      0.1410 267776.000
    3     2     1      0.1327 179075.200
    4     3     1      0.1229 476976.000
    5     3     1      0.1522 265265.600
    6     5     1      0.1529 224262.400
    7     6     1      0.1529 224262.400
    8     7     1      0.1529 224262.400
    9     8     1      0.1529 224262.400
   10     8     1      0.1529 224262.400
   11    10     1      0.1529 224262.400
   12    10     1      0.1522 265265.600
   13    12     1      0.1229 476976.000
   14    12     1      0.1327 179075.200
   15    14     1      0.1410 267776.000
   16    15     1      0.1529 224262.400
   17    15     1      0.1529 224262.400
   18    15     1      0.1529 224262.400
   19     5     1      0.1529 224262.400
   20    19     1      0.1529 224262.400
   21    19     1      0.1529 224262.400
   22     1     1      0.1090 284512.000
   23     1     1      0.1090 284512.000
   24     1     1      0.1090 284512.000
   25     5     1      0.1090 284512.000
   26     6     1      0.1090 284512.000
   27     6     1      0.1090 284512.000
   28     7     1      0.1090 284512.000
   29     7     1      0.1090 284512.000
   30     8     1      0.1090 284512.000
   31     9     1      0.1090 284512.000
   32     9     1      0.1090 284512.000
   33     9     1      0.1090 284512.000
   34    10     1      0.1090 284512.000
   35    11     1      0.1090 284512.000
   36    11     1      0.1090 284512.000
   37    11     1      0.1090 284512.000
   38    16     1      0.1090 284512.000
   39    16     1      0.1090 284512.000
   40    16     1      0.1090 284512.000
   41    17     1      0.1090 284512.000
   42    17     1      0.1090 284512.000
   43    17     1      0.1090 284512.000
   44    18     1      0.1090 284512.000
   45    18     1      0.1090 284512.000
   46    18     1      0.1090 284512.000
   47    19     1      0.1090 284512.000
   48    20     1      0.1090 284512.000
   49    20     1      0.1090 284512.000
   50    20     1      0.1090 284512.000
   51    21     1      0.1090 284512.000
   52    21     1      0.1090 284512.000
   53    21     1      0.1090 284512.000

[ angles ]
;  ai    aj    ak funct            c0            c1            c2            c3 
    1     2     3     1    116.900    694.544
    2     3     4     1    123.400    694.544
    2     3     5     1    111.400    677.808
    3     5     6     1    111.100    527.184
    5     6     7     1    112.700    488.273
    6     7     8     1    112.700    488.273
    7     8     9     1    112.700    488.273
    7     8    10     1    112.700    488.273
    8    10    11     1    112.700    488.273
    8    10    12     1    111.100    527.184
   10    12    13     1    120.400    669.440
   10    12    14     1    111.400    677.808
   12    14    15     1    116.900    694.544
   14    15    16     1    109.500    418.400
   14    15    17     1    109.500    418.400
   14    15    18     1    109.500    418.400
    3     5    19     1    111.100    527.184
    5    19    20     1    112.700    488.273
    5    19    21     1    112.700    488.273
    2     1    22     1    109.500    292.880
    2     1    23     1    109.500    292.880
    2     1    24     1    109.500    292.880
    3     5    25     1    109.500    292.880
    5     6    26     1    110.700    313.800
    5     6    27     1    110.700    313.800
    6     7    28     1    110.700    313.800
    6     7    29     1    110.700    313.800
    7     8    30     1    110.700    313.800
    8     9    31     1    110.700    313.800
    8     9    32     1    110.700    313.800
    8     9    33     1    110.700    313.800
    8    10    34     1    110.700    313.800
   10    11    35     1    110.700    313.800
   10    11    36     1    110.700    313.800
   10    11    37     1    110.700    313.800
   15    16    38     1    110.700    313.800
   15    16    39     1    110.700    313.800
   15    16    40     1    110.700    313.800
   15    17    41     1    110.700    313.800
   15    17    42     1    110.700    313.800
   15    17    43     1    110.700    313.800
   15    18    44     1    110.700    313.800
   15    18    45     1    110.700    313.800
   15    18    46     1    110.700    313.800
    5    19    47     1    110.700    313.800
   19    20    48     1    110.700    313.800
   19    20    49     1    110.700    313.800
   19    20    50     1    110.700    313.800
   19    21    51     1    110.700    313.800
   19    21    52     1    110.700    313.800
   19    21    53     1    110.700    313.800
   20    19    21     1    112.700    488.273
   13    12    14     1    123.400    694.544
   11    10    12     1    111.100    527.184
   41    17    43     1    107.800    276.144
   35    11    36     1    107.800    276.144
   31     9    33     1    107.800    276.144
   22     1    24     1    107.800    276.144
   49    20    50     1    107.800    276.144
   21    19    47     1    110.700    313.800
   42    17    43     1    107.800    276.144
    9     8    10     1    112.700    488.273
    6     5    19     1    112.700    488.273
   39    16    40     1    107.800    276.144
   45    18    46     1    107.800    276.144
   23     1    24     1    107.800    276.144
    4     3     5     1    120.400    669.440
    8     7    28     1    110.700    313.800
   28     7    29     1    107.800    276.144
    7     6    27     1    110.700    313.800
   48    20    50     1    107.800    276.144
   36    11    37     1    107.800    276.144
   44    18    45     1    107.800    276.144
   41    17    42     1    107.800    276.144
   11    10    34     1    110.700    313.800
   32     9    33     1    107.800    276.144
   16    15    18     1    112.700    488.273
   10     8    30     1    110.700    313.800
    9     8    30     1    110.700    313.800
   52    21    53     1    107.800    276.144
   20    19    47     1    110.700    313.800
   48    20    49     1    107.800    276.144
    8     7    29     1    110.700    313.800
   51    21    53     1    107.800    276.144
   38    16    40     1    107.800    276.144
    6     5    25     1    110.700    313.800
   31     9    32     1    107.800    276.144
   51    21    52     1    107.800    276.144
   35    11    37     1    107.800    276.144
   12    10    34     1    109.500    292.880
   22     1    23     1    107.800    276.144
    7     6    26     1    110.700    313.800
   26     6    27     1    107.800    276.144
   19     5    25     1    110.700    313.800
   44    18    46     1    107.800    276.144
   16    15    17     1    112.700    488.273
   38    16    39     1    107.800    276.144
   17    15    18     1    112.700    488.273

[ dihedrals ]
; IMPROPER DIHEDRAL ANGLES 
;  ai    aj    ak    al funct            c0            c1            c2            c3            c4            c5
     5     3     2     4    4        180.000     43.932     2  
    14    12    10    13    4        180.000     43.932     2  

[ dihedrals ]
; PROPER DIHEDRAL ANGLES
;  ai    aj    ak    al funct            c0            c1            c2            c3            c4            c5
   12   10    8    7        3      -4.960   6.286   1.310  -2.636  -0.000   0.000
   12   10    8    9        3      -4.960   6.286   1.310  -2.636  -0.000   0.000
    5    3    2    1        3      31.206  -9.768  -21.439  -0.000  -0.000   0.000
    6    5    3    4        3       0.000   0.000   0.000  -0.000  -0.000   0.000
   19    5    3    4        3       0.000   0.000   0.000  -0.000  -0.000   0.000
    6    5    3    2        3      -1.157  -3.471   0.000   4.628  -0.000   0.000
   19    5    3    2        3      -1.157  -3.471   0.000   4.628  -0.000   0.000
    7    6    5    3        3      -4.960   6.286   1.310  -2.636  -0.000   0.000
   21   19    5    3        3      -4.960   6.286   1.310  -2.636  -0.000   0.000
   20   19    5    3        3      -4.960   6.286   1.310  -2.636  -0.000   0.000
   10    8    7    6        3       2.301  -1.464   0.837  -1.674  -0.000   0.000
   21   19    5    6        3       2.301  -1.464   0.837  -1.674  -0.000   0.000
   20   19    5    6        3       2.301  -1.464   0.837  -1.674  -0.000   0.000
   11   10    8    9        3       2.301  -1.464   0.837  -1.674  -0.000   0.000
   11   10    8    7        3       2.301  -1.464   0.837  -1.674  -0.000   0.000
    9    8    7    6        3       2.301  -1.464   0.837  -1.674  -0.000   0.000
    8    7    6    5        3       2.301  -1.464   0.837  -1.674  -0.000   0.000
   19    5    6    7        3       2.301  -1.464   0.837  -1.674  -0.000   0.000
   18   15   14   12        3      -2.197   5.201   0.527  -3.531  -0.000   0.000
   17   15   14   12        3      -2.197   5.201   0.527  -3.531  -0.000   0.000
   16   15   14   12        3      -2.197   5.201   0.527  -3.531  -0.000   0.000
   15   14   12   10        3      31.206  -9.768  -21.439  -0.000  -0.000   0.000
   15   14   12   13        3      21.439   0.000  -21.439  -0.000  -0.000   0.000
   25    5    3    4        3       0.000   0.000   0.000  -0.000  -0.000   0.000
   34   10   12   13        3       0.000   0.000   0.000  -0.000  -0.000   0.000
   34   10   12   14        3       0.276   0.828   0.000  -1.105  -0.000   0.000
   25    5    3    2        3       0.276   0.828   0.000  -1.105  -0.000   0.000
   27    6    5    3        3      -0.209  -0.628   0.000   0.837  -0.000   0.000
   36   11   10   12        3      -0.209  -0.628   0.000   0.837  -0.000   0.000
   35   11   10   12        3      -0.209  -0.628   0.000   0.837  -0.000   0.000
   47   19    5    3        3      -0.209  -0.628   0.000   0.837  -0.000   0.000
   37   11   10   12        3      -0.209  -0.628   0.000   0.837  -0.000   0.000
   30    8   10   12        3      -0.209  -0.628   0.000   0.837  -0.000   0.000
   26    6    5    3        3      -0.209  -0.628   0.000   0.837  -0.000   0.000
   42   17   15   16        3       0.628   1.883   0.000  -2.510  -0.000   0.000
   32    9    8   10        3       0.628   1.883   0.000  -2.510  -0.000   0.000
   40   16   15   18        3       0.628   1.883   0.000  -2.510  -0.000   0.000
   44   18   15   16        3       0.628   1.883   0.000  -2.510  -0.000   0.000
   29    7    8   10        3       0.628   1.883   0.000  -2.510  -0.000   0.000
   38   16   15   17        3       0.628   1.883   0.000  -2.510  -0.000   0.000
   43   17   15   18        3       0.628   1.883   0.000  -2.510  -0.000   0.000
   29    7    8    9        3       0.628   1.883   0.000  -2.510  -0.000   0.000
   52   21   19    5        3       0.628   1.883   0.000  -2.510  -0.000   0.000
   52   21   19   20        3       0.628   1.883   0.000  -2.510  -0.000   0.000
   49   20   19    5        3       0.628   1.883   0.000  -2.510  -0.000   0.000
   41   17   15   16        3       0.628   1.883   0.000  -2.510  -0.000   0.000
   46   18   15   16        3       0.628   1.883   0.000  -2.510  -0.000   0.000
   34   10    8    7        3       0.628   1.883   0.000  -2.510  -0.000   0.000
   40   16   15   17        3       0.628   1.883   0.000  -2.510  -0.000   0.000
   33    9    8   10        3       0.628   1.883   0.000  -2.510  -0.000   0.000
   49   20   19   21        3       0.628   1.883   0.000  -2.510  -0.000   0.000
   48   20   19   21        3       0.628   1.883   0.000  -2.510  -0.000   0.000
   37   11   10    8        3       0.628   1.883   0.000  -2.510  -0.000   0.000
   50   20   19    5        3       0.628   1.883   0.000  -2.510  -0.000   0.000
   42   17   15   18        3       0.628   1.883   0.000  -2.510  -0.000   0.000
   38   16   15   18        3       0.628   1.883   0.000  -2.510  -0.000   0.000
   39   16   15   17        3       0.628   1.883   0.000  -2.510  -0.000   0.000
   29    7    6    5        3       0.628   1.883   0.000  -2.510  -0.000   0.000
   26    6    7    8        3       0.628   1.883   0.000  -2.510  -0.000   0.000
   25    5   19   21        3       0.628   1.883   0.000  -2.510  -0.000   0.000
   25    5   19   20        3       0.628   1.883   0.000  -2.510  -0.000   0.000
   31    9    8   10        3       0.628   1.883   0.000  -2.510  -0.000   0.000
   27    6    7    8        3       0.628   1.883   0.000  -2.510  -0.000   0.000
   32    9    8    7        3       0.628   1.883   0.000  -2.510  -0.000   0.000
   47   19    5    6        3       0.628   1.883   0.000  -2.510  -0.000   0.000
   36   11   10    8        3       0.628   1.883   0.000  -2.510  -0.000   0.000
   28    7    8   10        3       0.628   1.883   0.000  -2.510  -0.000   0.000
   34   10    8    9        3       0.628   1.883   0.000  -2.510  -0.000   0.000
   53   21   19    5        3       0.628   1.883   0.000  -2.510  -0.000   0.000
   43   17   15   16        3       0.628   1.883   0.000  -2.510  -0.000   0.000
   41   17   15   18        3       0.628   1.883   0.000  -2.510  -0.000   0.000
   39   16   15   18        3       0.628   1.883   0.000  -2.510  -0.000   0.000
   45   18   15   17        3       0.628   1.883   0.000  -2.510  -0.000   0.000
   50   20   19   21        3       0.628   1.883   0.000  -2.510  -0.000   0.000
   45   18   15   16        3       0.628   1.883   0.000  -2.510  -0.000   0.000
   51   21   19    5        3       0.628   1.883   0.000  -2.510  -0.000   0.000
   27    6    5   19        3       0.628   1.883   0.000  -2.510  -0.000   0.000
   28    7    8    9        3       0.628   1.883   0.000  -2.510  -0.000   0.000
   53   21   19   20        3       0.628   1.883   0.000  -2.510  -0.000   0.000
   25    5    6    7        3       0.628   1.883   0.000  -2.510  -0.000   0.000
   48   20   19    5        3       0.628   1.883   0.000  -2.510  -0.000   0.000
   33    9    8    7        3       0.628   1.883   0.000  -2.510  -0.000   0.000
   26    6    5   19        3       0.628   1.883   0.000  -2.510  -0.000   0.000
   31    9    8    7        3       0.628   1.883   0.000  -2.510  -0.000   0.000
   35   11   10    8        3       0.628   1.883   0.000  -2.510  -0.000   0.000
   44   18   15   17        3       0.628   1.883   0.000  -2.510  -0.000   0.000
   30    8    7    6        3       0.628   1.883   0.000  -2.510  -0.000   0.000
   30    8   10   11        3       0.628   1.883   0.000  -2.510  -0.000   0.000
   28    7    6    5        3       0.628   1.883   0.000  -2.510  -0.000   0.000
   46   18   15   17        3       0.628   1.883   0.000  -2.510  -0.000   0.000
   51   21   19   20        3       0.628   1.883   0.000  -2.510  -0.000   0.000
   50   20   19   47        3       0.628   1.883   0.000  -2.510  -0.000   0.000
   37   11   10   34        3       0.628   1.883   0.000  -2.510  -0.000   0.000
   47   19    5   25        3       0.628   1.883   0.000  -2.510  -0.000   0.000
   31    9    8   30        3       0.628   1.883   0.000  -2.510  -0.000   0.000
   36   11   10   34        3       0.628   1.883   0.000  -2.510  -0.000   0.000
   48   20   19   47        3       0.628   1.883   0.000  -2.510  -0.000   0.000
   30    8    7   29        3       0.628   1.883   0.000  -2.510  -0.000   0.000
   27    6    5   25        3       0.628   1.883   0.000  -2.510  -0.000   0.000
   28    7    6   27        3       0.628   1.883   0.000  -2.510  -0.000   0.000
   49   20   19   47        3       0.628   1.883   0.000  -2.510  -0.000   0.000
   29    7    6   26        3       0.628   1.883   0.000  -2.510  -0.000   0.000
   30    8    7   28        3       0.628   1.883   0.000  -2.510  -0.000   0.000
   33    9    8   30        3       0.628   1.883   0.000  -2.510  -0.000   0.000
   51   21   19   47        3       0.628   1.883   0.000  -2.510  -0.000   0.000
   26    6    5   25        3       0.628   1.883   0.000  -2.510  -0.000   0.000
   52   21   19   47        3       0.628   1.883   0.000  -2.510  -0.000   0.000
   34   10    8   30        3       0.628   1.883   0.000  -2.510  -0.000   0.000
   53   21   19   47        3       0.628   1.883   0.000  -2.510  -0.000   0.000
   29    7    6   27        3       0.628   1.883   0.000  -2.510  -0.000   0.000
   32    9    8   30        3       0.628   1.883   0.000  -2.510  -0.000   0.000
   35   11   10   34        3       0.628   1.883   0.000  -2.510  -0.000   0.000
   28    7    6   26        3       0.628   1.883   0.000  -2.510  -0.000   0.000
   46   18   15   14        3       0.979   2.937   0.000  -3.916  -0.000   0.000
   40   16   15   14        3       0.979   2.937   0.000  -3.916  -0.000   0.000
   44   18   15   14        3       0.979   2.937   0.000  -3.916  -0.000   0.000
   39   16   15   14        3       0.979   2.937   0.000  -3.916  -0.000   0.000
   38   16   15   14        3       0.979   2.937   0.000  -3.916  -0.000   0.000
   42   17   15   14        3       0.979   2.937   0.000  -3.916  -0.000   0.000
   41   17   15   14        3       0.979   2.937   0.000  -3.916  -0.000   0.000
   43   17   15   14        3       0.979   2.937   0.000  -3.916  -0.000   0.000
   45   18   15   14        3       0.979   2.937   0.000  -3.916  -0.000   0.000
   22    1    2    3        3       0.414   1.243   0.000  -1.657  -0.000   0.000
   24    1    2    3        3       0.414   1.243   0.000  -1.657  -0.000   0.000
   23    1    2    3        3       0.414   1.243   0.000  -1.657  -0.000   0.000
   13   12   10    8        3       0.000   0.000   0.000  -0.000  -0.000   0.000
   13   12   10   11        3       0.000   0.000   0.000  -0.000  -0.000   0.000
    4    3    2    1        3      21.439   0.000  -21.439  -0.000  -0.000   0.000
   14   12   10   11        3      -1.157  -3.471   0.000   4.628  -0.000   0.000
   14   12   10    8        3      -1.157  -3.471   0.000   4.628  -0.000   0.000

[ pairs ]
     1     4    1
     1     5    1
     2     6    1
     4     6    1
     3     7    1
     5     8    1
     6     9    1
     6    10    1
     7    11    1
     7    12    1
     9    11    1
     9    12    1
     8    13    1
     2    19    1
     8    14    1
     4    19    1
     3    20    1
    11    13    1
     3    21    1
    11    14    1
    10    15    1
     3    22    1
     7    19    1
     6    20    1
     3    23    1
     6    21    1
     3    24    1
     2    25    1
    13    15    1
    12    16    1
    12    17    1
     4    25    1
     3    26    1
    12    18    1
     3    27    1
     7    25    1
     5    28    1
     8    26    1
     5    29    1
     8    27    1
     6    30    1
     9    28    1
    10    28    1
     9    29    1
     7    31    1
    10    29    1
     7    32    1
     7    33    1
    11    30    1
    10    31    1
     7    34    1
    12    30    1
    10    32    1
    10    33    1
     9    34    1
     8    35    1
     8    36    1
    20    25    1
    19    26    1
     8    37    1
    21    25    1
    19    27    1
    13    34    1
    12    35    1
    14    34    1
    12    36    1
    12    37    1
     3    47    1
    25    26    1
    25    27    1
    14    38    1
    14    39    1
     6    47    1
     5    48    1
    26    28    1
    14    40    1
     5    49    1
    27    28    1
    26    29    1
    17    38    1
    14    41    1
     5    50    1
    27    29    1
    18    38    1
    17    39    1
    14    42    1
     5    51    1
    18    39    1
    17    40    1
    16    41    1
    14    43    1
     5    52    1
    28    30    1
    18    40    1
    16    42    1
    14    44    1
     5    53    1
    29    30    1
    18    41    1
    16    43    1
    14    45    1
    18    42    1
    16    44    1
    14    46    1
    30    31    1
    18    43    1
    17    44    1
    16    45    1
    30    32    1
    17    45    1
    16    46    1
    30    33    1
    17    46    1
    30    34    1
    34    35    1
    21    48    1
    34    36    1
    21    49    1
    34    37    1
    21    50    1
    20    51    1
    25    47    1
    20    52    1
    20    53    1
    47    48    1
    47    49    1
    47    50    1
    47    51    1
    47    52    1
    47    53    1

