LIGPARGEN GENERATED GRO FILE
   53
    1UNK    C00    1   0.100   0.100   0.000
    1UNK    O01    2  -0.043   0.100   0.000
    1UNK    C02    3  -0.098   0.100   0.125
    1UNK    O03    4  -0.035   0.100   0.229
    1UNK    C04    5  -0.251   0.100   0.114
    1UNK    C05    6  -0.298  -0.046   0.090
    1UNK    C06    7  -0.266  -0.139   0.208
    1UNK    C07    8  -0.319  -0.283   0.191
    1UNK    C08    9  -0.261  -0.351   0.067
    1UNK    C09   10  -0.292  -0.368   0.319
    1UNK    C0A   11  -0.143  -0.391   0.349
    1UNK    C0B   12  -0.357  -0.306   0.442
    1UNK    O0C   13  -0.294  -0.270   0.541
    1UNK    O0D   14  -0.492  -0.297   0.428
    1UNK    C0E   15  -0.571  -0.240   0.536
    1UNK    C0F   16  -0.536  -0.092   0.558
    1UNK    C0G   17  -0.717  -0.248   0.489
    1UNK    C0H   18  -0.557  -0.323   0.664
    1UNK    C0I   19  -0.315   0.170   0.237
    1UNK    C0J   20  -0.269   0.316   0.249
    1UNK    C0K   21  -0.468   0.167   0.232
    1UNK    H0M   22   0.134   0.070  -0.100
    1UNK    H0N   23   0.141   0.029   0.073
    1UNK    H0O   24   0.137   0.201   0.020
    1UNK    H0P   25  -0.277   0.159   0.026
    1UNK    H0Q   26  -0.248  -0.083  -0.000
    1UNK    H0R   27  -0.405  -0.048   0.070
    1UNK    H0S   28  -0.309  -0.097   0.299
    1UNK    H0T   29  -0.157  -0.142   0.222
    1UNK    H0U   30  -0.427  -0.277   0.177
    1UNK    H0V   31  -0.151  -0.348   0.066
    1UNK    H0W   32  -0.296  -0.303  -0.025
    1UNK    H0X   33  -0.292  -0.456   0.062
    1UNK    H0Y   34  -0.338  -0.467   0.306
    1UNK    H0Z   35  -0.091  -0.297   0.369
    1UNK    H10   36  -0.092  -0.441   0.266
    1UNK    H11   37  -0.131  -0.454   0.438
    1UNK    H12   38  -0.554  -0.034   0.466
    1UNK    H13   39  -0.431  -0.077   0.583
    1UNK    H14   40  -0.597  -0.049   0.638
    1UNK    H15   41  -0.732  -0.193   0.395
    1UNK    H16   42  -0.786  -0.207   0.564
    1UNK    H17   43  -0.746  -0.352   0.469
    1UNK    H18   44  -0.456  -0.320   0.705
    1UNK    H19   45  -0.579  -0.429   0.644
    1UNK    H1A   46  -0.625  -0.287   0.742
    1UNK    H1B   47  -0.283   0.119   0.329
    1UNK    H1C   48  -0.298   0.373   0.161
    1UNK    H1D   49  -0.161   0.323   0.261
    1UNK    H1E   50  -0.314   0.363   0.337
    1UNK    H1F   51  -0.506   0.213   0.141
    1UNK    H1G   52  -0.511   0.221   0.317
    1UNK    H1H   53  -0.507   0.064   0.236
   1.00000   1.00000   1.00000

