
;
; GENERATED BY LigParGen Server
; Jorgensen Lab @ Yale University 
;
[ atomtypes ]
  opls_818  H818     1.0080     0.000    A    2.50000E-01   1.25520E-01
  opls_811  C811    12.0110     0.000    A    3.30000E-01   2.76144E-01
  opls_824  H824     1.0080     0.000    A    2.50000E-01   1.25520E-01
  opls_805  C805    12.0110     0.000    A    3.50000E-01   2.76144E-01
  opls_833  H833     1.0080     0.000    A    2.50000E-01   1.25520E-01
  opls_828  H828     1.0080     0.000    A    2.50000E-01   1.25520E-01
  opls_813  H813     1.0080     0.000    A    2.50000E-01   1.25520E-01
  opls_832  H832     1.0080     0.000    A    2.50000E-01   1.25520E-01
  opls_802  C802    12.0110     0.000    A    3.50000E-01   2.76144E-01
  opls_815  H815     1.0080     0.000    A    2.50000E-01   1.25520E-01
  opls_809  C809    12.0110     0.000    A    3.50000E-01   2.76144E-01
  opls_830  H830     1.0080     0.000    A    2.50000E-01   1.25520E-01
  opls_822  H822     1.0080     0.000    A    2.50000E-01   1.25520E-01
  opls_803  C803    12.0110     0.000    A    3.50000E-01   2.76144E-01
  opls_825  H825     1.0080     0.000    A    2.50000E-01   1.25520E-01
  opls_814  H814     1.0080     0.000    A    2.50000E-01   1.25520E-01
  opls_810  C810    12.0110     0.000    A    3.50000E-01   2.76144E-01
  opls_820  H820     1.0080     0.000    A    2.50000E-01   1.25520E-01
  opls_821  H821     1.0080     0.000    A    2.50000E-01   1.25520E-01
  opls_834  H834     1.0080     0.000    A    2.50000E-01   1.25520E-01
  opls_831  H831     1.0080     0.000    A    2.50000E-01   1.25520E-01
  opls_812  N812    14.0070     0.000    A    3.20000E-01   7.11280E-01
  opls_816  H816     1.0080     0.000    A    2.50000E-01   1.25520E-01
  opls_800  C800    12.0110     0.000    A    3.50000E-01   2.76144E-01
  opls_806  C806    12.0110     0.000    A    3.50000E-01   2.76144E-01
  opls_823  H823     1.0080     0.000    A    2.50000E-01   1.25520E-01
  opls_826  H826     1.0080     0.000    A    2.50000E-01   1.25520E-01
  opls_835  H835     1.0080     0.000    A    2.50000E-01   1.25520E-01
  opls_819  H819     1.0080     0.000    A    2.50000E-01   1.25520E-01
  opls_804  C804    12.0110     0.000    A    3.50000E-01   2.76144E-01
  opls_827  H827     1.0080     0.000    A    2.50000E-01   1.25520E-01
  opls_801  C801    12.0110     0.000    A    3.50000E-01   2.76144E-01
  opls_808  C808    12.0110     0.000    A    3.50000E-01   2.76144E-01
  opls_817  H817     1.0080     0.000    A    2.50000E-01   1.25520E-01
  opls_829  H829     1.0080     0.000    A    2.50000E-01   1.25520E-01
  opls_807  C807    12.0110     0.000    A    3.50000E-01   2.76144E-01
[ moleculetype ]
; Name               nrexcl
UNK                   3
[ atoms ]
;   nr       type  resnr residue  atom   cgnr     charge       mass  
     1   opls_800      1    UNK   C00      1    -0.2394    12.0110 
     2   opls_801      1    UNK   C01      1    -0.1797    12.0110 
     3   opls_802      1    UNK   C02      1    -0.1787    12.0110 
     4   opls_803      1    UNK   C03      1     -0.167    12.0110 
     5   opls_804      1    UNK   C04      1    -0.0443    12.0110 
     6   opls_805      1    UNK   C05      1    -0.2314    12.0110 
     7   opls_806      1    UNK   C06      1    -0.2314    12.0110 
     8   opls_807      1    UNK   C07      1    -0.1719    12.0110 
     9   opls_808      1    UNK   C08      1    -0.1719    12.0110 
    10   opls_809      1    UNK   C09      1    -0.0063    12.0110 
    11   opls_810      1    UNK   C0A      1    -0.2382    12.0110 
    12   opls_811      1    UNK   C0B      1     0.1636    12.0110 
    13   opls_812      1    UNK   N0C      1    -0.3923    14.0070 
    14   opls_813      1    UNK   H0D      1     0.0811     1.0080 
    15   opls_814      1    UNK   H0E      1     0.0811     1.0080 
    16   opls_815      1    UNK   H0F      1     0.0811     1.0080 
    17   opls_816      1    UNK   H0G      1     0.0893     1.0080 
    18   opls_817      1    UNK   H0H      1     0.0893     1.0080 
    19   opls_818      1    UNK   H0I      1     0.0902     1.0080 
    20   opls_819      1    UNK   H0J      1     0.0902     1.0080 
    21   opls_820      1    UNK   H0K      1     0.0892     1.0080 
    22   opls_821      1    UNK   H0M      1     0.0892     1.0080 
    23   opls_822      1    UNK   H0N      1     0.0818     1.0080 
    24   opls_823      1    UNK   H0O      1     0.0818     1.0080 
    25   opls_824      1    UNK   H0P      1     0.0818     1.0080 
    26   opls_825      1    UNK   H0Q      1     0.0833     1.0080 
    27   opls_826      1    UNK   H0R      1     0.0833     1.0080 
    28   opls_827      1    UNK   H0S      1     0.0833     1.0080 
    29   opls_828      1    UNK   H0T      1     0.0934     1.0080 
    30   opls_829      1    UNK   H0U      1     0.0934     1.0080 
    31   opls_830      1    UNK   H0V      1     0.1028     1.0080 
    32   opls_831      1    UNK   H0W      1     0.1028     1.0080 
    33   opls_832      1    UNK   H0X      2     0.1333     1.0080 
    34   opls_833      1    UNK   H0Y      2     0.0958     1.0080 
    35   opls_834      1    UNK   H0Z      2     0.0958     1.0080 
    36   opls_835      1    UNK   H10      2     0.0958     1.0080 
[ bonds ]
    2     1     1      0.1529 224262.400
    3     2     1      0.1529 224262.400
    4     3     1      0.1529 224262.400
    5     4     1      0.1529 224262.400
    6     5     1      0.1529 224262.400
    7     5     1      0.1529 224262.400
    8     5     1      0.1529 224262.400
    9     8     1      0.1529 224262.400
   10     9     1      0.1529 224262.400
   11    10     1      0.1529 224262.400
   12    10     1      0.1470 326352.000
   13    12     1      0.1157 543920.000
   14     1     1      0.1090 284512.000
   15     1     1      0.1090 284512.000
   16     1     1      0.1090 284512.000
   17     2     1      0.1090 284512.000
   18     2     1      0.1090 284512.000
   19     3     1      0.1090 284512.000
   20     3     1      0.1090 284512.000
   21     4     1      0.1090 284512.000
   22     4     1      0.1090 284512.000
   23     6     1      0.1090 284512.000
   24     6     1      0.1090 284512.000
   25     6     1      0.1090 284512.000
   26     7     1      0.1090 284512.000
   27     7     1      0.1090 284512.000
   28     7     1      0.1090 284512.000
   29     8     1      0.1090 284512.000
   30     8     1      0.1090 284512.000
   31     9     1      0.1090 284512.000
   32     9     1      0.1090 284512.000
   33    10     1      0.1090 284512.000
   34    11     1      0.1090 284512.000
   35    11     1      0.1090 284512.000
   36    11     1      0.1090 284512.000

[ angles ]
;  ai    aj    ak funct            c0            c1            c2            c3 
    1     2     3     1    112.700    488.273
    2     3     4     1    112.700    488.273
    3     4     5     1    112.700    488.273
    4     5     6     1    112.700    488.273
    4     5     7     1    112.700    488.273
    4     5     8     1    112.700    488.273
    5     8     9     1    112.700    488.273
    8     9    10     1    112.700    488.273
    9    10    11     1    112.700    488.273
    9    10    12     1    112.700    488.273
   10    12    13     1    180.000   1255.200
    2     1    14     1    110.700    313.800
    2     1    15     1    110.700    313.800
    2     1    16     1    110.700    313.800
    1     2    17     1    110.700    313.800
    1     2    18     1    110.700    313.800
    2     3    19     1    110.700    313.800
    2     3    20     1    110.700    313.800
    3     4    21     1    110.700    313.800
    3     4    22     1    110.700    313.800
    5     6    23     1    110.700    313.800
    5     6    24     1    110.700    313.800
    5     6    25     1    110.700    313.800
    5     7    26     1    110.700    313.800
    5     7    27     1    110.700    313.800
    5     7    28     1    110.700    313.800
    5     8    29     1    110.700    313.800
    5     8    30     1    110.700    313.800
    8     9    31     1    110.700    313.800
    8     9    32     1    110.700    313.800
    9    10    33     1    110.700    313.800
   10    11    34     1    110.700    313.800
   10    11    35     1    110.700    313.800
   10    11    36     1    110.700    313.800
   34    11    36     1    107.800    276.144
   10     9    32     1    110.700    313.800
   23     6    24     1    107.800    276.144
    9     8    30     1    110.700    313.800
    3     2    18     1    110.700    313.800
   27     7    28     1    107.800    276.144
   11    10    12     1    112.700    488.273
    9     8    29     1    110.700    313.800
   26     7    28     1    107.800    276.144
    3     2    17     1    110.700    313.800
    4     3    19     1    110.700    313.800
   21     4    22     1    107.800    276.144
   15     1    16     1    107.800    276.144
    5     4    22     1    110.700    313.800
    6     5     7     1    112.700    488.273
   12    10    33     1    108.500    292.880
   14     1    15     1    107.800    276.144
   10     9    31     1    110.700    313.800
   17     2    18     1    107.800    276.144
   26     7    27     1    107.800    276.144
   34    11    35     1    107.800    276.144
    6     5     8     1    112.700    488.273
   24     6    25     1    107.800    276.144
    7     5     8     1    112.700    488.273
   31     9    32     1    107.800    276.144
   19     3    20     1    107.800    276.144
   14     1    16     1    107.800    276.144
    5     4    21     1    110.700    313.800
   23     6    25     1    107.800    276.144
    4     3    20     1    110.700    313.800
   35    11    36     1    107.800    276.144
   11    10    33     1    110.700    313.800
   29     8    30     1    107.800    276.144

[ dihedrals ]
; IMPROPER DIHEDRAL ANGLES 
;  ai    aj    ak    al funct            c0            c1            c2            c3            c4            c5

[ dihedrals ]
; PROPER DIHEDRAL ANGLES
;  ai    aj    ak    al funct            c0            c1            c2            c3            c4            c5
    4    3    2    1        3       2.301  -1.464   0.837  -1.674  -0.000   0.000
    9    8    5    6        3       2.301  -1.464   0.837  -1.674  -0.000   0.000
    9    8    5    7        3       2.301  -1.464   0.837  -1.674  -0.000   0.000
    7    5    4    3        3       2.301  -1.464   0.837  -1.674  -0.000   0.000
   11   10    9    8        3       2.301  -1.464   0.837  -1.674  -0.000   0.000
   10    9    8    5        3       2.301  -1.464   0.837  -1.674  -0.000   0.000
    8    5    4    3        3       2.301  -1.464   0.837  -1.674  -0.000   0.000
    6    5    4    3        3       2.301  -1.464   0.837  -1.674  -0.000   0.000
    5    4    3    2        3       2.301  -1.464   0.837  -1.674  -0.000   0.000
    9    8    5    4        3       2.301  -1.464   0.837  -1.674  -0.000   0.000
   12   10    9    8        3      -2.720   0.000   2.720  -0.000  -0.000   0.000
   27    7    5    8        3       0.628   1.883   0.000  -2.510  -0.000   0.000
   21    4    5    7        3       0.628   1.883   0.000  -2.510  -0.000   0.000
   31    9   10   11        3       0.628   1.883   0.000  -2.510  -0.000   0.000
   21    4    3    2        3       0.628   1.883   0.000  -2.510  -0.000   0.000
   20    3    4    5        3       0.628   1.883   0.000  -2.510  -0.000   0.000
   29    8    5    4        3       0.628   1.883   0.000  -2.510  -0.000   0.000
   32    9    8    5        3       0.628   1.883   0.000  -2.510  -0.000   0.000
   29    8    5    7        3       0.628   1.883   0.000  -2.510  -0.000   0.000
   30    8    5    6        3       0.628   1.883   0.000  -2.510  -0.000   0.000
   29    8    9   10        3       0.628   1.883   0.000  -2.510  -0.000   0.000
   20    3    2    1        3       0.628   1.883   0.000  -2.510  -0.000   0.000
   22    4    5    7        3       0.628   1.883   0.000  -2.510  -0.000   0.000
   35   11   10    9        3       0.628   1.883   0.000  -2.510  -0.000   0.000
   17    2    3    4        3       0.628   1.883   0.000  -2.510  -0.000   0.000
   22    4    3    2        3       0.628   1.883   0.000  -2.510  -0.000   0.000
   24    6    5    4        3       0.628   1.883   0.000  -2.510  -0.000   0.000
   33   10    9    8        3       0.628   1.883   0.000  -2.510  -0.000   0.000
   30    8    5    7        3       0.628   1.883   0.000  -2.510  -0.000   0.000
   25    6    5    8        3       0.628   1.883   0.000  -2.510  -0.000   0.000
   16    1    2    3        3       0.628   1.883   0.000  -2.510  -0.000   0.000
   28    7    5    6        3       0.628   1.883   0.000  -2.510  -0.000   0.000
   26    7    5    8        3       0.628   1.883   0.000  -2.510  -0.000   0.000
   22    4    5    6        3       0.628   1.883   0.000  -2.510  -0.000   0.000
   18    2    3    4        3       0.628   1.883   0.000  -2.510  -0.000   0.000
   36   11   10    9        3       0.628   1.883   0.000  -2.510  -0.000   0.000
   15    1    2    3        3       0.628   1.883   0.000  -2.510  -0.000   0.000
   19    3    4    5        3       0.628   1.883   0.000  -2.510  -0.000   0.000
   23    6    5    8        3       0.628   1.883   0.000  -2.510  -0.000   0.000
   30    8    5    4        3       0.628   1.883   0.000  -2.510  -0.000   0.000
   28    7    5    8        3       0.628   1.883   0.000  -2.510  -0.000   0.000
   23    6    5    7        3       0.628   1.883   0.000  -2.510  -0.000   0.000
   27    7    5    6        3       0.628   1.883   0.000  -2.510  -0.000   0.000
   25    6    5    4        3       0.628   1.883   0.000  -2.510  -0.000   0.000
   22    4    5    8        3       0.628   1.883   0.000  -2.510  -0.000   0.000
   21    4    5    6        3       0.628   1.883   0.000  -2.510  -0.000   0.000
   31    9    8    5        3       0.628   1.883   0.000  -2.510  -0.000   0.000
   19    3    2    1        3       0.628   1.883   0.000  -2.510  -0.000   0.000
   28    7    5    4        3       0.628   1.883   0.000  -2.510  -0.000   0.000
   21    4    5    8        3       0.628   1.883   0.000  -2.510  -0.000   0.000
   26    7    5    6        3       0.628   1.883   0.000  -2.510  -0.000   0.000
   34   11   10    9        3       0.628   1.883   0.000  -2.510  -0.000   0.000
   26    7    5    4        3       0.628   1.883   0.000  -2.510  -0.000   0.000
   23    6    5    4        3       0.628   1.883   0.000  -2.510  -0.000   0.000
   14    1    2    3        3       0.628   1.883   0.000  -2.510  -0.000   0.000
   27    7    5    4        3       0.628   1.883   0.000  -2.510  -0.000   0.000
   32    9   10   11        3       0.628   1.883   0.000  -2.510  -0.000   0.000
   29    8    5    6        3       0.628   1.883   0.000  -2.510  -0.000   0.000
   30    8    9   10        3       0.628   1.883   0.000  -2.510  -0.000   0.000
   24    6    5    7        3       0.628   1.883   0.000  -2.510  -0.000   0.000
   25    6    5    7        3       0.628   1.883   0.000  -2.510  -0.000   0.000
   24    6    5    8        3       0.628   1.883   0.000  -2.510  -0.000   0.000
   31    9   10   12        3       0.766   2.297   0.000  -3.063  -0.000   0.000
   36   11   10   12        3       0.766   2.297   0.000  -3.063  -0.000   0.000
   34   11   10   12        3       0.766   2.297   0.000  -3.063  -0.000   0.000
   32    9   10   12        3       0.766   2.297   0.000  -3.063  -0.000   0.000
   35   11   10   12        3       0.766   2.297   0.000  -3.063  -0.000   0.000
   34   11   10   33        3       0.628   1.883   0.000  -2.510  -0.000   0.000
   17    2    1   14        3       0.628   1.883   0.000  -2.510  -0.000   0.000
   32    9    8   29        3       0.628   1.883   0.000  -2.510  -0.000   0.000
   31    9    8   30        3       0.628   1.883   0.000  -2.510  -0.000   0.000
   17    2    1   16        3       0.628   1.883   0.000  -2.510  -0.000   0.000
   18    2    1   15        3       0.628   1.883   0.000  -2.510  -0.000   0.000
   32    9    8   30        3       0.628   1.883   0.000  -2.510  -0.000   0.000
   18    2    1   16        3       0.628   1.883   0.000  -2.510  -0.000   0.000
   36   11   10   33        3       0.628   1.883   0.000  -2.510  -0.000   0.000
   19    3    2   17        3       0.628   1.883   0.000  -2.510  -0.000   0.000
   33   10    9   31        3       0.628   1.883   0.000  -2.510  -0.000   0.000
   19    3    2   18        3       0.628   1.883   0.000  -2.510  -0.000   0.000
   33   10    9   32        3       0.628   1.883   0.000  -2.510  -0.000   0.000
   31    9    8   29        3       0.628   1.883   0.000  -2.510  -0.000   0.000
   35   11   10   33        3       0.628   1.883   0.000  -2.510  -0.000   0.000
   17    2    1   15        3       0.628   1.883   0.000  -2.510  -0.000   0.000
   20    3    2   17        3       0.628   1.883   0.000  -2.510  -0.000   0.000
   18    2    1   14        3       0.628   1.883   0.000  -2.510  -0.000   0.000
   20    3    2   18        3       0.628   1.883   0.000  -2.510  -0.000   0.000
   21    4    3   19        3       0.628   1.883   0.000  -2.510  -0.000   0.000
   21    4    3   20        3       0.628   1.883   0.000  -2.510  -0.000   0.000
   22    4    3   19        3       0.628   1.883   0.000  -2.510  -0.000   0.000
   22    4    3   20        3       0.628   1.883   0.000  -2.510  -0.000   0.000
   33   10   12   13        3       0.000   0.000   0.000  -0.000  -0.000   0.000
   13   12   10   11        3       0.000   0.000   0.000  -0.000  -0.000   0.000
   13   12   10    9        3       0.000   0.000   0.000  -0.000  -0.000   0.000

[ pairs ]
     1     4    1
     2     5    1
     3     6    1
     3     7    1
     3     8    1
     4     9    1
     6     9    1
     5    10    1
     7     9    1
     3    14    1
     3    15    1
     8    11    1
     3    16    1
     8    12    1
     1    19    1
     4    17    1
     1    20    1
     9    13    1
     4    18    1
     2    21    1
    11    13    1
     5    19    1
     2    22    1
     5    20    1
     6    21    1
     4    23    1
     7    21    1
     6    22    1
     4    24    1
     8    21    1
     7    22    1
     4    25    1
     8    22    1
     7    23    1
     4    26    1
    14    17    1
     8    23    1
     7    24    1
     4    27    1
    15    17    1
    14    18    1
     8    24    1
     7    25    1
     6    26    1
     4    28    1
    16    17    1
    15    18    1
     8    25    1
     6    27    1
     4    29    1
    16    18    1
     8    26    1
     6    28    1
     4    30    1
     8    27    1
     6    29    1
    17    19    1
     8    28    1
     7    29    1
     6    30    1
     5    31    1
    18    19    1
    17    20    1
     7    30    1
     5    32    1
    18    20    1
    10    29    1
    19    21    1
    10    30    1
    20    21    1
    19    22    1
     8    33    1
    20    22    1
    11    31    1
    12    31    1
    11    32    1
     9    34    1
    12    32    1
     9    35    1
     9    36    1
    13    33    1
    12    34    1
    12    35    1
    12    36    1
    29    31    1
    30    31    1
    29    32    1
    30    32    1
    31    33    1
    32    33    1
    33    34    1
    33    35    1
    33    36    1

