LIGPARGEN GENERATED GRO FILE
   36
    1UNK    C00    1   0.100   0.100   0.000
    1UNK    C01    2  -0.052   0.100   0.000
    1UNK    C02    3  -0.105   0.100   0.144
    1UNK    C03    4  -0.258   0.100   0.151
    1UNK    C04    5  -0.317   0.100   0.296
    1UNK    C05    6  -0.269  -0.025   0.373
    1UNK    C06    7  -0.271   0.226   0.371
    1UNK    C07    8  -0.473   0.099   0.284
    1UNK    C08    9  -0.549   0.099   0.418
    1UNK    C09   10  -0.703   0.098   0.402
    1UNK    C0A   11  -0.768   0.087   0.540
    1UNK    C0B   12  -0.750   0.220   0.335
    1UNK    N0C   13  -0.788   0.316   0.282
    1UNK    H0D   14   0.139   0.100  -0.102
    1UNK    H0E   15   0.139   0.011   0.051
    1UNK    H0F   16   0.139   0.189   0.051
    1UNK    H0G   17  -0.089   0.012  -0.054
    1UNK    H0H   18  -0.089   0.189  -0.054
    1UNK    H0I   19  -0.065   0.188   0.194
    1UNK    H0J   20  -0.065   0.012   0.195
    1UNK    H0K   21  -0.296   0.012   0.097
    1UNK    H0M   22  -0.296   0.188   0.097
    1UNK    H0N   23  -0.160  -0.027   0.383
    1UNK    H0O   24  -0.300  -0.117   0.321
    1UNK    H0P   25  -0.309  -0.028   0.474
    1UNK    H0Q   26  -0.162   0.231   0.380
    1UNK    H0R   27  -0.309   0.229   0.474
    1UNK    H0S   28  -0.304   0.317   0.320
    1UNK    H0T   29  -0.504   0.010   0.227
    1UNK    H0U   30  -0.503   0.186   0.225
    1UNK    H0V   31  -0.521   0.187   0.477
    1UNK    H0W   32  -0.521   0.010   0.476
    1UNK    H0X   33  -0.732   0.010   0.343
    1UNK    H0Y   34  -0.739   0.170   0.605
    1UNK    H0Z   35  -0.740  -0.007   0.589
    1UNK    H10   36  -0.878   0.089   0.532
   1.00000   1.00000   1.00000

