LIGPARGEN GENERATED GRO FILE
   25
    1UNK    C00    1   0.100   0.100   0.000
    1UNK    C01    2  -0.053   0.100   0.000
    1UNK    C02    3  -0.114   0.100   0.141
    1UNK    C03    4  -0.270   0.100   0.146
    1UNK    C04    5  -0.325  -0.025   0.074
    1UNK    C05    6  -0.321   0.098   0.292
    1UNK    C06    7  -0.326   0.226   0.079
    1UNK    O07    8  -0.060  -0.009   0.220
    1UNK    O08    9   0.004   0.087   0.313
    1UNK    C09   10  -0.044   0.192   0.242
    1UNK    O0A   11  -0.030   0.311   0.262
    1UNK    H0B   12   0.137   0.085  -0.102
    1UNK    H0C   13   0.141   0.020   0.062
    1UNK    H0D   14   0.139   0.196   0.036
    1UNK    H0E   15  -0.086   0.012  -0.055
    1UNK    H0F   16  -0.086   0.188  -0.056
    1UNK    H0G   17  -0.274  -0.116   0.106
    1UNK    H0H   18  -0.314  -0.016  -0.035
    1UNK    H0I   19  -0.432  -0.038   0.094
    1UNK    H0J   20  -0.282   0.011   0.347
    1UNK    H0K   21  -0.430   0.092   0.296
    1UNK    H0M   22  -0.291   0.188   0.346
    1UNK    H0N   23  -0.301   0.231  -0.028
    1UNK    H0O   24  -0.287   0.317   0.126
    1UNK    H0P   25  -0.436   0.229   0.086
   1.00000   1.00000   1.00000

