LIGPARGEN GENERATED GRO FILE
   29
    1UNK    C00    1   0.100   0.100   0.000
    1UNK    C01    2  -0.053   0.100   0.000
    1UNK    C02    3  -0.102   0.100   0.146
    1UNK    C03    4  -0.117   0.214  -0.084
    1UNK    C04    5  -0.071   0.213  -0.230
    1UNK    C05    6  -0.273   0.223  -0.079
    1UNK    C06    7  -0.357   0.107  -0.139
    1UNK    C07    8  -0.345  -0.027  -0.067
    1UNK    C08    9  -0.431  -0.137  -0.121
    1UNK    O09   10  -0.516  -0.124  -0.208
    1UNK    C0A   11  -0.406  -0.268  -0.060
    1UNK    N0B   12  -0.382  -0.370  -0.009
    1UNK    H0C   13   0.137   0.017   0.061
    1UNK    H0D   14   0.141   0.193   0.040
    1UNK    H0E   15   0.140   0.084  -0.101
    1UNK    H0F   16  -0.078   0.004  -0.046
    1UNK    H0G   17  -0.069   0.190   0.198
    1UNK    H0H   18  -0.062   0.013   0.199
    1UNK    H0I   19  -0.211   0.094   0.153
    1UNK    H0J   20  -0.080   0.309  -0.041
    1UNK    H0K   21  -0.104   0.122  -0.282
    1UNK    H0M   22   0.038   0.219  -0.239
    1UNK    H0N   23  -0.112   0.300  -0.284
    1UNK    H0O   24  -0.302   0.314  -0.133
    1UNK    H0P   25  -0.305   0.241   0.024
    1UNK    H0Q   26  -0.332   0.095  -0.246
    1UNK    H0R   27  -0.462   0.139  -0.137
    1UNK    H0S   28  -0.370  -0.014   0.039
    1UNK    H0T   29  -0.244  -0.065  -0.076
   1.00000   1.00000   1.00000

