
;
; GENERATED BY LigParGen Server
; Jorgensen Lab @ Yale University 
;
[ atomtypes ]
  opls_818  H818     1.0080     0.000    A    2.50000E-01   1.25520E-01
  opls_824  H824     1.0080     0.000    A    2.50000E-01   1.25520E-01
  opls_805  C805    12.0110     0.000    A    3.50000E-01   2.76144E-01
  opls_813  H813     1.0080     0.000    A    2.50000E-01   1.25520E-01
  opls_806  C806    12.0110     0.000    A    3.50000E-01   2.76144E-01
  opls_815  H815     1.0080     0.000    A    2.50000E-01   1.25520E-01
  opls_801  C801    12.0110     0.000    A    3.50000E-01   2.76144E-01
  opls_822  H822     1.0080     0.000    A    2.50000E-01   1.25520E-01
  opls_803  C803    12.0110     0.000    A    3.50000E-01   2.76144E-01
  opls_814  H814     1.0080     0.000    A    2.50000E-01   1.25520E-01
  opls_810  O810    15.9990     0.000    A    2.96000E-01   8.78640E-01
  opls_821  H821     1.0080     0.000    A    2.50000E-01   1.25520E-01
  opls_820  H820     1.0080     0.000    A    2.50000E-01   1.25520E-01
  opls_811  H811     1.0080     0.000    A    2.50000E-01   1.25520E-01
  opls_816  H816     1.0080     0.000    A    2.50000E-01   1.25520E-01
  opls_800  C800    12.0110     0.000    A    3.50000E-01   2.76144E-01
  opls_823  H823     1.0080     0.000    A    2.50000E-01   1.25520E-01
  opls_808  O808    15.9990     0.000    A    2.90000E-01   5.85760E-01
  opls_802  C802    12.0110     0.000    A    3.45000E-01   3.47272E-01
  opls_809  C809    12.0110     0.000    A    3.75000E-01   4.39320E-01
  opls_819  H819     1.0080     0.000    A    2.50000E-01   1.25520E-01
  opls_804  C804    12.0110     0.000    A    3.50000E-01   2.76144E-01
  opls_807  O807    15.9990     0.000    A    2.90000E-01   5.85760E-01
  opls_817  H817     1.0080     0.000    A    2.50000E-01   1.25520E-01
  opls_812  H812     1.0080     0.000    A    2.50000E-01   1.25520E-01
[ moleculetype ]
; Name               nrexcl
UNK                   3
[ atoms ]
;   nr       type  resnr residue  atom   cgnr     charge       mass  
     1   opls_800      1    UNK   C00      1    -0.2546    12.0110 
     2   opls_801      1    UNK   C01      1    -0.1775    12.0110 
     3   opls_802      1    UNK   C02      1     0.0465    12.0110 
     4   opls_803      1    UNK   C03      1    -0.0418    12.0110 
     5   opls_804      1    UNK   C04      1    -0.2336    12.0110 
     6   opls_805      1    UNK   C05      1    -0.2449    12.0110 
     7   opls_806      1    UNK   C06      1     -0.238    12.0110 
     8   opls_807      1    UNK   O07      1    -0.1474    15.9990 
     9   opls_808      1    UNK   O08      1    -0.1562    15.9990 
    10   opls_809      1    UNK   C09      1     0.4252    12.0110 
    11   opls_810      1    UNK   O0A      1    -0.3563    15.9990 
    12   opls_811      1    UNK   H0B      1      0.097     1.0080 
    13   opls_812      1    UNK   H0C      1      0.097     1.0080 
    14   opls_813      1    UNK   H0D      1      0.097     1.0080 
    15   opls_814      1    UNK   H0E      1     0.1183     1.0080 
    16   opls_815      1    UNK   H0F      1     0.1183     1.0080 
    17   opls_816      1    UNK   H0G      1     0.0925     1.0080 
    18   opls_817      1    UNK   H0H      1     0.0925     1.0080 
    19   opls_818      1    UNK   H0I      1     0.0925     1.0080 
    20   opls_819      1    UNK   H0J      1     0.0969     1.0080 
    21   opls_820      1    UNK   H0K      1     0.0969     1.0080 
    22   opls_821      1    UNK   H0M      1     0.0969     1.0080 
    23   opls_822      1    UNK   H0N      1     0.0942     1.0080 
    24   opls_823      1    UNK   H0O      1     0.0942     1.0080 
    25   opls_824      1    UNK   H0P      1     0.0942     1.0080 
[ bonds ]
    2     1     1      0.1529 224262.400
    3     2     1      0.1510 234304.000
    4     3     1      0.1510 234304.000
    5     4     1      0.1529 224262.400
    6     4     1      0.1529 224262.400
    7     4     1      0.1529 224262.400
    8     3     1      0.1410 267776.000
    9     8     1      0.1470 209200.000
   10     3     1      0.1522 265265.600
   11    10     1      0.1229 476976.000
   12     1     1      0.1090 284512.000
   13     1     1      0.1090 284512.000
   14     1     1      0.1090 284512.000
   15     2     1      0.1090 284512.000
   16     2     1      0.1090 284512.000
   17     5     1      0.1090 284512.000
   18     5     1      0.1090 284512.000
   19     5     1      0.1090 284512.000
   20     6     1      0.1090 284512.000
   21     6     1      0.1090 284512.000
   22     6     1      0.1090 284512.000
   23     7     1      0.1090 284512.000
   24     7     1      0.1090 284512.000
   25     7     1      0.1090 284512.000
   10     9     1      0.1327 179075.200

[ angles ]
;  ai    aj    ak funct            c0            c1            c2            c3 
    1     2     3     1    112.700    488.273
    2     3     4     1    114.300    292.880
    3     4     5     1    112.700    488.273
    3     4     6     1    112.700    488.273
    3     4     7     1    112.700    488.273
    2     3     8     1    117.200    313.800
    3     8     9     1     90.000    502.080
    2     3    10     1    111.100    527.184
    3    10    11     1    134.000    669.440
    2     1    12     1    110.700    313.800
    2     1    13     1    110.700    313.800
    2     1    14     1    110.700    313.800
    1     2    15     1    110.700    313.800
    1     2    16     1    110.700    313.800
    4     5    17     1    110.700    313.800
    4     5    18     1    110.700    313.800
    4     5    19     1    110.700    313.800
    4     6    20     1    110.700    313.800
    4     6    21     1    110.700    313.800
    4     6    22     1    110.700    313.800
    4     7    23     1    110.700    313.800
    4     7    24     1    110.700    313.800
    4     7    25     1    110.700    313.800
    5     4     6     1    112.700    488.273
   17     5    18     1    107.800    276.144
   21     6    22     1    107.800    276.144
   13     1    14     1    107.800    276.144
    8     3    10     1    109.500    418.400
   15     2    16     1    107.800    276.144
   20     6    21     1    107.800    276.144
    5     4     7     1    112.700    488.273
   12     1    13     1    107.800    276.144
    3     2    15     1    110.700    313.800
   20     6    22     1    107.800    276.144
    6     4     7     1    112.700    488.273
    4     3     8     1    117.200    313.800
   23     7    24     1    107.800    276.144
   24     7    25     1    107.800    276.144
    4     3    10     1    111.100    527.184
    3     2    16     1    110.700    313.800
   12     1    14     1    107.800    276.144
   23     7    25     1    107.800    276.144
    9    10    11     1    123.400    694.544
    3    10     9     1    111.400    677.808
   18     5    19     1    107.800    276.144
    8     9    10     1     90.000    502.080
   17     5    19     1    107.800    276.144

[ dihedrals ]
; IMPROPER DIHEDRAL ANGLES 
;  ai    aj    ak    al funct            c0            c1            c2            c3            c4            c5
    10     9     8     3    4          0.000      4.812     1  
    10     9     8     3    4        180.000     12.738     2  
    11    10     3     9    4        180.000     10.460     2  

[ dihedrals ]
; PROPER DIHEDRAL ANGLES
;  ai    aj    ak    al funct            c0            c1            c2            c3            c4            c5
   10    3    4    7        3       2.301  -1.464   0.837  -1.674  -0.000   0.000
   10    3    4    5        3       2.301  -1.464   0.837  -1.674  -0.000   0.000
   10    3    2    1        3       2.301  -1.464   0.837  -1.674  -0.000   0.000
   10    3    4    6        3       2.301  -1.464   0.837  -1.674  -0.000   0.000
    7    4    3    2        3       2.301  -1.464   0.837  -1.674  -0.000   0.000
    5    4    3    2        3       2.301  -1.464   0.837  -1.674  -0.000   0.000
    6    4    3    2        3       2.301  -1.464   0.837  -1.674  -0.000   0.000
    4    3    2    1        3       2.301  -1.464   0.837  -1.674  -0.000   0.000
   22    6    4    5        3       0.628   1.883   0.000  -2.510  -0.000   0.000
   21    6    4    7        3       0.628   1.883   0.000  -2.510  -0.000   0.000
   23    7    4    5        3       0.628   1.883   0.000  -2.510  -0.000   0.000
   18    5    4    6        3       0.628   1.883   0.000  -2.510  -0.000   0.000
   20    6    4    7        3       0.628   1.883   0.000  -2.510  -0.000   0.000
   25    7    4    5        3       0.628   1.883   0.000  -2.510  -0.000   0.000
   17    5    4    7        3       0.628   1.883   0.000  -2.510  -0.000   0.000
   22    6    4    7        3       0.628   1.883   0.000  -2.510  -0.000   0.000
   24    7    4    6        3       0.628   1.883   0.000  -2.510  -0.000   0.000
   20    6    4    5        3       0.628   1.883   0.000  -2.510  -0.000   0.000
   19    5    4    7        3       0.628   1.883   0.000  -2.510  -0.000   0.000
   18    5    4    7        3       0.628   1.883   0.000  -2.510  -0.000   0.000
   19    5    4    6        3       0.628   1.883   0.000  -2.510  -0.000   0.000
   25    7    4    6        3       0.628   1.883   0.000  -2.510  -0.000   0.000
   23    7    4    6        3       0.628   1.883   0.000  -2.510  -0.000   0.000
   24    7    4    5        3       0.628   1.883   0.000  -2.510  -0.000   0.000
   21    6    4    5        3       0.628   1.883   0.000  -2.510  -0.000   0.000
   17    5    4    6        3       0.628   1.883   0.000  -2.510  -0.000   0.000
   22    6    4    3        3       0.628   1.883   0.000  -2.510  -0.000   0.000
   13    1    2    3        3       0.628   1.883   0.000  -2.510  -0.000   0.000
   21    6    4    3        3       0.628   1.883   0.000  -2.510  -0.000   0.000
   18    5    4    3        3       0.628   1.883   0.000  -2.510  -0.000   0.000
   19    5    4    3        3       0.628   1.883   0.000  -2.510  -0.000   0.000
   24    7    4    3        3       0.628   1.883   0.000  -2.510  -0.000   0.000
   25    7    4    3        3       0.628   1.883   0.000  -2.510  -0.000   0.000
   12    1    2    3        3       0.628   1.883   0.000  -2.510  -0.000   0.000
   17    5    4    3        3       0.628   1.883   0.000  -2.510  -0.000   0.000
   14    1    2    3        3       0.628   1.883   0.000  -2.510  -0.000   0.000
   20    6    4    3        3       0.628   1.883   0.000  -2.510  -0.000   0.000
   23    7    4    3        3       0.628   1.883   0.000  -2.510  -0.000   0.000
   15    2    1   13        3       0.628   1.883   0.000  -2.510  -0.000   0.000
   16    2    1   13        3       0.628   1.883   0.000  -2.510  -0.000   0.000
   16    2    1   14        3       0.628   1.883   0.000  -2.510  -0.000   0.000
   15    2    1   12        3       0.628   1.883   0.000  -2.510  -0.000   0.000
   16    2    1   12        3       0.628   1.883   0.000  -2.510  -0.000   0.000
   15    2    1   14        3       0.628   1.883   0.000  -2.510  -0.000   0.000
   16    2    3   10        3       0.628   1.883   0.000  -2.510  -0.000   0.000
   15    2    3   10        3       0.628   1.883   0.000  -2.510  -0.000   0.000
   16    2    3    4        3       0.628   1.883   0.000  -2.510  -0.000   0.000
   15    2    3    4        3       0.628   1.883   0.000  -2.510  -0.000   0.000
   16    2    3    8        3       0.979   2.937   0.000  -3.916  -0.000   0.000
   15    2    3    8        3       0.979   2.937   0.000  -3.916  -0.000   0.000
    9   10    3    4        3       0.000   0.000   0.000  -0.000  -0.000   0.000
    9   10    3    2        3       0.000   0.000   0.000  -0.000  -0.000   0.000
    8    3    4    7        3       2.874   0.582   2.092  -5.548  -0.000   0.000
    8    3    4    6        3       2.874   0.582   2.092  -5.548  -0.000   0.000
    8    3    2    1        3       2.874   0.582   2.092  -5.548  -0.000   0.000
    8    3    4    5        3       2.874   0.582   2.092  -5.548  -0.000   0.000
    9    8    3    2        3       0.000   0.000   0.000  -0.000  -0.000   0.000
    9    8    3    4        3       0.000   0.000   0.000  -0.000  -0.000   0.000
   11   10    3    2        3       0.000   0.000   0.000  -0.000  -0.000   0.000
   11   10    3    4        3       0.000   0.000   0.000  -0.000  -0.000   0.000
   11   10    3    8        3       0.000   0.000   0.000  -0.000  -0.000   0.000
   11   10    9    8        3      20.502   0.000  -20.502  -0.000  -0.000   0.000

[ pairs ]
     1     4    1
     2     5    1
     2     6    1
     2     7    1
     1     8    1
     2     9    1
     1    10    1
     5     8    1
     4     9    1
     2    11    1
     6     8    1
     7     8    1
     5    10    1
     4    11    1
     3    12    1
     6    10    1
     3    13    1
     7    10    1
     3    14    1
     8    11    1
     4    15    1
     4    16    1
     3    17    1
     3    18    1
     3    19    1
     8    15    1
     6    17    1
     3    20    1
     8    16    1
     7    17    1
     6    18    1
     3    21    1
    10    15    1
     7    18    1
     6    19    1
     5    20    1
     3    22    1
    10    16    1
     7    19    1
     5    21    1
     3    23    1
    12    15    1
     7    20    1
     5    22    1
     3    24    1
    13    15    1
    12    16    1
     7    21    1
     5    23    1
     3    25    1
    14    15    1
    13    16    1
     7    22    1
     6    23    1
     5    24    1
    14    16    1
     6    24    1
     5    25    1
     6    25    1

