LIGPARGEN GENERATED GRO FILE
   39
    1UNK    C00    1   0.100   0.100   0.000
    1UNK    C01    2  -0.052   0.100   0.000
    1UNK    C02    3  -0.112   0.100   0.141
    1UNK    C03    4  -0.265   0.100   0.136
    1UNK    C04    5  -0.314   0.082   0.280
    1UNK    C05    6  -0.307   0.208   0.367
    1UNK    C06    7  -0.397   0.322   0.318
    1UNK    C07    8  -0.389   0.447   0.406
    1UNK    S08    9  -0.447   0.419   0.572
    1UNK    O09   10  -0.583   0.370   0.563
    1UNK    O0A   11  -0.345   0.345   0.644
    1UNK    C0B   12  -0.453   0.582   0.643
    1UNK    C0C   13  -0.501   0.576   0.786
    1UNK    S0D   14  -0.203  -0.047   0.343
    1UNK    O0E   15  -0.264  -0.176   0.319
    1UNK    O0F   16  -0.152  -0.010   0.474
    1UNK    C0G   17  -0.072  -0.023   0.224
    1UNK    H0H   18   0.137   0.100  -0.103
    1UNK    H0I   19   0.140   0.012   0.050
    1UNK    H0J   20   0.139   0.189   0.050
    1UNK    H0K   21  -0.088   0.013  -0.056
    1UNK    H0M   22  -0.087   0.189  -0.054
    1UNK    H0N   23  -0.078   0.191   0.193
    1UNK    H0O   24  -0.300   0.015   0.075
    1UNK    H0P   25  -0.304   0.191   0.089
    1UNK    H0Q   26  -0.416   0.041   0.281
    1UNK    H0R   27  -0.204   0.244   0.375
    1UNK    H0S   28  -0.338   0.178   0.467
    1UNK    H0T   29  -0.500   0.287   0.312
    1UNK    H0U   30  -0.367   0.352   0.217
    1UNK    H0V   31  -0.452   0.525   0.363
    1UNK    H0W   32  -0.286   0.484   0.412
    1UNK    H0X   33  -0.520   0.643   0.582
    1UNK    H0Y   34  -0.352   0.624   0.638
    1UNK    H0Z   35  -0.602   0.533   0.792
    1UNK    H10   36  -0.504   0.676   0.830
    1UNK    H11   37  -0.435   0.514   0.847
    1UNK    H12   38  -0.067  -0.114   0.163
    1UNK    H13   39   0.022  -0.008   0.277
   1.00000   1.00000   1.00000

