
;
; GENERATED BY LigParGen Server
; Jorgensen Lab @ Yale University 
;
[ atomtypes ]
  opls_818  H818     1.0080     0.000    A    2.50000E-01   1.25520E-01
  opls_824  H824     1.0080     0.000    A    2.50000E-01   1.25520E-01
  opls_805  C805    12.0110     0.000    A    3.50000E-01   2.76144E-01
  opls_828  H828     1.0080     0.000    A    2.50000E-01   1.25520E-01
  opls_810  C810    12.0110     0.000    A    3.50000E-01   2.76144E-01
  opls_813  H813     1.0080     0.000    A    2.50000E-01   1.25520E-01
  opls_811  F811    18.9984     0.000    A    2.90000E-01   2.51040E-01
  opls_802  C802    12.0110     0.000    A    3.50000E-01   2.76144E-01
  opls_815  H815     1.0080     0.000    A    2.50000E-01   1.25520E-01
  opls_809  C809    12.0110     0.000    A    3.50000E-01   2.76144E-01
  opls_830  H830     1.0080     0.000    A    2.50000E-01   1.25520E-01
  opls_822  H822     1.0080     0.000    A    2.50000E-01   1.25520E-01
  opls_803  C803    12.0110     0.000    A    3.50000E-01   2.76144E-01
  opls_812  F812    18.9984     0.000    A    2.90000E-01   2.51040E-01
  opls_825  H825     1.0080     0.000    A    2.50000E-01   1.25520E-01
  opls_814  H814     1.0080     0.000    A    2.50000E-01   1.25520E-01
  opls_821  H821     1.0080     0.000    A    2.50000E-01   1.25520E-01
  opls_820  H820     1.0080     0.000    A    2.50000E-01   1.25520E-01
  opls_829  H829     1.0080     0.000    A    2.50000E-01   1.25520E-01
  opls_816  H816     1.0080     0.000    A    2.50000E-01   1.25520E-01
  opls_800  C800    12.0110     0.000    A    3.50000E-01   2.76144E-01
  opls_806  C806    12.0110     0.000    A    3.50000E-01   2.76144E-01
  opls_823  H823     1.0080     0.000    A    2.50000E-01   1.25520E-01
  opls_826  H826     1.0080     0.000    A    2.50000E-01   1.25520E-01
  opls_819  H819     1.0080     0.000    A    2.50000E-01   1.25520E-01
  opls_804  C804    12.0110     0.000    A    3.50000E-01   2.76144E-01
  opls_827  H827     1.0080     0.000    A    2.50000E-01   1.25520E-01
  opls_801  C801    12.0110     0.000    A    3.50000E-01   2.76144E-01
  opls_808  C808    12.0110     0.000    A    3.50000E-01   2.76144E-01
  opls_817  H817     1.0080     0.000    A    2.50000E-01   1.25520E-01
  opls_807  C807    12.0110     0.000    A    3.50000E-01   2.76144E-01
[ moleculetype ]
; Name               nrexcl
UNK                   3
[ atoms ]
;   nr       type  resnr residue  atom   cgnr     charge       mass  
     1   opls_800      1    UNK   C00      1    -0.2388    12.0110 
     2   opls_801      1    UNK   C01      1    -0.1017    12.0110 
     3   opls_802      1    UNK   C02      1    -0.1666    12.0110 
     4   opls_803      1    UNK   C03      1    -0.1217    12.0110 
     5   opls_804      1    UNK   C04      1    -0.1834    12.0110 
     6   opls_805      1    UNK   C05      1    -0.1858    12.0110 
     7   opls_806      1    UNK   C06      1    -0.1076    12.0110 
     8   opls_807      1    UNK   C07      1    -0.1768    12.0110 
     9   opls_808      1    UNK   C08      1    -0.1598    12.0110 
    10   opls_809      1    UNK   C09      1     0.2989    12.0110 
    11   opls_810      1    UNK   C0A      1    -0.3046    12.0110 
    12   opls_811      1    UNK   F0B      1     -0.183    18.9984 
    13   opls_812      1    UNK   F0C      1     -0.183    18.9984 
    14   opls_813      1    UNK   H0D      1      0.089     1.0080 
    15   opls_814      1    UNK   H0E      1      0.089     1.0080 
    16   opls_815      1    UNK   H0F      1      0.089     1.0080 
    17   opls_816      1    UNK   H0G      1     0.0954     1.0080 
    18   opls_817      1    UNK   H0H      1     0.0922     1.0080 
    19   opls_818      1    UNK   H0I      1     0.0922     1.0080 
    20   opls_819      1    UNK   H0J      1     0.1071     1.0080 
    21   opls_820      1    UNK   H0K      1     0.0935     1.0080 
    22   opls_821      1    UNK   H0M      1     0.0935     1.0080 
    23   opls_822      1    UNK   H0N      1     0.0983     1.0080 
    24   opls_823      1    UNK   H0O      1     0.0983     1.0080 
    25   opls_824      1    UNK   H0P      1     0.1152     1.0080 
    26   opls_825      1    UNK   H0Q      1     0.0984     1.0080 
    27   opls_826      1    UNK   H0R      1     0.0984     1.0080 
    28   opls_827      1    UNK   H0S      1      0.127     1.0080 
    29   opls_828      1    UNK   H0T      1     0.1124     1.0080 
    30   opls_829      1    UNK   H0U      1     0.1124     1.0080 
    31   opls_830      1    UNK   H0V      1     0.1124     1.0080 
[ bonds ]
    2     1     1      0.1529 224262.400
    3     2     1      0.1529 224262.400
    4     3     1      0.1529 224262.400
    5     4     1      0.1529 224262.400
    6     5     1      0.1529 224262.400
    7     6     1      0.1529 224262.400
    8     4     1      0.1529 224262.400
    9     2     1      0.1529 224262.400
   10     9     1      0.1529 224262.400
   11    10     1      0.1529 224262.400
   12    10     1      0.1360 307105.600
   13    10     1      0.1360 307105.600
   14     1     1      0.1090 284512.000
   15     1     1      0.1090 284512.000
   16     1     1      0.1090 284512.000
   17     2     1      0.1090 284512.000
   18     3     1      0.1090 284512.000
   19     3     1      0.1090 284512.000
   20     4     1      0.1090 284512.000
   21     5     1      0.1090 284512.000
   22     5     1      0.1090 284512.000
   23     6     1      0.1090 284512.000
   24     6     1      0.1090 284512.000
   25     7     1      0.1090 284512.000
   26     8     1      0.1090 284512.000
   27     8     1      0.1090 284512.000
   28     9     1      0.1090 284512.000
   29    11     1      0.1090 284512.000
   30    11     1      0.1090 284512.000
   31    11     1      0.1090 284512.000
    8     7     1      0.1529 224262.400
    9     7     1      0.1529 224262.400

[ angles ]
;  ai    aj    ak funct            c0            c1            c2            c3 
    1     2     3     1    112.700    488.273
    2     3     4     1    112.700    488.273
    3     4     5     1    112.700    488.273
    4     5     6     1    112.700    488.273
    5     6     7     1    112.700    488.273
    3     4     8     1    112.700    488.273
    1     2     9     1    112.700    488.273
    2     9    10     1    112.700    488.273
    9    10    11     1    112.700    488.273
    9    10    12     1    109.500    418.400
    9    10    13     1    109.500    418.400
    2     1    14     1    110.700    313.800
    2     1    15     1    110.700    313.800
    2     1    16     1    110.700    313.800
    1     2    17     1    110.700    313.800
    2     3    18     1    110.700    313.800
    2     3    19     1    110.700    313.800
    3     4    20     1    110.700    313.800
    4     5    21     1    110.700    313.800
    4     5    22     1    110.700    313.800
    5     6    23     1    110.700    313.800
    5     6    24     1    110.700    313.800
    6     7    25     1    110.700    313.800
    4     8    26     1    110.700    313.800
    4     8    27     1    110.700    313.800
    2     9    28     1    110.700    313.800
   10    11    29     1    110.700    313.800
   10    11    30     1    110.700    313.800
   10    11    31     1    110.700    313.800
   11    10    12     1    109.500    418.400
    2     9     7     1    112.700    488.273
    7     6    24     1    110.700    313.800
    9     7    25     1    110.700    313.800
    7     8    26     1    110.700    313.800
   21     5    22     1    107.800    276.144
    6     5    22     1    110.700    313.800
    3     2    17     1    110.700    313.800
   12    10    13     1    109.100    644.336
    4     3    19     1    110.700    313.800
    7     8    27     1    110.700    313.800
    9     2    17     1    110.700    313.800
    6     7     8     1    112.700    488.273
    5     4     8     1    112.700    488.273
    4     3    18     1    110.700    313.800
    8     7    25     1    110.700    313.800
    8     7     9     1    112.700    488.273
   15     1    16     1    107.800    276.144
   14     1    15     1    107.800    276.144
    8     4    20     1    110.700    313.800
   18     3    19     1    107.800    276.144
   23     6    24     1    107.800    276.144
    7     9    28     1    110.700    313.800
    6     5    21     1    110.700    313.800
    5     4    20     1    110.700    313.800
    4     8     7     1    112.700    488.273
    3     2     9     1    112.700    488.273
    6     7     9     1    112.700    488.273
   10     9    28     1    110.700    313.800
    7     9    10     1    112.700    488.273
   11    10    13     1    109.500    418.400
    7     6    23     1    110.700    313.800
   29    11    31     1    107.800    276.144
   14     1    16     1    107.800    276.144
   29    11    30     1    107.800    276.144
   26     8    27     1    107.800    276.144
   30    11    31     1    107.800    276.144

[ dihedrals ]
; IMPROPER DIHEDRAL ANGLES 
;  ai    aj    ak    al funct            c0            c1            c2            c3            c4            c5

[ dihedrals ]
; PROPER DIHEDRAL ANGLES
;  ai    aj    ak    al funct            c0            c1            c2            c3            c4            c5
   10    9    2    1        3       2.301  -1.464   0.837  -1.674  -0.000   0.000
   10    9    7    8        3       2.301  -1.464   0.837  -1.674  -0.000   0.000
   10    9    2    3        3       2.301  -1.464   0.837  -1.674  -0.000   0.000
   10    9    7    6        3       2.301  -1.464   0.837  -1.674  -0.000   0.000
   11   10    9    7        3       2.301  -1.464   0.837  -1.674  -0.000   0.000
   11   10    9    2        3       2.301  -1.464   0.837  -1.674  -0.000   0.000
    8    7    6    5        3       2.301  -1.464   0.837  -1.674  -0.000   0.000
    6    7    8    4        3       2.301  -1.464   0.837  -1.674  -0.000   0.000
    7    9    2    1        3       2.301  -1.464   0.837  -1.674  -0.000   0.000
    4    3    2    1        3       2.301  -1.464   0.837  -1.674  -0.000   0.000
    8    4    5    6        3       2.301  -1.464   0.837  -1.674  -0.000   0.000
    7    9    2    3        3       2.301  -1.464   0.837  -1.674  -0.000   0.000
    9    2    3    4        3       2.301  -1.464   0.837  -1.674  -0.000   0.000
    7    8    4    3        3       2.301  -1.464   0.837  -1.674  -0.000   0.000
    9    7    8    4        3       2.301  -1.464   0.837  -1.674  -0.000   0.000
    6    7    9    2        3       2.301  -1.464   0.837  -1.674  -0.000   0.000
    8    4    3    2        3       2.301  -1.464   0.837  -1.674  -0.000   0.000
    8    7    9    2        3       2.301  -1.464   0.837  -1.674  -0.000   0.000
    7    8    4    5        3       2.301  -1.464   0.837  -1.674  -0.000   0.000
    7    6    5    4        3       2.301  -1.464   0.837  -1.674  -0.000   0.000
    6    5    4    3        3       2.301  -1.464   0.837  -1.674  -0.000   0.000
    5    4    3    2        3       2.301  -1.464   0.837  -1.674  -0.000   0.000
    9    7    6    5        3       2.301  -1.464   0.837  -1.674  -0.000   0.000
   12   10    9    7        3       0.000   0.000   0.000  -0.000  -0.000   0.000
   13   10    9    7        3       0.000   0.000   0.000  -0.000  -0.000   0.000
   12   10    9    2        3       0.000   0.000   0.000  -0.000  -0.000   0.000
   13   10    9    2        3       0.000   0.000   0.000  -0.000  -0.000   0.000
   31   11   10    9        3       0.628   1.883   0.000  -2.510  -0.000   0.000
   30   11   10    9        3       0.628   1.883   0.000  -2.510  -0.000   0.000
   28    9   10   11        3       0.628   1.883   0.000  -2.510  -0.000   0.000
   29   11   10    9        3       0.628   1.883   0.000  -2.510  -0.000   0.000
   30   11   10   12        3       0.753   2.259   0.000  -3.012  -0.000   0.000
   28    9   10   12        3       0.753   2.259   0.000  -3.012  -0.000   0.000
   29   11   10   12        3       0.753   2.259   0.000  -3.012  -0.000   0.000
   28    9   10   13        3       0.753   2.259   0.000  -3.012  -0.000   0.000
   29   11   10   13        3       0.753   2.259   0.000  -3.012  -0.000   0.000
   30   11   10   13        3       0.753   2.259   0.000  -3.012  -0.000   0.000
   31   11   10   13        3       0.753   2.259   0.000  -3.012  -0.000   0.000
   31   11   10   12        3       0.753   2.259   0.000  -3.012  -0.000   0.000
   17    2    9   10        3       0.628   1.883   0.000  -2.510  -0.000   0.000
   25    7    9   10        3       0.628   1.883   0.000  -2.510  -0.000   0.000
   27    8    4    3        3       0.628   1.883   0.000  -2.510  -0.000   0.000
   20    4    8    7        3       0.628   1.883   0.000  -2.510  -0.000   0.000
   18    3    2    1        3       0.628   1.883   0.000  -2.510  -0.000   0.000
   25    7    6    5        3       0.628   1.883   0.000  -2.510  -0.000   0.000
   22    5    6    7        3       0.628   1.883   0.000  -2.510  -0.000   0.000
   24    6    5    4        3       0.628   1.883   0.000  -2.510  -0.000   0.000
   18    3    4    5        3       0.628   1.883   0.000  -2.510  -0.000   0.000
   25    7    8    4        3       0.628   1.883   0.000  -2.510  -0.000   0.000
   27    8    4    5        3       0.628   1.883   0.000  -2.510  -0.000   0.000
   15    1    2    3        3       0.628   1.883   0.000  -2.510  -0.000   0.000
   23    6    7    9        3       0.628   1.883   0.000  -2.510  -0.000   0.000
   24    6    7    8        3       0.628   1.883   0.000  -2.510  -0.000   0.000
   18    3    4    8        3       0.628   1.883   0.000  -2.510  -0.000   0.000
   26    8    7    6        3       0.628   1.883   0.000  -2.510  -0.000   0.000
   14    1    2    9        3       0.628   1.883   0.000  -2.510  -0.000   0.000
   26    8    7    9        3       0.628   1.883   0.000  -2.510  -0.000   0.000
   21    5    6    7        3       0.628   1.883   0.000  -2.510  -0.000   0.000
   14    1    2    3        3       0.628   1.883   0.000  -2.510  -0.000   0.000
   20    4    3    2        3       0.628   1.883   0.000  -2.510  -0.000   0.000
   19    3    4    5        3       0.628   1.883   0.000  -2.510  -0.000   0.000
   25    7    9    2        3       0.628   1.883   0.000  -2.510  -0.000   0.000
   16    1    2    3        3       0.628   1.883   0.000  -2.510  -0.000   0.000
   16    1    2    9        3       0.628   1.883   0.000  -2.510  -0.000   0.000
   21    5    4    8        3       0.628   1.883   0.000  -2.510  -0.000   0.000
   22    5    4    8        3       0.628   1.883   0.000  -2.510  -0.000   0.000
   17    2    3    4        3       0.628   1.883   0.000  -2.510  -0.000   0.000
   27    8    7    9        3       0.628   1.883   0.000  -2.510  -0.000   0.000
   28    9    7    8        3       0.628   1.883   0.000  -2.510  -0.000   0.000
   28    9    2    3        3       0.628   1.883   0.000  -2.510  -0.000   0.000
   19    3    2    1        3       0.628   1.883   0.000  -2.510  -0.000   0.000
   18    3    2    9        3       0.628   1.883   0.000  -2.510  -0.000   0.000
   21    5    4    3        3       0.628   1.883   0.000  -2.510  -0.000   0.000
   17    2    9    7        3       0.628   1.883   0.000  -2.510  -0.000   0.000
   26    8    4    3        3       0.628   1.883   0.000  -2.510  -0.000   0.000
   28    9    2    1        3       0.628   1.883   0.000  -2.510  -0.000   0.000
   20    4    5    6        3       0.628   1.883   0.000  -2.510  -0.000   0.000
   23    6    5    4        3       0.628   1.883   0.000  -2.510  -0.000   0.000
   15    1    2    9        3       0.628   1.883   0.000  -2.510  -0.000   0.000
   28    9    7    6        3       0.628   1.883   0.000  -2.510  -0.000   0.000
   27    8    7    6        3       0.628   1.883   0.000  -2.510  -0.000   0.000
   19    3    2    9        3       0.628   1.883   0.000  -2.510  -0.000   0.000
   22    5    4    3        3       0.628   1.883   0.000  -2.510  -0.000   0.000
   19    3    4    8        3       0.628   1.883   0.000  -2.510  -0.000   0.000
   23    6    7    8        3       0.628   1.883   0.000  -2.510  -0.000   0.000
   26    8    4    5        3       0.628   1.883   0.000  -2.510  -0.000   0.000
   24    6    7    9        3       0.628   1.883   0.000  -2.510  -0.000   0.000
   19    3    2   17        3       0.628   1.883   0.000  -2.510  -0.000   0.000
   27    8    7   25        3       0.628   1.883   0.000  -2.510  -0.000   0.000
   20    4    3   18        3       0.628   1.883   0.000  -2.510  -0.000   0.000
   28    9    7   25        3       0.628   1.883   0.000  -2.510  -0.000   0.000
   21    5    4   20        3       0.628   1.883   0.000  -2.510  -0.000   0.000
   17    2    1   14        3       0.628   1.883   0.000  -2.510  -0.000   0.000
   20    4    3   19        3       0.628   1.883   0.000  -2.510  -0.000   0.000
   26    8    7   25        3       0.628   1.883   0.000  -2.510  -0.000   0.000
   23    6    5   22        3       0.628   1.883   0.000  -2.510  -0.000   0.000
   24    6    5   21        3       0.628   1.883   0.000  -2.510  -0.000   0.000
   22    5    4   20        3       0.628   1.883   0.000  -2.510  -0.000   0.000
   18    3    2   17        3       0.628   1.883   0.000  -2.510  -0.000   0.000
   25    7    6   23        3       0.628   1.883   0.000  -2.510  -0.000   0.000
   17    2    1   16        3       0.628   1.883   0.000  -2.510  -0.000   0.000
   27    8    4   20        3       0.628   1.883   0.000  -2.510  -0.000   0.000
   17    2    1   15        3       0.628   1.883   0.000  -2.510  -0.000   0.000
   25    7    6   24        3       0.628   1.883   0.000  -2.510  -0.000   0.000
   24    6    5   22        3       0.628   1.883   0.000  -2.510  -0.000   0.000
   26    8    4   20        3       0.628   1.883   0.000  -2.510  -0.000   0.000
   28    9    2   17        3       0.628   1.883   0.000  -2.510  -0.000   0.000
   23    6    5   21        3       0.628   1.883   0.000  -2.510  -0.000   0.000

[ pairs ]
     1     4    1
     2     5    1
     2     6    1
     1     7    1
     3     6    1
     3     7    1
     2     8    1
     1    10    1
     4     9    1
     3    10    1
     2    11    1
     5     9    1
     2    12    1
     2    13    1
     6    10    1
     3    14    1
     8    10    1
     7    11    1
     3    15    1
     7    12    1
     3    16    1
     1    18    1
     7    13    1
     1    19    1
     4    17    1
     2    20    1
     9    14    1
     5    18    1
     9    15    1
     7    17    1
     5    19    1
     3    21    1
     9    16    1
     3    22    1
     8    18    1
     6    20    1
    10    17    1
     9    18    1
     8    19    1
     7    20    1
     4    23    1
     2    25    1
     9    19    1
     7    21    1
     4    24    1
     8    21    1
     7    22    1
     4    25    1
     3    26    1
     1    28    1
     8    22    1
     5    25    1
     3    27    1
    14    17    1
     8    23    1
     5    26    1
     3    28    1
    15    17    1
     9    23    1
     8    24    1
     6    26    1
     5    27    1
    16    17    1
     9    24    1
     6    27    1
     6    28    1
    17    18    1
    10    25    1
     9    26    1
    17    19    1
     9    27    1
     8    28    1
    18    20    1
     9    29    1
    19    20    1
    11    28    1
     9    30    1
    12    28    1
     9    31    1
    20    21    1
    13    28    1
    12    29    1
    20    22    1
    13    29    1
    12    30    1
    13    30    1
    12    31    1
    21    23    1
    13    31    1
    22    23    1
    21    24    1
    17    28    1
    22    24    1
    20    26    1
    20    27    1
    23    25    1
    24    25    1
    25    26    1
    25    27    1
    25    28    1

