LIGPARGEN GENERATED GRO FILE
   31
    1UNK    C00    1   0.100   0.100   0.000
    1UNK    C01    2  -0.053   0.100   0.000
    1UNK    C02    3  -0.106   0.100   0.146
    1UNK    C03    4  -0.258   0.129   0.154
    1UNK    C04    5  -0.289   0.280   0.165
    1UNK    C05    6  -0.325   0.325   0.022
    1UNK    C06    7  -0.276   0.209  -0.065
    1UNK    C07    8  -0.323   0.091   0.021
    1UNK    C08    9  -0.119   0.217  -0.077
    1UNK    C09   10  -0.073   0.238  -0.222
    1UNK    C0A   11  -0.102   0.127  -0.320
    1UNK    F0B   12  -0.132   0.352  -0.269
    1UNK    F0C   13   0.060   0.264  -0.223
    1UNK    H0D   14   0.138   0.020   0.064
    1UNK    H0E   15   0.140   0.195   0.036
    1UNK    H0F   16   0.139   0.081  -0.101
    1UNK    H0G   17  -0.082   0.005  -0.047
    1UNK    H0H   18  -0.051   0.172   0.207
    1UNK    H0I   19  -0.086   0.001   0.190
    1UNK    H0J   20  -0.301   0.075   0.240
    1UNK    H0K   21  -0.204   0.337   0.204
    1UNK    H0M   22  -0.374   0.298   0.231
    1UNK    H0N   23  -0.281   0.421  -0.005
    1UNK    H0O   24  -0.433   0.334   0.013
    1UNK    H0P   25  -0.325   0.209  -0.163
    1UNK    H0Q   26  -0.293  -0.007  -0.016
    1UNK    H0R   27  -0.432   0.090   0.030
    1UNK    H0S   28  -0.086   0.309  -0.026
    1UNK    H0T   29  -0.209   0.117  -0.339
    1UNK    H0U   30  -0.062   0.031  -0.285
    1UNK    H0V   31  -0.054   0.149  -0.416
   1.00000   1.00000   1.00000

