
;
; GENERATED BY LigParGen Server
; Jorgensen Lab @ Yale University 
;
[ atomtypes ]
  opls_818  H818     1.0080     0.000    A    2.50000E-01   1.25520E-01
  opls_824  H824     1.0080     0.000    A    2.50000E-01   1.25520E-01
  opls_830  H830     1.0080     0.000    A    2.50000E-01   1.25520E-01
  opls_805  C805    12.0110     0.000    A    3.50000E-01   2.76144E-01
  opls_836  H836     1.0080     0.000    A    2.50000E-01   1.25520E-01
  opls_834  H834     1.0080     0.000    A    2.50000E-01   1.25520E-01
  opls_828  H828     1.0080     0.000    A    2.50000E-01   1.25520E-01
  opls_802  C802    12.0110     0.000    A    3.50000E-01   2.76144E-01
  opls_827  H827     1.0080     0.000    A    2.50000E-01   1.25520E-01
  opls_801  C801    12.0110     0.000    A    3.50000E-01   2.76144E-01
  opls_806  C806    12.0110     0.000    A    3.50000E-01   2.76144E-01
  opls_822  H822     1.0080     0.000    A    2.50000E-01   1.25520E-01
  opls_803  C803    12.0110     0.000    A    3.50000E-01   2.76144E-01
  opls_838  H838     1.0080     0.000    A    2.50000E-01   1.25520E-01
  opls_825  H825     1.0080     0.000    A    2.50000E-01   1.25520E-01
  opls_809  O809    15.9990     0.000    A    2.96000E-01   7.11280E-01
  opls_804  C804    12.0110     0.000    A    3.50000E-01   2.76144E-01
  opls_820  H820     1.0080     0.000    A    2.50000E-01   1.25520E-01
  opls_837  H837     1.0080     0.000    A    2.50000E-01   1.25520E-01
  opls_821  H821     1.0080     0.000    A    2.50000E-01   1.25520E-01
  opls_831  H831     1.0080     0.000    A    2.50000E-01   1.25520E-01
  opls_832  H832     1.0080     0.000    A    2.50000E-01   1.25520E-01
  opls_800  C800    12.0110     0.000    A    3.50000E-01   2.76144E-01
  opls_811  C811    12.0110     0.000    A    3.50000E-01   2.76144E-01
  opls_823  H823     1.0080     0.000    A    2.50000E-01   1.25520E-01
  opls_813  S813    32.0600     0.000    A    3.55000E-01   1.04600E+00
  opls_826  H826     1.0080     0.000    A    2.50000E-01   1.25520E-01
  opls_835  H835     1.0080     0.000    A    2.50000E-01   1.25520E-01
  opls_819  H819     1.0080     0.000    A    2.50000E-01   1.25520E-01
  opls_816  C816    12.0110     0.000    A    3.50000E-01   2.76144E-01
  opls_833  H833     1.0080     0.000    A    2.50000E-01   1.25520E-01
  opls_812  C812    12.0110     0.000    A    3.50000E-01   2.76144E-01
  opls_810  O810    15.9990     0.000    A    2.96000E-01   7.11280E-01
  opls_817  H817     1.0080     0.000    A    2.50000E-01   1.25520E-01
  opls_815  O815    15.9990     0.000    A    2.96000E-01   7.11280E-01
  opls_814  O814    15.9990     0.000    A    2.96000E-01   7.11280E-01
  opls_829  H829     1.0080     0.000    A    2.50000E-01   1.25520E-01
  opls_807  C807    12.0110     0.000    A    3.50000E-01   2.76144E-01
  opls_808  S808    32.0600     0.000    A    3.55000E-01   1.04600E+00
[ moleculetype ]
; Name               nrexcl
UNK                   3
[ atoms ]
;   nr       type  resnr residue  atom   cgnr     charge       mass  
     1   opls_800      1    UNK   C00      1    -0.2381    12.0110 
     2   opls_801      1    UNK   C01      1    -0.1624    12.0110 
     3   opls_802      1    UNK   C02      1     -0.092    12.0110 
     4   opls_803      1    UNK   C03      1    -0.1728    12.0110 
     5   opls_804      1    UNK   C04      1    -0.4192    12.0110 
     6   opls_805      1    UNK   C05      1    -0.1545    12.0110 
     7   opls_806      1    UNK   C06      1    -0.1309    12.0110 
     8   opls_807      1    UNK   C07      1    -0.5124    12.0110 
     9   opls_808      1    UNK   S08      1     1.2966    32.0600 
    10   opls_809      1    UNK   O09      1    -0.5597    15.9990 
    11   opls_810      1    UNK   O0A      1    -0.5597    15.9990 
    12   opls_811      1    UNK   C0B      1    -0.5037    12.0110 
    13   opls_812      1    UNK   C0C      1     -0.213    12.0110 
    14   opls_813      1    UNK   S0D      1     1.2866    32.0600 
    15   opls_814      1    UNK   O0E      1     -0.558    15.9990 
    16   opls_815      1    UNK   O0F      1     -0.558    15.9990 
    17   opls_816      1    UNK   C0G      1    -0.5046    12.0110 
    18   opls_817      1    UNK   H0H      1      0.086     1.0080 
    19   opls_818      1    UNK   H0I      1      0.086     1.0080 
    20   opls_819      1    UNK   H0J      1      0.086     1.0080 
    21   opls_820      1    UNK   H0K      1     0.0942     1.0080 
    22   opls_821      1    UNK   H0M      1     0.0942     1.0080 
    23   opls_822      1    UNK   H0N      1     0.1161     1.0080 
    24   opls_823      1    UNK   H0O      1       0.12     1.0080 
    25   opls_824      1    UNK   H0P      1       0.12     1.0080 
    26   opls_825      1    UNK   H0Q      1     0.1784     1.0080 
    27   opls_826      1    UNK   H0R      1     0.1216     1.0080 
    28   opls_827      1    UNK   H0S      1     0.1216     1.0080 
    29   opls_828      1    UNK   H0T      1     0.1132     1.0080 
    30   opls_829      1    UNK   H0U      1     0.1132     1.0080 
    31   opls_830      1    UNK   H0V      1     0.1567     1.0080 
    32   opls_831      1    UNK   H0W      1     0.1567     1.0080 
    33   opls_832      1    UNK   H0X      2     0.1557     1.0080 
    34   opls_833      1    UNK   H0Y      2     0.1557     1.0080 
    35   opls_834      1    UNK   H0Z      2      0.109     1.0080 
    36   opls_835      1    UNK   H10      2      0.109     1.0080 
    37   opls_836      1    UNK   H11      2      0.109     1.0080 
    38   opls_837      1    UNK   H12      2     0.1768     1.0080 
    39   opls_838      1    UNK   H13      2     0.1768     1.0080 
[ bonds ]
    2     1     1      0.1529 224262.400
    3     2     1      0.1529 224262.400
    4     3     1      0.1529 224262.400
    5     4     1      0.1529 224262.400
    6     5     1      0.1529 224262.400
    7     6     1      0.1529 224262.400
    8     7     1      0.1529 224262.400
    9     8     1      0.1770 284512.000
   10     9     1      0.1440 585760.000
   11     9     1      0.1440 585760.000
   12     9     1      0.1770 284512.000
   13    12     1      0.1529 224262.400
   14     5     1      0.1770 284512.000
   15    14     1      0.1440 585760.000
   16    14     1      0.1440 585760.000
   17     3     1      0.1529 224262.400
   18     1     1      0.1090 284512.000
   19     1     1      0.1090 284512.000
   20     1     1      0.1090 284512.000
   21     2     1      0.1090 284512.000
   22     2     1      0.1090 284512.000
   23     3     1      0.1090 284512.000
   24     4     1      0.1090 284512.000
   25     4     1      0.1090 284512.000
   26     5     1      0.1090 284512.000
   27     6     1      0.1090 284512.000
   28     6     1      0.1090 284512.000
   29     7     1      0.1090 284512.000
   30     7     1      0.1090 284512.000
   31     8     1      0.1090 284512.000
   32     8     1      0.1090 284512.000
   33    12     1      0.1090 284512.000
   34    12     1      0.1090 284512.000
   35    13     1      0.1090 284512.000
   36    13     1      0.1090 284512.000
   37    13     1      0.1090 284512.000
   38    17     1      0.1090 284512.000
   39    17     1      0.1090 284512.000
   17    14     1      0.1770 284512.000

[ angles ]
;  ai    aj    ak funct            c0            c1            c2            c3 
    1     2     3     1    112.700    488.273
    2     3     4     1    112.700    488.273
    3     4     5     1    112.700    488.273
    4     5     6     1    112.700    488.273
    5     6     7     1    112.700    488.273
    6     7     8     1    112.700    488.273
    7     8     9     1    108.600    418.400
    8     9    10     1    108.900    619.232
    8     9    11     1    108.900    619.232
    8     9    12     1    102.000    518.816
    9    12    13     1    108.600    418.400
    4     5    14     1    108.600    418.400
    5    14    15     1    108.900    619.232
    5    14    16     1    108.900    619.232
    2     3    17     1    112.700    488.273
    2     1    18     1    110.700    313.800
    2     1    19     1    110.700    313.800
    2     1    20     1    110.700    313.800
    1     2    21     1    110.700    313.800
    1     2    22     1    110.700    313.800
    2     3    23     1    110.700    313.800
    3     4    24     1    110.700    313.800
    3     4    25     1    110.700    313.800
    4     5    26     1    110.700    313.800
    5     6    27     1    110.700    313.800
    5     6    28     1    110.700    313.800
    6     7    29     1    110.700    313.800
    6     7    30     1    110.700    313.800
    7     8    31     1    110.700    313.800
    7     8    32     1    110.700    313.800
    9    12    33     1    109.500    292.880
    9    12    34     1    109.500    292.880
   12    13    35     1    110.700    313.800
   12    13    36     1    110.700    313.800
   12    13    37     1    110.700    313.800
    3    17    38     1    110.700    313.800
    3    17    39     1    110.700    313.800
   10     9    11     1    119.000    870.272
   19     1    20     1    107.800    276.144
    9     8    32     1    109.500    292.880
   15    14    16     1    119.000    870.272
    3     2    21     1    110.700    313.800
   31     8    32     1    107.800    276.144
    5     4    24     1    110.700    313.800
   17     3    23     1    110.700    313.800
   24     4    25     1    107.800    276.144
    9     8    31     1    109.500    292.880
   15    14    17     1    108.900    619.232
    7     6    28     1    110.700    313.800
   29     7    30     1    107.800    276.144
    4     3    23     1    110.700    313.800
    3     2    22     1    110.700    313.800
    6     5    14     1    108.600    418.400
   33    12    34     1    107.800    276.144
   16    14    17     1    108.900    619.232
   35    13    37     1    107.800    276.144
    8     7    29     1    110.700    313.800
   18     1    19     1    107.800    276.144
   36    13    37     1    107.800    276.144
    7     6    27     1    110.700    313.800
   14    17    38     1    109.500    292.880
   35    13    36     1    107.800    276.144
    5     4    25     1    110.700    313.800
   14    17    39     1    109.500    292.880
   21     2    22     1    107.800    276.144
    6     5    26     1    110.700    313.800
   27     6    28     1    107.800    276.144
   11     9    12     1    108.900    619.232
   18     1    20     1    107.800    276.144
   13    12    34     1    110.700    313.800
   14     5    26     1    109.500    292.880
    4     3    17     1    112.700    488.273
   13    12    33     1    110.700    313.800
    8     7    30     1    110.700    313.800
   10     9    12     1    108.900    619.232
    3    17    14     1    108.600    418.400
    5    14    17     1    102.000    518.816
   38    17    39     1    107.800    276.144

[ dihedrals ]
; IMPROPER DIHEDRAL ANGLES 
;  ai    aj    ak    al funct            c0            c1            c2            c3            c4            c5

[ dihedrals ]
; PROPER DIHEDRAL ANGLES
;  ai    aj    ak    al funct            c0            c1            c2            c3            c4            c5
    4    3    2    1        3       2.301  -1.464   0.837  -1.674  -0.000   0.000
    5    4    3    2        3       2.301  -1.464   0.837  -1.674  -0.000   0.000
    6    5    4    3        3       2.301  -1.464   0.837  -1.674  -0.000   0.000
    7    6    5    4        3       2.301  -1.464   0.837  -1.674  -0.000   0.000
    8    7    6    5        3       2.301  -1.464   0.837  -1.674  -0.000   0.000
   17    3    4    5        3       2.301  -1.464   0.837  -1.674  -0.000   0.000
   17    3    2    1        3       2.301  -1.464   0.837  -1.674  -0.000   0.000
   13   12    9    8        3       0.000   0.000   0.000  -0.000  -0.000   0.000
   13   12    9   11        3       0.000   0.000   0.000  -0.000  -0.000   0.000
   13   12    9   10        3       0.000   0.000   0.000  -0.000  -0.000   0.000
   17   14    5    4        3       0.000   0.000   0.000  -0.000  -0.000   0.000
   17   14    5    6        3       0.000   0.000   0.000  -0.000  -0.000   0.000
   12    9    8    7        3       0.000   0.000   0.000  -0.000  -0.000   0.000
    5   14   17    3        3       0.000   0.000   0.000  -0.000  -0.000   0.000
   26    5    4    3        3       0.628   1.883   0.000  -2.510  -0.000   0.000
   27    6    5    4        3       0.628   1.883   0.000  -2.510  -0.000   0.000
   25    4    5    6        3       0.628   1.883   0.000  -2.510  -0.000   0.000
   23    3    2    1        3       0.628   1.883   0.000  -2.510  -0.000   0.000
   23    3    4    5        3       0.628   1.883   0.000  -2.510  -0.000   0.000
   38   17    3    4        3       0.628   1.883   0.000  -2.510  -0.000   0.000
   30    7    6    5        3       0.628   1.883   0.000  -2.510  -0.000   0.000
   28    6    5    4        3       0.628   1.883   0.000  -2.510  -0.000   0.000
   25    4    3   17        3       0.628   1.883   0.000  -2.510  -0.000   0.000
   38   17    3    2        3       0.628   1.883   0.000  -2.510  -0.000   0.000
   21    2    3    4        3       0.628   1.883   0.000  -2.510  -0.000   0.000
   27    6    7    8        3       0.628   1.883   0.000  -2.510  -0.000   0.000
   24    4    5    6        3       0.628   1.883   0.000  -2.510  -0.000   0.000
   22    2    3   17        3       0.628   1.883   0.000  -2.510  -0.000   0.000
   24    4    3   17        3       0.628   1.883   0.000  -2.510  -0.000   0.000
   20    1    2    3        3       0.628   1.883   0.000  -2.510  -0.000   0.000
   24    4    3    2        3       0.628   1.883   0.000  -2.510  -0.000   0.000
   39   17    3    4        3       0.628   1.883   0.000  -2.510  -0.000   0.000
   39   17    3    2        3       0.628   1.883   0.000  -2.510  -0.000   0.000
   29    7    6    5        3       0.628   1.883   0.000  -2.510  -0.000   0.000
   22    2    3    4        3       0.628   1.883   0.000  -2.510  -0.000   0.000
   25    4    3    2        3       0.628   1.883   0.000  -2.510  -0.000   0.000
   26    5    6    7        3       0.628   1.883   0.000  -2.510  -0.000   0.000
   32    8    7    6        3       0.628   1.883   0.000  -2.510  -0.000   0.000
   19    1    2    3        3       0.628   1.883   0.000  -2.510  -0.000   0.000
   21    2    3   17        3       0.628   1.883   0.000  -2.510  -0.000   0.000
   31    8    7    6        3       0.628   1.883   0.000  -2.510  -0.000   0.000
   28    6    7    8        3       0.628   1.883   0.000  -2.510  -0.000   0.000
   18    1    2    3        3       0.628   1.883   0.000  -2.510  -0.000   0.000
   22    2    1   20        3       0.628   1.883   0.000  -2.510  -0.000   0.000
   21    2    1   18        3       0.628   1.883   0.000  -2.510  -0.000   0.000
   22    2    1   19        3       0.628   1.883   0.000  -2.510  -0.000   0.000
   21    2    1   20        3       0.628   1.883   0.000  -2.510  -0.000   0.000
   29    7    6   27        3       0.628   1.883   0.000  -2.510  -0.000   0.000
   27    6    5   26        3       0.628   1.883   0.000  -2.510  -0.000   0.000
   31    8    7   30        3       0.628   1.883   0.000  -2.510  -0.000   0.000
   36   13   12   34        3       0.628   1.883   0.000  -2.510  -0.000   0.000
   28    6    5   26        3       0.628   1.883   0.000  -2.510  -0.000   0.000
   31    8    7   29        3       0.628   1.883   0.000  -2.510  -0.000   0.000
   35   13   12   33        3       0.628   1.883   0.000  -2.510  -0.000   0.000
   37   13   12   33        3       0.628   1.883   0.000  -2.510  -0.000   0.000
   23    3    2   21        3       0.628   1.883   0.000  -2.510  -0.000   0.000
   32    8    7   30        3       0.628   1.883   0.000  -2.510  -0.000   0.000
   25    4    3   23        3       0.628   1.883   0.000  -2.510  -0.000   0.000
   26    5    4   25        3       0.628   1.883   0.000  -2.510  -0.000   0.000
   30    7    6   28        3       0.628   1.883   0.000  -2.510  -0.000   0.000
   21    2    1   19        3       0.628   1.883   0.000  -2.510  -0.000   0.000
   24    4    3   23        3       0.628   1.883   0.000  -2.510  -0.000   0.000
   29    7    6   28        3       0.628   1.883   0.000  -2.510  -0.000   0.000
   30    7    6   27        3       0.628   1.883   0.000  -2.510  -0.000   0.000
   22    2    1   18        3       0.628   1.883   0.000  -2.510  -0.000   0.000
   37   13   12   34        3       0.628   1.883   0.000  -2.510  -0.000   0.000
   38   17    3   23        3       0.628   1.883   0.000  -2.510  -0.000   0.000
   35   13   12   34        3       0.628   1.883   0.000  -2.510  -0.000   0.000
   36   13   12   33        3       0.628   1.883   0.000  -2.510  -0.000   0.000
   32    8    7   29        3       0.628   1.883   0.000  -2.510  -0.000   0.000
   23    3    2   22        3       0.628   1.883   0.000  -2.510  -0.000   0.000
   39   17    3   23        3       0.628   1.883   0.000  -2.510  -0.000   0.000
   26    5    4   24        3       0.628   1.883   0.000  -2.510  -0.000   0.000
   23    3   17   14        3       0.946   2.837   0.000  -3.782  -0.000   0.000
   28    6    5   14        3       0.946   2.837   0.000  -3.782  -0.000   0.000
   30    7    8    9        3       0.946   2.837   0.000  -3.782  -0.000   0.000
   37   13   12    9        3       0.946   2.837   0.000  -3.782  -0.000   0.000
   25    4    5   14        3       0.946   2.837   0.000  -3.782  -0.000   0.000
   35   13   12    9        3       0.946   2.837   0.000  -3.782  -0.000   0.000
   24    4    5   14        3       0.946   2.837   0.000  -3.782  -0.000   0.000
   27    6    5   14        3       0.946   2.837   0.000  -3.782  -0.000   0.000
   36   13   12    9        3       0.946   2.837   0.000  -3.782  -0.000   0.000
   29    7    8    9        3       0.946   2.837   0.000  -3.782  -0.000   0.000
   31    8    9   12        3       0.732   2.197   0.000  -2.929  -0.000   0.000
   34   12    9    8        3       0.732   2.197   0.000  -2.929  -0.000   0.000
   38   17   14    5        3       0.732   2.197   0.000  -2.929  -0.000   0.000
   33   12    9    8        3       0.732   2.197   0.000  -2.929  -0.000   0.000
   32    8    9   12        3       0.732   2.197   0.000  -2.929  -0.000   0.000
   26    5   14   17        3       0.732   2.197   0.000  -2.929  -0.000   0.000
   39   17   14    5        3       0.732   2.197   0.000  -2.929  -0.000   0.000
   39   17   14   16        3       0.732   2.197   0.000  -2.929  -0.000   0.000
   39   17   14   15        3       0.732   2.197   0.000  -2.929  -0.000   0.000
   32    8    9   11        3       0.732   2.197   0.000  -2.929  -0.000   0.000
   38   17   14   16        3       0.732   2.197   0.000  -2.929  -0.000   0.000
   26    5   14   15        3       0.732   2.197   0.000  -2.929  -0.000   0.000
   32    8    9   10        3       0.732   2.197   0.000  -2.929  -0.000   0.000
   34   12    9   11        3       0.732   2.197   0.000  -2.929  -0.000   0.000
   38   17   14   15        3       0.732   2.197   0.000  -2.929  -0.000   0.000
   34   12    9   10        3       0.732   2.197   0.000  -2.929  -0.000   0.000
   33   12    9   11        3       0.732   2.197   0.000  -2.929  -0.000   0.000
   31    8    9   10        3       0.732   2.197   0.000  -2.929  -0.000   0.000
   26    5   14   16        3       0.732   2.197   0.000  -2.929  -0.000   0.000
   31    8    9   11        3       0.732   2.197   0.000  -2.929  -0.000   0.000
   33   12    9   10        3       0.732   2.197   0.000  -2.929  -0.000   0.000
   10    9    8    7        3       0.000   0.000   0.000  -0.000  -0.000   0.000
   11    9    8    7        3       0.000   0.000   0.000  -0.000  -0.000   0.000
   15   14   17    3        3       0.000   0.000   0.000  -0.000  -0.000   0.000
   15   14    5    6        3       0.000   0.000   0.000  -0.000  -0.000   0.000
   16   14    5    6        3       0.000   0.000   0.000  -0.000  -0.000   0.000
   16   14    5    4        3       0.000   0.000   0.000  -0.000  -0.000   0.000
   15   14    5    4        3       0.000   0.000   0.000  -0.000  -0.000   0.000
   16   14   17    3        3       0.000   0.000   0.000  -0.000  -0.000   0.000
    9    8    7    6        3       2.784   0.278   0.828  -3.891  -0.000   0.000
   14    5    6    7        3       2.784   0.278   0.828  -3.891  -0.000   0.000
   14   17    3    4        3       2.784   0.278   0.828  -3.891  -0.000   0.000
   14    5    4    3        3       2.784   0.278   0.828  -3.891  -0.000   0.000
   14   17    3    2        3       2.784   0.278   0.828  -3.891  -0.000   0.000

[ pairs ]
     1     4    1
     2     5    1
     3     6    1
     4     7    1
     5     8    1
     6     9    1
     2    14    1
     7    10    1
     7    11    1
     3    15    1
     1    17    1
     7    12    1
     4    15    1
     3    16    1
     4    16    1
     8    13    1
     7    14    1
     6    15    1
     3    18    1
     6    16    1
     3    19    1
    10    13    1
     6    17    1
     3    20    1
    11    13    1
     1    23    1
     4    21    1
     4    22    1
     2    24    1
     2    25    1
     5    23    1
     3    26    1
     6    24    1
     6    25    1
     4    27    1
     4    28    1
     7    26    1
     5    29    1
     8    27    1
     5    30    1
     8    28    1
    14    23    1
     6    31    1
    17    21    1
    14    24    1
     9    29    1
     6    32    1
    18    21    1
    17    22    1
    14    25    1
     9    30    1
    19    21    1
    18    22    1
     2    38    1
    20    21    1
    19    22    1
    17    24    1
    15    26    1
    14    27    1
    10    31    1
     8    33    1
     2    39    1
    20    22    1
    17    25    1
    16    26    1
    14    28    1
    11    31    1
    10    32    1
     8    34    1
     4    38    1
    17    26    1
    12    31    1
    11    32    1
    10    33    1
     5    38    1
     4    39    1
    21    23    1
    12    32    1
    11    33    1
    10    34    1
     9    35    1
     5    39    1
    22    23    1
    11    34    1
     9    36    1
     9    37    1
    23    24    1
    23    25    1
    24    26    1
    25    26    1
    26    27    1
    15    38    1
    26    28    1
    16    38    1
    15    39    1
    16    39    1
    27    29    1
    28    29    1
    27    30    1
    28    30    1
    29    31    1
    30    31    1
    29    32    1
    23    38    1
    30    32    1
    23    39    1
    33    35    1
    34    35    1
    33    36    1
    34    36    1
    33    37    1
    34    37    1

