
;
; GENERATED BY LigParGen Server
; Jorgensen Lab @ Yale University 
;
[ atomtypes ]
  opls_807  O807    15.9990     0.000    A    2.96000E-01   8.78640E-01
  opls_818  H818     1.0080     0.000    A    2.50000E-01   1.25520E-01
  opls_824  H824     1.0080     0.000    A    2.50000E-01   1.25520E-01
  opls_805  C805    12.0110     0.000    A    3.50000E-01   2.76144E-01
  opls_836  H836     1.0080     0.000    A    2.50000E-01   1.25520E-01
  opls_834  H834     1.0080     0.000    A    2.50000E-01   1.25520E-01
  opls_828  H828     1.0080     0.000    A    2.50000E-01   1.25520E-01
  opls_832  H832     1.0080     0.000    A    2.50000E-01   1.25520E-01
  opls_802  C802    12.0110     0.000    A    3.50000E-01   2.76144E-01
  opls_815  H815     1.0080     0.000    A    2.50000E-01   1.25520E-01
  opls_809  C809    12.0110     0.000    A    3.50000E-01   2.76144E-01
  opls_822  H822     1.0080     0.000    A    2.50000E-01   1.25520E-01
  opls_803  C803    12.0110     0.000    A    3.50000E-01   2.76144E-01
  opls_825  H825     1.0080     0.000    A    2.50000E-01   1.25520E-01
  opls_830  H830     1.0080     0.000    A    2.50000E-01   1.25520E-01
  opls_810  C810    12.0110     0.000    A    3.50000E-01   2.76144E-01
  opls_820  H820     1.0080     0.000    A    2.50000E-01   1.25520E-01
  opls_812  C812    12.0110     0.000    A    3.55000E-01   2.92880E-01
  opls_821  H821     1.0080     0.000    A    2.50000E-01   1.25520E-01
  opls_831  H831     1.0080     0.000    A    2.50000E-01   1.25520E-01
  opls_816  H816     1.0080     0.000    A    2.50000E-01   1.25520E-01
  opls_800  C800    12.0110     0.000    A    3.50000E-01   2.76144E-01
  opls_823  H823     1.0080     0.000    A    2.50000E-01   1.25520E-01
  opls_806  C806    12.0110     0.000    A    3.55000E-01   2.92880E-01
  opls_833  H833     1.0080     0.000    A    2.50000E-01   1.25520E-01
  opls_813  C813    12.0110     0.000    A    3.50000E-01   2.76144E-01
  opls_826  H826     1.0080     0.000    A    2.50000E-01   1.25520E-01
  opls_835  H835     1.0080     0.000    A    2.50000E-01   1.25520E-01
  opls_819  H819     1.0080     0.000    A    2.50000E-01   1.25520E-01
  opls_804  C804    12.0110     0.000    A    3.50000E-01   2.76144E-01
  opls_827  H827     1.0080     0.000    A    2.50000E-01   1.25520E-01
  opls_811  O811    15.9990     0.000    A    2.90000E-01   5.85760E-01
  opls_801  C801    12.0110     0.000    A    3.50000E-01   2.76144E-01
  opls_808  C808    12.0110     0.000    A    3.50000E-01   2.76144E-01
  opls_817  H817     1.0080     0.000    A    2.50000E-01   1.25520E-01
  opls_814  O814    15.9990     0.000    A    2.96000E-01   8.78640E-01
  opls_829  H829     1.0080     0.000    A    2.50000E-01   1.25520E-01
[ moleculetype ]
; Name               nrexcl
UNK                   3
[ atoms ]
;   nr       type  resnr residue  atom   cgnr     charge       mass  
     1   opls_800      1    UNK   C00      1    -0.2387    12.0110 
     2   opls_801      1    UNK   C01      1    -0.1843    12.0110 
     3   opls_802      1    UNK   C02      1    -0.1797    12.0110 
     4   opls_803      1    UNK   C03      1     -0.107    12.0110 
     5   opls_804      1    UNK   C04      1    -0.1778    12.0110 
     6   opls_805      1    UNK   C05      1    -0.2391    12.0110 
     7   opls_806      1    UNK   C06      1     0.3193    12.0110 
     8   opls_807      1    UNK   O07      1    -0.4518    15.9990 
     9   opls_808      1    UNK   C08      1     0.1549    12.0110 
    10   opls_809      1    UNK   C09      1    -0.2408    12.0110 
    11   opls_810      1    UNK   C0A      1    -0.2724    12.0110 
    12   opls_811      1    UNK   O0B      1    -0.3774    15.9990 
    13   opls_812      1    UNK   C0C      1     0.4522    12.0110 
    14   opls_813      1    UNK   C0D      1    -0.2589    12.0110 
    15   opls_814      1    UNK   O0E      1    -0.4616    15.9990 
    16   opls_815      1    UNK   H0F      1     0.0839     1.0080 
    17   opls_816      1    UNK   H0G      1     0.0839     1.0080 
    18   opls_817      1    UNK   H0H      1     0.0839     1.0080 
    19   opls_818      1    UNK   H0I      1     0.0945     1.0080 
    20   opls_819      1    UNK   H0J      1     0.0945     1.0080 
    21   opls_820      1    UNK   H0K      1     0.0938     1.0080 
    22   opls_821      1    UNK   H0M      1     0.0938     1.0080 
    23   opls_822      1    UNK   H0N      1      0.123     1.0080 
    24   opls_823      1    UNK   H0O      1     0.1294     1.0080 
    25   opls_824      1    UNK   H0P      1     0.0957     1.0080 
    26   opls_825      1    UNK   H0Q      1     0.0957     1.0080 
    27   opls_826      1    UNK   H0R      1     0.0957     1.0080 
    28   opls_827      1    UNK   H0S      1     0.1109     1.0080 
    29   opls_828      1    UNK   H0T      1     0.0978     1.0080 
    30   opls_829      1    UNK   H0U      1     0.0978     1.0080 
    31   opls_830      1    UNK   H0V      1     0.0978     1.0080 
    32   opls_831      1    UNK   H0W      1     0.1032     1.0080 
    33   opls_832      1    UNK   H0X      2     0.1032     1.0080 
    34   opls_833      1    UNK   H0Y      2     0.1032     1.0080 
    35   opls_834      1    UNK   H0Z      2     0.1271     1.0080 
    36   opls_835      1    UNK   H10      2     0.1271     1.0080 
    37   opls_836      1    UNK   H11      2     0.1271     1.0080 
[ bonds ]
    2     1     1      0.1529 224262.400
    3     2     1      0.1529 224262.400
    4     3     1      0.1529 224262.400
    5     4     1      0.1529 224262.400
    6     5     1      0.1529 224262.400
    7     5     1      0.1522 265265.600
    8     7     1      0.1229 476976.000
    9     4     1      0.1529 224262.400
   10     9     1      0.1529 224262.400
   11     9     1      0.1529 224262.400
   12     9     1      0.1410 267776.000
   13    12     1      0.1327 179075.200
   14    13     1      0.1522 265265.600
   15    13     1      0.1229 476976.000
   16     1     1      0.1090 284512.000
   17     1     1      0.1090 284512.000
   18     1     1      0.1090 284512.000
   19     2     1      0.1090 284512.000
   20     2     1      0.1090 284512.000
   21     3     1      0.1090 284512.000
   22     3     1      0.1090 284512.000
   23     4     1      0.1090 284512.000
   24     5     1      0.1090 284512.000
   25     6     1      0.1090 284512.000
   26     6     1      0.1090 284512.000
   27     6     1      0.1090 284512.000
   28     7     1      0.1090 284512.000
   29    10     1      0.1090 284512.000
   30    10     1      0.1090 284512.000
   31    10     1      0.1090 284512.000
   32    11     1      0.1090 284512.000
   33    11     1      0.1090 284512.000
   34    11     1      0.1090 284512.000
   35    14     1      0.1090 284512.000
   36    14     1      0.1090 284512.000
   37    14     1      0.1090 284512.000

[ angles ]
;  ai    aj    ak funct            c0            c1            c2            c3 
    1     2     3     1    112.700    488.273
    2     3     4     1    112.700    488.273
    3     4     5     1    112.700    488.273
    4     5     6     1    112.700    488.273
    4     5     7     1    111.100    527.184
    5     7     8     1    120.400    669.440
    3     4     9     1    112.700    488.273
    4     9    10     1    112.700    488.273
    4     9    11     1    112.700    488.273
    4     9    12     1    109.500    418.400
    9    12    13     1    116.900    694.544
   12    13    14     1    111.400    677.808
   12    13    15     1    123.400    694.544
    2     1    16     1    110.700    313.800
    2     1    17     1    110.700    313.800
    2     1    18     1    110.700    313.800
    1     2    19     1    110.700    313.800
    1     2    20     1    110.700    313.800
    2     3    21     1    110.700    313.800
    2     3    22     1    110.700    313.800
    3     4    23     1    110.700    313.800
    4     5    24     1    110.700    313.800
    5     6    25     1    110.700    313.800
    5     6    26     1    110.700    313.800
    5     6    27     1    110.700    313.800
    5     7    28     1    115.000    292.880
    9    10    29     1    110.700    313.800
    9    10    30     1    110.700    313.800
    9    10    31     1    110.700    313.800
    9    11    32     1    110.700    313.800
    9    11    33     1    110.700    313.800
    9    11    34     1    110.700    313.800
   13    14    35     1    109.500    292.880
   13    14    36     1    109.500    292.880
   13    14    37     1    109.500    292.880
    3     2    20     1    110.700    313.800
    6     5    24     1    110.700    313.800
   33    11    34     1    107.800    276.144
   25     6    27     1    107.800    276.144
   16     1    18     1    107.800    276.144
   29    10    30     1    107.800    276.144
   10     9    12     1    109.500    418.400
   30    10    31     1    107.800    276.144
    5     4     9     1    112.700    488.273
   11     9    12     1    109.500    418.400
    4     3    22     1    110.700    313.800
   10     9    11     1    112.700    488.273
   16     1    17     1    107.800    276.144
   32    11    34     1    107.800    276.144
   14    13    15     1    120.400    669.440
   35    14    37     1    107.800    276.144
   17     1    18     1    107.800    276.144
    5     4    23     1    110.700    313.800
   32    11    33     1    107.800    276.144
   26     6    27     1    107.800    276.144
    8     7    28     1    123.000    292.880
   21     3    22     1    107.800    276.144
    3     2    19     1    110.700    313.800
    4     3    21     1    110.700    313.800
   19     2    20     1    107.800    276.144
   25     6    26     1    107.800    276.144
    7     5    24     1    109.500    292.880
   35    14    36     1    107.800    276.144
   36    14    37     1    107.800    276.144
    9     4    23     1    110.700    313.800
   29    10    31     1    107.800    276.144
    6     5     7     1    111.100    527.184

[ dihedrals ]
; IMPROPER DIHEDRAL ANGLES 
;  ai    aj    ak    al funct            c0            c1            c2            c3            c4            c5
    28     7     5     8    4        180.000     43.932     2  
    15    13    12    14    4        180.000     43.932     2  

[ dihedrals ]
; PROPER DIHEDRAL ANGLES
;  ai    aj    ak    al funct            c0            c1            c2            c3            c4            c5
    7    5    4    3        3      -4.960   6.286   1.310  -2.636  -0.000   0.000
   13   12    9   11        3      -2.197   5.201   0.527  -3.531  -0.000   0.000
   13   12    9   10        3      -2.197   5.201   0.527  -3.531  -0.000   0.000
   13   12    9    4        3      -2.197   5.201   0.527  -3.531  -0.000   0.000
   14   13   12    9        3      31.206  -9.768  -21.439  -0.000  -0.000   0.000
    9    4    5    7        3      -4.960   6.286   1.310  -2.636  -0.000   0.000
    4    3    2    1        3       2.301  -1.464   0.837  -1.674  -0.000   0.000
    9    4    5    6        3       2.301  -1.464   0.837  -1.674  -0.000   0.000
   11    9    4    3        3       2.301  -1.464   0.837  -1.674  -0.000   0.000
   11    9    4    5        3       2.301  -1.464   0.837  -1.674  -0.000   0.000
   10    9    4    5        3       2.301  -1.464   0.837  -1.674  -0.000   0.000
    9    4    3    2        3       2.301  -1.464   0.837  -1.674  -0.000   0.000
    6    5    4    3        3       2.301  -1.464   0.837  -1.674  -0.000   0.000
    5    4    3    2        3       2.301  -1.464   0.837  -1.674  -0.000   0.000
   10    9    4    3        3       2.301  -1.464   0.837  -1.674  -0.000   0.000
   28    7    5    4        3       0.000   0.000   0.000  -0.000  -0.000   0.000
   28    7    5    6        3       0.000   0.000   0.000  -0.000  -0.000   0.000
   28    7    5   24        3       0.753   2.259   0.000  -3.012  -0.000   0.000
   36   14   13   15        3       0.000   0.000   0.000  -0.000  -0.000   0.000
   24    5    7    8        3       0.000   0.000   0.000  -0.000  -0.000   0.000
   35   14   13   15        3       0.000   0.000   0.000  -0.000  -0.000   0.000
   37   14   13   15        3       0.000   0.000   0.000  -0.000  -0.000   0.000
   35   14   13   12        3       0.276   0.828   0.000  -1.105  -0.000   0.000
   36   14   13   12        3       0.276   0.828   0.000  -1.105  -0.000   0.000
   37   14   13   12        3       0.276   0.828   0.000  -1.105  -0.000   0.000
   26    6    5    7        3      -0.209  -0.628   0.000   0.837  -0.000   0.000
   23    4    5    7        3      -0.209  -0.628   0.000   0.837  -0.000   0.000
   25    6    5    7        3      -0.209  -0.628   0.000   0.837  -0.000   0.000
   27    6    5    7        3      -0.209  -0.628   0.000   0.837  -0.000   0.000
   27    6    5    4        3       0.628   1.883   0.000  -2.510  -0.000   0.000
   18    1    2    3        3       0.628   1.883   0.000  -2.510  -0.000   0.000
   24    5    4    9        3       0.628   1.883   0.000  -2.510  -0.000   0.000
   29   10    9   11        3       0.628   1.883   0.000  -2.510  -0.000   0.000
   23    4    3    2        3       0.628   1.883   0.000  -2.510  -0.000   0.000
   22    3    4    5        3       0.628   1.883   0.000  -2.510  -0.000   0.000
   21    3    4    5        3       0.628   1.883   0.000  -2.510  -0.000   0.000
   31   10    9   11        3       0.628   1.883   0.000  -2.510  -0.000   0.000
   23    4    9   10        3       0.628   1.883   0.000  -2.510  -0.000   0.000
   30   10    9   11        3       0.628   1.883   0.000  -2.510  -0.000   0.000
   24    5    4    3        3       0.628   1.883   0.000  -2.510  -0.000   0.000
   20    2    3    4        3       0.628   1.883   0.000  -2.510  -0.000   0.000
   30   10    9    4        3       0.628   1.883   0.000  -2.510  -0.000   0.000
   17    1    2    3        3       0.628   1.883   0.000  -2.510  -0.000   0.000
   19    2    3    4        3       0.628   1.883   0.000  -2.510  -0.000   0.000
   22    3    2    1        3       0.628   1.883   0.000  -2.510  -0.000   0.000
   34   11    9    4        3       0.628   1.883   0.000  -2.510  -0.000   0.000
   21    3    4    9        3       0.628   1.883   0.000  -2.510  -0.000   0.000
   33   11    9   10        3       0.628   1.883   0.000  -2.510  -0.000   0.000
   22    3    4    9        3       0.628   1.883   0.000  -2.510  -0.000   0.000
   33   11    9    4        3       0.628   1.883   0.000  -2.510  -0.000   0.000
   21    3    2    1        3       0.628   1.883   0.000  -2.510  -0.000   0.000
   34   11    9   10        3       0.628   1.883   0.000  -2.510  -0.000   0.000
   31   10    9    4        3       0.628   1.883   0.000  -2.510  -0.000   0.000
   29   10    9    4        3       0.628   1.883   0.000  -2.510  -0.000   0.000
   25    6    5    4        3       0.628   1.883   0.000  -2.510  -0.000   0.000
   32   11    9   10        3       0.628   1.883   0.000  -2.510  -0.000   0.000
   26    6    5    4        3       0.628   1.883   0.000  -2.510  -0.000   0.000
   16    1    2    3        3       0.628   1.883   0.000  -2.510  -0.000   0.000
   23    4    5    6        3       0.628   1.883   0.000  -2.510  -0.000   0.000
   23    4    9   11        3       0.628   1.883   0.000  -2.510  -0.000   0.000
   32   11    9    4        3       0.628   1.883   0.000  -2.510  -0.000   0.000
   19    2    1   17        3       0.628   1.883   0.000  -2.510  -0.000   0.000
   20    2    1   16        3       0.628   1.883   0.000  -2.510  -0.000   0.000
   25    6    5   24        3       0.628   1.883   0.000  -2.510  -0.000   0.000
   27    6    5   24        3       0.628   1.883   0.000  -2.510  -0.000   0.000
   23    4    3   22        3       0.628   1.883   0.000  -2.510  -0.000   0.000
   20    2    1   18        3       0.628   1.883   0.000  -2.510  -0.000   0.000
   19    2    1   16        3       0.628   1.883   0.000  -2.510  -0.000   0.000
   22    3    2   19        3       0.628   1.883   0.000  -2.510  -0.000   0.000
   21    3    2   20        3       0.628   1.883   0.000  -2.510  -0.000   0.000
   21    3    2   19        3       0.628   1.883   0.000  -2.510  -0.000   0.000
   26    6    5   24        3       0.628   1.883   0.000  -2.510  -0.000   0.000
   19    2    1   18        3       0.628   1.883   0.000  -2.510  -0.000   0.000
   22    3    2   20        3       0.628   1.883   0.000  -2.510  -0.000   0.000
   23    4    3   21        3       0.628   1.883   0.000  -2.510  -0.000   0.000
   20    2    1   17        3       0.628   1.883   0.000  -2.510  -0.000   0.000
   24    5    4   23        3       0.628   1.883   0.000  -2.510  -0.000   0.000
   34   11    9   12        3       0.979   2.937   0.000  -3.916  -0.000   0.000
   30   10    9   12        3       0.979   2.937   0.000  -3.916  -0.000   0.000
   29   10    9   12        3       0.979   2.937   0.000  -3.916  -0.000   0.000
   32   11    9   12        3       0.979   2.937   0.000  -3.916  -0.000   0.000
   31   10    9   12        3       0.979   2.937   0.000  -3.916  -0.000   0.000
   33   11    9   12        3       0.979   2.937   0.000  -3.916  -0.000   0.000
   23    4    9   12        3       0.979   2.937   0.000  -3.916  -0.000   0.000
    8    7    5    4        3       0.000   0.000   0.000  -0.000  -0.000   0.000
    8    7    5    6        3       0.000   0.000   0.000  -0.000  -0.000   0.000
   15   13   12    9        3      21.439   0.000  -21.439  -0.000  -0.000   0.000
   12    9    4    5        3       2.874   0.582   2.092  -5.548  -0.000   0.000
   12    9    4    3        3       2.874   0.582   2.092  -5.548  -0.000   0.000

[ pairs ]
     1     4    1
     2     5    1
     3     6    1
     3     7    1
     2     9    1
     4     8    1
     3    10    1
     6     8    1
     3    11    1
     6     9    1
     5    10    1
     3    12    1
     7     9    1
     5    11    1
     5    12    1
     4    13    1
     3    16    1
     3    17    1
     3    18    1
     1    21    1
    10    13    1
     9    14    1
     4    19    1
     1    22    1
    11    13    1
     9    15    1
     4    20    1
     2    23    1
     5    21    1
     5    22    1
     3    24    1
     6    23    1
     4    25    1
     9    21    1
     7    23    1
     4    26    1
     9    22    1
     4    27    1
     8    24    1
     7    25    1
     4    28    1
    10    23    1
     9    24    1
     7    26    1
     4    29    1
    11    23    1
     7    27    1
     6    28    1
     4    30    1
    16    19    1
    12    23    1
     4    31    1
    17    19    1
    16    20    1
     4    32    1
    18    19    1
    17    20    1
     4    33    1
    18    20    1
     4    34    1
    19    21    1
    11    29    1
    20    21    1
    19    22    1
    12    29    1
    11    30    1
    20    22    1
    12    30    1
    11    31    1
    10    32    1
    12    31    1
    10    33    1
    21    23    1
    12    32    1
    10    34    1
    22    23    1
    12    33    1
    12    34    1
    23    24    1
    12    35    1
    12    36    1
    24    25    1
    12    37    1
    24    26    1
    15    35    1
    24    27    1
    15    36    1
    24    28    1
    15    37    1

