LIGPARGEN GENERATED GRO FILE
   37
    1UNK    C00    1   0.100   0.100   0.000
    1UNK    C01    2  -0.052   0.100   0.000
    1UNK    C02    3  -0.108   0.100   0.143
    1UNK    C03    4  -0.263   0.109   0.161
    1UNK    C04    5  -0.335  -0.017   0.100
    1UNK    C05    6  -0.487  -0.027   0.120
    1UNK    C06    7  -0.321  -0.021  -0.051
    1UNK    O07    8  -0.307  -0.125  -0.114
    1UNK    C08    9  -0.296   0.137   0.315
    1UNK    C09   10  -0.242   0.024   0.405
    1UNK    C0A   11  -0.236   0.269   0.367
    1UNK    O0B   12  -0.439   0.139   0.343
    1UNK    C0C   13  -0.520   0.235   0.291
    1UNK    C0D   14  -0.663   0.210   0.331
    1UNK    O0E   15  -0.485   0.325   0.216
    1UNK    H0F   16   0.138   0.100  -0.103
    1UNK    H0G   17   0.139   0.011   0.050
    1UNK    H0H   18   0.140   0.188   0.051
    1UNK    H0I   19  -0.083   0.010  -0.054
    1UNK    H0J   20  -0.089   0.188  -0.055
    1UNK    H0K   21  -0.061   0.185   0.193
    1UNK    H0M   22  -0.071   0.010   0.193
    1UNK    H0N   23  -0.297   0.196   0.104
    1UNK    H0O   24  -0.289  -0.108   0.140
    1UNK    H0P   25  -0.537   0.065   0.087
    1UNK    H0Q   26  -0.513  -0.049   0.223
    1UNK    H0R   27  -0.529  -0.108   0.060
    1UNK    H0S   28  -0.333   0.076  -0.104
    1UNK    H0T   29  -0.133   0.019   0.405
    1UNK    H0U   30  -0.281  -0.074   0.373
    1UNK    H0V   31  -0.275   0.038   0.508
    1UNK    H0W   32  -0.127   0.263   0.379
    1UNK    H0X   33  -0.278   0.295   0.465
    1UNK    H0Y   34  -0.257   0.353   0.300
    1UNK    H0Z   35  -0.669   0.130   0.405
    1UNK    H10   36  -0.720   0.179   0.243
    1UNK    H11   37  -0.705   0.300   0.374
   1.00000   1.00000   1.00000

