LIGPARGEN GENERATED GRO FILE
   46
    1UNK    C00    1   0.100   0.100   0.000
    1UNK    C01    2  -0.050   0.100   0.000
    1UNK    C02    3  -0.126   0.100   0.137
    1UNK    C03    4  -0.108   0.015   0.262
    1UNK    C04    5  -0.252   0.038   0.315
    1UNK    C05    6  -0.334   0.083   0.168
    1UNK    C06    7  -0.261   0.209   0.162
    1UNK    C07    8  -0.202   0.342   0.111
    1UNK    C08    9  -0.089   0.393   0.206
    1UNK    C09   10  -0.384   0.267   0.284
    1UNK    C0A   11  -0.521   0.182   0.313
    1UNK    C0B   12  -0.631   0.220   0.412
    1UNK    O0C   13  -0.718   0.105   0.412
    1UNK    C0D   14  -0.834   0.118   0.494
    1UNK    C0E   15  -0.319   0.265   0.415
    1UNK    O0F   16  -0.345   0.346   0.506
    1UNK    C0G   17  -0.220   0.153   0.426
    1UNK    C0H   18  -0.191   0.109   0.568
    1UNK    H0I   19   0.135   0.069  -0.100
    1UNK    H0J   20   0.141   0.028   0.071
    1UNK    H0K   21   0.139   0.200   0.019
    1UNK    H0M   22  -0.074   0.005  -0.054
    1UNK    H0N   23  -0.090   0.174  -0.069
    1UNK    H0O   24  -0.168   0.009   0.092
    1UNK    H0P   25  -0.026   0.049   0.325
    1UNK    H0Q   26  -0.092  -0.092   0.242
    1UNK    H0R   27  -0.298  -0.051   0.359
    1UNK    H0S   28  -0.439   0.094   0.152
    1UNK    H0T   29  -0.328   0.008   0.088
    1UNK    H0U   30  -0.276   0.422   0.104
    1UNK    H0V   31  -0.158   0.336   0.012
    1UNK    H0W   32  -0.129   0.427   0.303
    1UNK    H0X   33  -0.034   0.478   0.163
    1UNK    H0Y   34  -0.014   0.316   0.228
    1UNK    H0Z   35  -0.414   0.369   0.256
    1UNK    H10   36  -0.493   0.081   0.346
    1UNK    H11   37  -0.578   0.171   0.219
    1UNK    H12   38  -0.686   0.307   0.377
    1UNK    H13   39  -0.592   0.235   0.513
    1UNK    H14   40  -0.892   0.027   0.486
    1UNK    H15   41  -0.895   0.202   0.459
    1UNK    H16   42  -0.804   0.133   0.598
    1UNK    H17   43  -0.128   0.206   0.397
    1UNK    H18   44  -0.277   0.063   0.616
    1UNK    H19   45  -0.163   0.197   0.629
    1UNK    H1A   46  -0.105   0.041   0.570
   1.00000   1.00000   1.00000

