LIGPARGEN GENERATED GRO FILE
   41
    1UNK    C00    1   0.100   0.100   0.000
    1UNK    C01    2  -0.052   0.100   0.000
    1UNK    C02    3  -0.106   0.100   0.143
    1UNK    C03    4  -0.260   0.114   0.151
    1UNK    C04    5  -0.330  -0.007   0.087
    1UNK    C05    6  -0.314   0.139   0.294
    1UNK    C06    7  -0.283   0.030   0.401
    1UNK    C07    8  -0.408  -0.004   0.487
    1UNK    O08    9  -0.398   0.045   0.622
    1UNK    C09   10  -0.356   0.183   0.636
    1UNK    C0A   11  -0.481   0.266   0.673
    1UNK    C0B   12  -0.270   0.237   0.515
    1UNK    C0C   13  -0.188   0.104   0.494
    1UNK    C0D   14  -0.261   0.269   0.361
    1UNK    C0E   15  -0.329   0.397   0.313
    1UNK    H0F   16   0.138   0.100  -0.103
    1UNK    H0G   17   0.139   0.011   0.051
    1UNK    H0H   18   0.139   0.189   0.051
    1UNK    H0I   19  -0.087   0.012  -0.054
    1UNK    H0J   20  -0.088   0.189  -0.054
    1UNK    H0K   21  -0.058   0.183   0.195
    1UNK    H0M   22  -0.075   0.008   0.194
    1UNK    H0N   23  -0.288   0.202   0.091
    1UNK    H0O   24  -0.298  -0.100   0.134
    1UNK    H0P   25  -0.309  -0.013  -0.020
    1UNK    H0Q   26  -0.439   0.001   0.098
    1UNK    H0R   27  -0.423   0.148   0.283
    1UNK    H0S   28  -0.240  -0.061   0.358
    1UNK    H0T   29  -0.416  -0.113   0.495
    1UNK    H0U   30  -0.501   0.032   0.444
    1UNK    H0V   31  -0.292   0.186   0.726
    1UNK    H0W   32  -0.564   0.244   0.605
    1UNK    H0X   33  -0.460   0.373   0.670
    1UNK    H0Y   34  -0.515   0.239   0.773
    1UNK    H0Z   35  -0.374   0.253   0.484
    1UNK    H10   36  -0.164   0.049   0.585
    1UNK    H11   37  -0.090   0.122   0.447
    1UNK    H12   38  -0.154   0.287   0.339
    1UNK    H13   39  -0.437   0.385   0.305
    1UNK    H14   40  -0.291   0.424   0.214
    1UNK    H15   41  -0.307   0.480   0.381
   1.00000   1.00000   1.00000

