LIGPARGEN GENERATED GRO FILE
   40
    1UNK    C00    1   0.100   0.100   0.000
    1UNK    C01    2  -0.052   0.100   0.000
    1UNK    C02    3  -0.110   0.100   0.142
    1UNK    C03    4  -0.263   0.100   0.135
    1UNK    C04    5  -0.333   0.093   0.272
    1UNK    C05    6  -0.306   0.209   0.371
    1UNK    C06    7  -0.341   0.347   0.310
    1UNK    C07    8  -0.312   0.471   0.395
    1UNK    C08    9  -0.166   0.486   0.436
    1UNK    S09   10  -0.404   0.179   0.523
    1UNK    O0A   11  -0.373   0.282   0.621
    1UNK    O0B   12  -0.542   0.153   0.486
    1UNK    C0C   13  -0.338   0.029   0.593
    1UNK    C0D   14  -0.413  -0.005   0.721
    1UNK    C0E   15  -0.357  -0.128   0.786
    1UNK    O0F   16  -0.262  -0.192   0.741
    1UNK    H0G   17   0.137   0.105  -0.103
    1UNK    H0H   18   0.139   0.009   0.046
    1UNK    H0I   19   0.139   0.186   0.054
    1UNK    H0J   20  -0.087   0.012  -0.055
    1UNK    H0K   21  -0.087   0.188  -0.054
    1UNK    H0M   22  -0.075   0.188   0.196
    1UNK    H0N   23  -0.075   0.011   0.196
    1UNK    H0O   24  -0.295   0.012   0.078
    1UNK    H0P   25  -0.298   0.187   0.079
    1UNK    H0Q   26  -0.305  -0.002   0.318
    1UNK    H0R   27  -0.441   0.087   0.252
    1UNK    H0S   28  -0.201   0.207   0.402
    1UNK    H0T   29  -0.448   0.348   0.284
    1UNK    H0U   30  -0.287   0.359   0.216
    1UNK    H0V   31  -0.376   0.474   0.483
    1UNK    H0W   32  -0.340   0.560   0.336
    1UNK    H0X   33  -0.130   0.399   0.492
    1UNK    H0Y   34  -0.154   0.574   0.500
    1UNK    H0Z   35  -0.102   0.500   0.348
    1UNK    H10   36  -0.232   0.047   0.613
    1UNK    H11   37  -0.349  -0.051   0.520
    1UNK    H12   38  -0.519  -0.025   0.700
    1UNK    H13   39  -0.407   0.077   0.793
    1UNK    H14   40  -0.406  -0.159   0.880
   1.00000   1.00000   1.00000

