LIGPARGEN GENERATED GRO FILE
   62
    1UNK    C00    1   0.100   0.100   0.000
    1UNK    C01    2  -0.052   0.100   0.000
    1UNK    C02    3  -0.107   0.100   0.142
    1UNK    C03    4  -0.260   0.100   0.139
    1UNK    C04    5  -0.319   0.100   0.279
    1UNK    C05    6  -0.471   0.100   0.272
    1UNK    C06    7  -0.529   0.100   0.411
    1UNK    C07    8  -0.682   0.100   0.411
    1UNK    C08    9  -0.727   0.114   0.555
    1UNK    C09   10  -0.876   0.132   0.576
    1UNK    C0A   11  -0.923   0.136   0.725
    1UNK    C0B   12  -0.873   0.259   0.809
    1UNK    C0C   13  -0.721   0.267   0.829
    1UNK    C0D   14  -0.667   0.379   0.919
    1UNK    C0E   15  -0.514   0.375   0.912
    1UNK    C0F   16  -0.447   0.491   0.984
    1UNK    C0G   17  -1.080   0.125   0.734
    1UNK    C0H   18  -1.151   0.242   0.665
    1UNK    C0I   19  -1.139  -0.007   0.678
    1UNK    C0J   20  -1.093  -0.133   0.750
    1UNK    H0K   21   0.137   0.100  -0.103
    1UNK    H0M   22   0.139   0.011   0.051
    1UNK    H0N   23   0.139   0.189   0.050
    1UNK    H0O   24  -0.088   0.012  -0.054
    1UNK    H0P   25  -0.088   0.188  -0.054
    1UNK    H0Q   26  -0.071   0.189   0.196
    1UNK    H0R   27  -0.071   0.012   0.196
    1UNK    H0S   28  -0.295   0.011   0.085
    1UNK    H0T   29  -0.296   0.188   0.084
    1UNK    H0U   30  -0.284   0.188   0.334
    1UNK    H0V   31  -0.284   0.012   0.334
    1UNK    H0W   32  -0.506   0.012   0.217
    1UNK    H0X   33  -0.505   0.189   0.217
    1UNK    H0Y   34  -0.492   0.188   0.465
    1UNK    H0Z   35  -0.493   0.012   0.467
    1UNK    H10   36  -0.721   0.008   0.366
    1UNK    H11   37  -0.719   0.184   0.352
    1UNK    H12   38  -0.676   0.203   0.586
    1UNK    H13   39  -0.690   0.030   0.616
    1UNK    H14   40  -0.925   0.048   0.525
    1UNK    H15   41  -0.908   0.224   0.525
    1UNK    H16   42  -0.881   0.047   0.774
    1UNK    H17   43  -0.919   0.254   0.908
    1UNK    H18   44  -0.906   0.352   0.762
    1UNK    H19   45  -0.676   0.292   0.734
    1UNK    H1A   46  -0.682   0.170   0.862
    1UNK    H1B   47  -0.702   0.366   1.022
    1UNK    H1C   48  -0.704   0.476   0.882
    1UNK    H1D   49  -0.481   0.378   0.807
    1UNK    H1E   50  -0.477   0.280   0.953
    1UNK    H1F   51  -0.473   0.586   0.937
    1UNK    H1G   52  -0.339   0.480   0.980
    1UNK    H1H   53  -0.478   0.494   1.089
    1UNK    H1I   54  -1.106   0.129   0.841
    1UNK    H1J   55  -1.131   0.245   0.557
    1UNK    H1K   56  -1.121   0.339   0.707
    1UNK    H1M   57  -1.260   0.234   0.678
    1UNK    H1N   58  -1.118  -0.017   0.571
    1UNK    H1O   59  -1.248  -0.002   0.686
    1UNK    H1P   60  -0.985  -0.145   0.746
    1UNK    H1Q   61  -1.138  -0.221   0.703
    1UNK    H1R   62  -1.125  -0.131   0.855
   1.00000   1.00000   1.00000

