LIGPARGEN GENERATED GRO FILE
   40
    1UNK    C00    1   0.100   0.100   0.000
    1UNK    C01    2  -0.051   0.100   0.000
    1UNK    O02    3  -0.116   0.100   0.105
    1UNK    C03    4  -0.120   0.094  -0.134
    1UNK    C04    5  -0.225   0.204  -0.159
    1UNK    C05    6  -0.167   0.352  -0.167
    1UNK    C06    7  -0.094   0.393  -0.036
    1UNK    C07    8  -0.063   0.366  -0.281
    1UNK    C08    9  -0.277   0.461  -0.190
    1UNK    C09   10  -0.385   0.463  -0.085
    1UNK    C0A   11  -0.503   0.557  -0.103
    1UNK    N0B   12  -0.518   0.413  -0.118
    1UNK    C0C   13  -0.586   0.348  -0.008
    1UNK    S0D   14  -0.315   0.151  -0.313
    1UNK    C0E   15  -0.405   0.007  -0.263
    1UNK    O0F   16  -0.414   0.249  -0.352
    1UNK    O0G   17  -0.216   0.108  -0.410
    1UNK    H0H   18   0.136   0.143   0.094
    1UNK    H0I   19   0.137   0.162  -0.082
    1UNK    H0J   20   0.137  -0.002  -0.011
    1UNK    H0K   21  -0.166  -0.005  -0.136
    1UNK    H0M   22  -0.044   0.093  -0.213
    1UNK    H0N   23  -0.300   0.201  -0.079
    1UNK    H0O   24   0.006   0.351  -0.030
    1UNK    H0P   25  -0.150   0.361   0.053
    1UNK    H0Q   26  -0.081   0.501  -0.029
    1UNK    H0R   27   0.023   0.301  -0.264
    1UNK    H0S   28  -0.025   0.468  -0.286
    1UNK    H0T   29  -0.105   0.342  -0.379
    1UNK    H0U   30  -0.319   0.453  -0.291
    1UNK    H0V   31  -0.229   0.560  -0.189
    1UNK    H0W   32  -0.349   0.452   0.016
    1UNK    H0X   33  -0.508   0.616  -0.194
    1UNK    H0Y   34  -0.544   0.605  -0.014
    1UNK    H0Z   35  -0.692   0.340  -0.030
    1UNK    H10   36  -0.575   0.399   0.089
    1UNK    H11   37  -0.547   0.246   0.004
    1UNK    H12   38  -0.455   0.026  -0.168
    1UNK    H13   39  -0.337  -0.078  -0.256
    1UNK    H14   40  -0.480  -0.014  -0.341
   1.00000   1.00000   1.00000

