LIGPARGEN GENERATED GRO FILE
   31
    1UNK    C00    1   0.100   0.100   0.000
    1UNK    C01    2  -0.054   0.100   0.000
    1UNK    C02    3  -0.097   0.100   0.141
    1UNK    N03    4  -0.131   0.100   0.252
    1UNK    C04    5  -0.112   0.220  -0.080
    1UNK    C05    6  -0.069   0.218  -0.227
    1UNK    C06    7  -0.158   0.322  -0.292
    1UNK    C07    8  -0.296   0.295  -0.230
    1UNK    C08    9  -0.384   0.419  -0.238
    1UNK    C09   10  -0.269   0.235  -0.088
    1UNK    C0A   11  -0.344   0.101  -0.079
    1UNK    C0B   12  -0.319   0.326   0.026
    1UNK    H0C   13   0.138   0.012   0.052
    1UNK    H0D   14   0.140   0.188   0.052
    1UNK    H0E   15   0.141   0.098  -0.101
    1UNK    H0F   16  -0.086   0.007  -0.047
    1UNK    H0G   17  -0.071   0.312  -0.035
    1UNK    H0H   18  -0.085   0.119  -0.272
    1UNK    H0I   19   0.037   0.245  -0.240
    1UNK    H0J   20  -0.160   0.311  -0.401
    1UNK    H0K   21  -0.123   0.422  -0.268
    1UNK    H0M   22  -0.344   0.218  -0.292
    1UNK    H0N   23  -0.340   0.505  -0.187
    1UNK    H0O   24  -0.483   0.400  -0.196
    1UNK    H0P   25  -0.399   0.449  -0.343
    1UNK    H0Q   26  -0.309   0.030  -0.155
    1UNK    H0R   27  -0.452   0.116  -0.095
    1UNK    H0S   28  -0.333   0.053   0.019
    1UNK    H0T   29  -0.271   0.425   0.022
    1UNK    H0U   30  -0.296   0.284   0.125
    1UNK    H0V   31  -0.427   0.340   0.022
   1.00000   1.00000   1.00000

