LIGPARGEN GENERATED GRO FILE
   28
    1UNK    C00    1   0.100   0.100   0.000
    1UNK    C01    2  -0.052   0.100   0.000
    1UNK    C02    3  -0.110   0.100   0.142
    1UNK    C03    4  -0.081  -0.029   0.227
    1UNK    C04    5  -0.057  -0.009   0.376
    1UNK    C05    6  -0.222  -0.080   0.188
    1UNK    C06    7  -0.259   0.066   0.160
    1UNK    C07    8  -0.355   0.089   0.043
    1UNK    C08    9  -0.415   0.214   0.112
    1UNK    S09   10  -0.361   0.154   0.269
    1UNK    O0A   11  -0.462   0.069   0.330
    1UNK    O0B   12  -0.291   0.257   0.343
    1UNK    H0C   13   0.138   0.100  -0.103
    1UNK    H0D   14   0.140   0.011   0.050
    1UNK    H0E   15   0.140   0.188   0.051
    1UNK    H0F   16  -0.087   0.013  -0.056
    1UNK    H0G   17  -0.087   0.190  -0.053
    1UNK    H0H   18  -0.079   0.193   0.193
    1UNK    H0I   19  -0.001  -0.093   0.187
    1UNK    H0J   20  -0.140   0.045   0.424
    1UNK    H0K   21   0.034   0.049   0.393
    1UNK    H0M   22  -0.047  -0.105   0.427
    1UNK    H0N   23  -0.278  -0.131   0.266
    1UNK    H0O   24  -0.221  -0.143   0.098
    1UNK    H0P   25  -0.429   0.009   0.031
    1UNK    H0Q   26  -0.312   0.109  -0.055
    1UNK    H0R   27  -0.523   0.225   0.103
    1UNK    H0S   28  -0.366   0.308   0.085
   1.00000   1.00000   1.00000

