LIGPARGEN GENERATED GRO FILE
   29
    1UNK    C00    1   0.100   0.100   0.000
    1UNK    C01    2  -0.053   0.100   0.000
    1UNK    C02    3  -0.105   0.100   0.144
    1UNK    C03    4  -0.110   0.221  -0.074
    1UNK    C04    5  -0.076   0.227  -0.221
    1UNK    O05    6  -0.019   0.322  -0.274
    1UNK    O06    7  -0.125   0.119  -0.288
    1UNK    C07    8  -0.140   0.137  -0.430
    1UNK    C08    9  -0.009   0.127  -0.506
    1UNK    S09   10  -0.041   0.150  -0.680
    1UNK    C0A   11   0.121   0.144  -0.753
    1UNK    O0B   12  -0.115   0.035  -0.728
    1UNK    O0C   13  -0.092   0.284  -0.700
    1UNK    H0D   14   0.138   0.013   0.055
    1UNK    H0E   15   0.140   0.190   0.047
    1UNK    H0F   16   0.139   0.095  -0.102
    1UNK    H0G   17  -0.087   0.008  -0.049
    1UNK    H0H   18  -0.073   0.190   0.198
    1UNK    H0I   19  -0.067   0.013   0.199
    1UNK    H0J   20  -0.214   0.097   0.146
    1UNK    H0K   21  -0.073   0.314  -0.028
    1UNK    H0M   22  -0.219   0.224  -0.067
    1UNK    H0N   23  -0.192   0.231  -0.449
    1UNK    H0O   24  -0.208   0.057  -0.463
    1UNK    H0P   25   0.037   0.029  -0.492
    1UNK    H0Q   26   0.062   0.203  -0.475
    1UNK    H0R   27   0.164   0.045  -0.735
    1UNK    H0S   28   0.183   0.222  -0.708
    1UNK    H0T   29   0.111   0.161  -0.860
   1.00000   1.00000   1.00000

