
;
; GENERATED BY LigParGen Server
; Jorgensen Lab @ Yale University 
;
[ atomtypes ]
  opls_818  H818     1.0080     0.000    A    2.50000E-01   1.25520E-01
  opls_805  C805    12.0110     0.000    A    3.45000E-01   3.47272E-01
  opls_824  H824     1.0080     0.000    A    2.50000E-01   1.25520E-01
  opls_802  C802    12.0110     0.000    A    3.45000E-01   3.47272E-01
  opls_813  H813     1.0080     0.000    A    2.50000E-01   1.25520E-01
  opls_807  C807    12.0110     0.000    A    3.45000E-01   3.47272E-01
  opls_815  H815     1.0080     0.000    A    2.50000E-01   1.25520E-01
  opls_801  C801    12.0110     0.000    A    3.50000E-01   2.76144E-01
  opls_822  H822     1.0080     0.000    A    2.50000E-01   1.25520E-01
  opls_811  O811    15.9990     0.000    A    2.96000E-01   7.11280E-01
  opls_808  C808    12.0110     0.000    A    3.45000E-01   3.47272E-01
  opls_825  H825     1.0080     0.000    A    2.50000E-01   1.25520E-01
  opls_826  H826     1.0080     0.000    A    2.50000E-01   1.25520E-01
  opls_814  H814     1.0080     0.000    A    2.50000E-01   1.25520E-01
  opls_821  H821     1.0080     0.000    A    2.50000E-01   1.25520E-01
  opls_820  H820     1.0080     0.000    A    2.50000E-01   1.25520E-01
  opls_803  C803    12.0110     0.000    A    3.45000E-01   3.47272E-01
  opls_809  S809    32.0600     0.000    A    3.55000E-01   1.04600E+00
  opls_816  H816     1.0080     0.000    A    2.50000E-01   1.25520E-01
  opls_800  C800    12.0110     0.000    A    3.50000E-01   2.76144E-01
  opls_823  H823     1.0080     0.000    A    2.50000E-01   1.25520E-01
  opls_806  C806    12.0110     0.000    A    3.45000E-01   3.47272E-01
  opls_819  H819     1.0080     0.000    A    2.50000E-01   1.25520E-01
  opls_804  C804    12.0110     0.000    A    3.50000E-01   2.76144E-01
  opls_827  H827     1.0080     0.000    A    2.50000E-01   1.25520E-01
  opls_810  O810    15.9990     0.000    A    2.96000E-01   7.11280E-01
  opls_817  H817     1.0080     0.000    A    2.50000E-01   1.25520E-01
  opls_812  H812     1.0080     0.000    A    2.50000E-01   1.25520E-01
[ moleculetype ]
; Name               nrexcl
UNK                   3
[ atoms ]
;   nr       type  resnr residue  atom   cgnr     charge       mass  
     1   opls_800      1    UNK   C00      1    -0.2378    12.0110 
     2   opls_801      1    UNK   C01      1    -0.1562    12.0110 
     3   opls_802      1    UNK   C02      1    -0.0578    12.0110 
     4   opls_803      1    UNK   C03      1    -0.1452    12.0110 
     5   opls_804      1    UNK   C04      1     -0.227    12.0110 
     6   opls_805      1    UNK   C05      1    -0.1428    12.0110 
     7   opls_806      1    UNK   C06      1    -0.4466    12.0110 
     8   opls_807      1    UNK   C07      1    -0.1242    12.0110 
     9   opls_808      1    UNK   C08      1    -0.5236    12.0110 
    10   opls_809      1    UNK   S09      1     1.3416    32.0600 
    11   opls_810      1    UNK   O0A      1    -0.5452    15.9990 
    12   opls_811      1    UNK   O0B      1    -0.5452    15.9990 
    13   opls_812      1    UNK   H0C      1     0.0855     1.0080 
    14   opls_813      1    UNK   H0D      1     0.0855     1.0080 
    15   opls_814      1    UNK   H0E      1     0.0855     1.0080 
    16   opls_815      1    UNK   H0F      1     0.0933     1.0080 
    17   opls_816      1    UNK   H0G      1     0.0933     1.0080 
    18   opls_817      1    UNK   H0H      1     0.1316     1.0080 
    19   opls_818      1    UNK   H0I      1     0.1149     1.0080 
    20   opls_819      1    UNK   H0J      1       0.09     1.0080 
    21   opls_820      1    UNK   H0K      1       0.09     1.0080 
    22   opls_821      1    UNK   H0M      1       0.09     1.0080 
    23   opls_822      1    UNK   H0N      1     0.1208     1.0080 
    24   opls_823      1    UNK   H0O      1     0.1208     1.0080 
    25   opls_824      1    UNK   H0P      1     0.1316     1.0080 
    26   opls_825      1    UNK   H0Q      1     0.1316     1.0080 
    27   opls_826      1    UNK   H0R      1     0.1729     1.0080 
    28   opls_827      1    UNK   H0S      1     0.1729     1.0080 
[ bonds ]
    2     1     1      0.1529 224262.400
    3     2     1      0.1510 234304.000
    4     3     1      0.1520 217568.000
    5     4     1      0.1510 234304.000
    6     4     1      0.1520 217568.000
    7     3     1      0.1520 217568.000
    8     7     1      0.1520 217568.000
    9     8     1      0.1520 217568.000
   10     7     1      0.1810 185769.600
   11    10     1      0.1440 585760.000
   12    10     1      0.1440 585760.000
   13     1     1      0.1090 284512.000
   14     1     1      0.1090 284512.000
   15     1     1      0.1090 284512.000
   16     2     1      0.1090 284512.000
   17     2     1      0.1090 284512.000
   18     3     1      0.1088 284512.000
   19     4     1      0.1088 284512.000
   20     5     1      0.1090 284512.000
   21     5     1      0.1090 284512.000
   22     5     1      0.1090 284512.000
   23     6     1      0.1088 284512.000
   24     6     1      0.1088 284512.000
   25     8     1      0.1088 284512.000
   26     8     1      0.1088 284512.000
   27     9     1      0.1088 284512.000
   28     9     1      0.1088 284512.000
    7     6     1      0.1520 217568.000
   10     9     1      0.1810 185769.600

[ angles ]
;  ai    aj    ak funct            c0            c1            c2            c3 
    1     2     3     1    112.700    488.273
    2     3     4     1    117.200    313.800
    3     4     5     1    117.200    313.800
    3     4     6     1     83.000    251.040
    2     3     7     1    117.200    313.800
    3     7     8     1     83.000    251.040
    7     8     9     1     83.000    251.040
    3     7    10     1    128.000    460.240
    7    10    11     1    108.900    619.232
    7    10    12     1    108.900    619.232
    2     1    13     1    110.700    313.800
    2     1    14     1    110.700    313.800
    2     1    15     1    110.700    313.800
    1     2    16     1    110.700    313.800
    1     2    17     1    110.700    313.800
    2     3    18     1    114.300    292.880
    3     4    19     1    117.200    313.800
    4     5    20     1    110.700    313.800
    4     5    21     1    110.700    313.800
    4     5    22     1    110.700    313.800
    4     6    23     1    117.200    313.800
    4     6    24     1    117.200    313.800
    7     8    25     1    117.200    313.800
    7     8    26     1    117.200    313.800
    8     9    27     1    117.200    313.800
    8     9    28     1    117.200    313.800
   11    10    12     1    119.000    870.272
    5     4     6     1    117.200    313.800
    9     8    25     1    117.200    313.800
    7     6    24     1    117.200    313.800
   13     1    14     1    107.800    276.144
   20     5    22     1    107.800    276.144
   10     9    28     1    108.000    313.800
    4     6     7     1     83.000    251.040
    8     9    10     1    128.000    460.240
   21     5    22     1    107.800    276.144
    3     2    17     1    110.700    313.800
    7     6    23     1    117.200    313.800
    6     4    19     1    117.200    313.800
    6     7    10     1    128.000    460.240
    4     3     7     1     83.000    251.040
   25     8    26     1    114.300    292.880
    3     7     6     1     83.000    251.040
    6     7     8     1     83.000    251.040
    3     2    16     1    110.700    313.800
    4     3    18     1    117.200    313.800
    9    10    12     1    108.900    619.232
   16     2    17     1    107.800    276.144
   14     1    15     1    107.800    276.144
    5     4    19     1    114.300    292.880
   27     9    28     1    114.300    292.880
   13     1    15     1    107.800    276.144
   23     6    24     1    114.300    292.880
    7    10     9     1    102.000    518.816
    9    10    11     1    108.900    619.232
    9     8    26     1    117.200    313.800
    7     3    18     1    117.200    313.800
    8     7    10     1    128.000    460.240
   10     9    27     1    108.000    313.800
   20     5    21     1    107.800    276.144

[ dihedrals ]
; IMPROPER DIHEDRAL ANGLES 
;  ai    aj    ak    al funct            c0            c1            c2            c3            c4            c5

[ dihedrals ]
; PROPER DIHEDRAL ANGLES
;  ai    aj    ak    al funct            c0            c1            c2            c3            c4            c5
    5    4    3    2        3       0.000   0.000   0.000  -0.000  -0.000   0.000
    4    3    2    1        3       0.000   0.000   0.000  -0.000  -0.000   0.000
    7    3    2    1        3       0.000   0.000   0.000  -0.000  -0.000   0.000
    7    3    4    5        3       0.000   0.000   0.000  -0.000  -0.000   0.000
    6    4    3    2        3       0.000   0.000   0.000  -0.000  -0.000   0.000
    7    6    4    5        3       0.000   0.000   0.000  -0.000  -0.000   0.000
    6    7    3    2        3       0.000   0.000   0.000  -0.000  -0.000   0.000
    8    7    3    2        3       0.000   0.000   0.000  -0.000  -0.000   0.000
    8    7    6    4        3       0.000   0.000   0.000  -0.000  -0.000   0.000
    9    8    7    6        3       0.000   0.000   0.000  -0.000  -0.000   0.000
    8    7    3    4        3       0.000   0.000   0.000  -0.000  -0.000   0.000
    9    8    7    3        3       0.000   0.000   0.000  -0.000  -0.000   0.000
    9   10    7    3        3       0.000   0.000   0.000  -0.000  -0.000   0.000
    9   10    7    6        3       0.000   0.000   0.000  -0.000  -0.000   0.000
   14    1    2    3        3       0.628   1.883   0.000  -2.510  -0.000   0.000
   15    1    2    3        3       0.628   1.883   0.000  -2.510  -0.000   0.000
   13    1    2    3        3       0.628   1.883   0.000  -2.510  -0.000   0.000
   17    2    1   13        3       0.628   1.883   0.000  -2.510  -0.000   0.000
   16    2    1   14        3       0.628   1.883   0.000  -2.510  -0.000   0.000
   17    2    1   15        3       0.628   1.883   0.000  -2.510  -0.000   0.000
   16    2    1   13        3       0.628   1.883   0.000  -2.510  -0.000   0.000
   16    2    1   15        3       0.628   1.883   0.000  -2.510  -0.000   0.000
   17    2    1   14        3       0.628   1.883   0.000  -2.510  -0.000   0.000
   21    5    4    3        3       0.628   1.883   0.000  -2.510  -0.000   0.000
   17    2    3    7        3       0.628   1.883   0.000  -2.510  -0.000   0.000
   20    5    4    3        3       0.628   1.883   0.000  -2.510  -0.000   0.000
   20    5    4    6        3       0.628   1.883   0.000  -2.510  -0.000   0.000
   17    2    3    4        3       0.628   1.883   0.000  -2.510  -0.000   0.000
   16    2    3    4        3       0.628   1.883   0.000  -2.510  -0.000   0.000
   16    2    3    7        3       0.628   1.883   0.000  -2.510  -0.000   0.000
   21    5    4    6        3       0.628   1.883   0.000  -2.510  -0.000   0.000
   22    5    4    6        3       0.628   1.883   0.000  -2.510  -0.000   0.000
   22    5    4    3        3       0.628   1.883   0.000  -2.510  -0.000   0.000
   21    5    4   19        3       0.628   1.883   0.000  -2.510  -0.000   0.000
   20    5    4   19        3       0.628   1.883   0.000  -2.510  -0.000   0.000
   22    5    4   19        3       0.628   1.883   0.000  -2.510  -0.000   0.000
   18    3    2    1        3       0.628   1.883   0.000  -2.510  -0.000   0.000
   18    3    2   16        3       0.628   1.883   0.000  -2.510  -0.000   0.000
   18    3    2   17        3       0.628   1.883   0.000  -2.510  -0.000   0.000
   19    4    3    2        3       0.000   0.000   0.000  -0.000  -0.000   0.000
   18    3    4    5        3       0.000   0.000   0.000  -0.000  -0.000   0.000
   24    6    4    5        3       0.000   0.000   0.000  -0.000  -0.000   0.000
   23    6    4    5        3       0.000   0.000   0.000  -0.000  -0.000   0.000
   27    9    8    7        3       0.000   0.000   0.000  -0.000  -0.000   0.000
   26    8    7    6        3       0.000   0.000   0.000  -0.000  -0.000   0.000
   18    3    4    6        3       0.000   0.000   0.000  -0.000  -0.000   0.000
   24    6    7    8        3       0.000   0.000   0.000  -0.000  -0.000   0.000
   19    4    6    7        3       0.000   0.000   0.000  -0.000  -0.000   0.000
   19    4    3    7        3       0.000   0.000   0.000  -0.000  -0.000   0.000
   18    3    7    8        3       0.000   0.000   0.000  -0.000  -0.000   0.000
   18    3    7    6        3       0.000   0.000   0.000  -0.000  -0.000   0.000
   25    8    7    3        3       0.000   0.000   0.000  -0.000  -0.000   0.000
   23    6    7    8        3       0.000   0.000   0.000  -0.000  -0.000   0.000
   28    9    8    7        3       0.000   0.000   0.000  -0.000  -0.000   0.000
   26    8    7    3        3       0.000   0.000   0.000  -0.000  -0.000   0.000
   23    6    4    3        3       0.000   0.000   0.000  -0.000  -0.000   0.000
   24    6    7    3        3       0.000   0.000   0.000  -0.000  -0.000   0.000
   25    8    7    6        3       0.000   0.000   0.000  -0.000  -0.000   0.000
   23    6    7    3        3       0.000   0.000   0.000  -0.000  -0.000   0.000
   24    6    4    3        3       0.000   0.000   0.000  -0.000  -0.000   0.000
   27    9    8   25        3       0.000   0.000   0.000  -0.000  -0.000   0.000
   19    4    3   18        3       0.000   0.000   0.000  -0.000  -0.000   0.000
   23    6    4   19        3       0.000   0.000   0.000  -0.000  -0.000   0.000
   28    9    8   25        3       0.000   0.000   0.000  -0.000  -0.000   0.000
   28    9    8   26        3       0.000   0.000   0.000  -0.000  -0.000   0.000
   27    9    8   26        3       0.000   0.000   0.000  -0.000  -0.000   0.000
   24    6    4   19        3       0.000   0.000   0.000  -0.000  -0.000   0.000
   26    8    9   10        3       0.000   0.000   0.000  -0.000  -0.000   0.000
   23    6    7   10        3       0.000   0.000   0.000  -0.000  -0.000   0.000
   18    3    7   10        3       0.000   0.000   0.000  -0.000  -0.000   0.000
   25    8    7   10        3       0.000   0.000   0.000  -0.000  -0.000   0.000
   26    8    7   10        3       0.000   0.000   0.000  -0.000  -0.000   0.000
   24    6    7   10        3       0.000   0.000   0.000  -0.000  -0.000   0.000
   25    8    9   10        3       0.000   0.000   0.000  -0.000  -0.000   0.000
   27    9   10    7        3       0.732   2.197   0.000  -2.929  -0.000   0.000
   28    9   10    7        3       0.732   2.197   0.000  -2.929  -0.000   0.000
   28    9   10   11        3       0.732   2.197   0.000  -2.929  -0.000   0.000
   28    9   10   12        3       0.732   2.197   0.000  -2.929  -0.000   0.000
   27    9   10   12        3       0.732   2.197   0.000  -2.929  -0.000   0.000
   27    9   10   11        3       0.732   2.197   0.000  -2.929  -0.000   0.000
   12   10    7    6        3       0.000   0.000   0.000  -0.000  -0.000   0.000
   11   10    7    8        3       0.000   0.000   0.000  -0.000  -0.000   0.000
   12   10    7    8        3       0.000   0.000   0.000  -0.000  -0.000   0.000
   12   10    7    3        3       0.000   0.000   0.000  -0.000  -0.000   0.000
   11   10    7    6        3       0.000   0.000   0.000  -0.000  -0.000   0.000
   11   10    7    3        3       0.000   0.000   0.000  -0.000  -0.000   0.000
   11   10    9    8        3       0.000   0.000   0.000  -0.000  -0.000   0.000
   12   10    9    8        3       0.000   0.000   0.000  -0.000  -0.000   0.000
   10    7    3    2        3       0.000   0.000   0.000  -0.000  -0.000   0.000
   10    7    6    4        3       0.000   0.000   0.000  -0.000  -0.000   0.000
   10    7    3    4        3       0.000   0.000   0.000  -0.000  -0.000   0.000

[ pairs ]
     1     4    1
     2     5    1
     2     6    1
     1     7    1
     2     8    1
     5     7    1
     4     8    1
     3     9    1
     2    10    1
     4    10    1
     3    11    1
     6     9    1
     3    12    1
     3    13    1
     6    11    1
     3    14    1
     6    12    1
     3    15    1
     8    11    1
     1    18    1
     8    12    1
     4    16    1
     4    17    1
     2    19    1
     7    16    1
     5    18    1
     3    20    1
     7    17    1
     6    18    1
     3    21    1
     3    22    1
     8    18    1
     7    19    1
     6    20    1
     3    23    1
     6    21    1
     3    24    1
    10    18    1
     6    22    1
     5    23    1
     3    25    1
    13    16    1
     5    24    1
     3    26    1
    14    16    1
    13    17    1
    15    16    1
    14    17    1
     8    23    1
     6    25    1
    15    17    1
     8    24    1
     6    26    1
    10    23    1
    16    18    1
    10    24    1
     7    27    1
    17    18    1
    10    25    1
     7    28    1
    10    26    1
    18    19    1
    11    27    1
    19    20    1
    12    27    1
    11    28    1
    19    21    1
    12    28    1
    19    22    1
    19    23    1
    19    24    1
    25    27    1
    26    27    1
    25    28    1
    26    28    1

