
;
; GENERATED BY LigParGen Server
; Jorgensen Lab @ Yale University 
;
[ atomtypes ]
  opls_818  H818     1.0080     0.000    A    2.50000E-01   1.25520E-01
  opls_802  C802    12.0110     0.000    A    3.30000E-01   2.76144E-01
  opls_824  H824     1.0080     0.000    A    2.50000E-01   1.25520E-01
  opls_805  C805    12.0110     0.000    A    3.50000E-01   2.76144E-01
  opls_828  H828     1.0080     0.000    A    2.50000E-01   1.25520E-01
  opls_813  H813     1.0080     0.000    A    2.50000E-01   1.25520E-01
  opls_806  C806    12.0110     0.000    A    3.50000E-01   2.76144E-01
  opls_815  H815     1.0080     0.000    A    2.50000E-01   1.25520E-01
  opls_809  C809    12.0110     0.000    A    3.50000E-01   2.76144E-01
  opls_830  H830     1.0080     0.000    A    2.50000E-01   1.25520E-01
  opls_822  H822     1.0080     0.000    A    2.50000E-01   1.25520E-01
  opls_807  C807    12.0110     0.000    A    3.50000E-01   2.76144E-01
  opls_825  H825     1.0080     0.000    A    2.50000E-01   1.25520E-01
  opls_814  H814     1.0080     0.000    A    2.50000E-01   1.25520E-01
  opls_810  C810    12.0110     0.000    A    3.50000E-01   2.76144E-01
  opls_820  H820     1.0080     0.000    A    2.50000E-01   1.25520E-01
  opls_821  H821     1.0080     0.000    A    2.50000E-01   1.25520E-01
  opls_816  H816     1.0080     0.000    A    2.50000E-01   1.25520E-01
  opls_800  C800    12.0110     0.000    A    3.50000E-01   2.76144E-01
  opls_811  C811    12.0110     0.000    A    3.50000E-01   2.76144E-01
  opls_823  H823     1.0080     0.000    A    2.50000E-01   1.25520E-01
  opls_826  H826     1.0080     0.000    A    2.50000E-01   1.25520E-01
  opls_819  H819     1.0080     0.000    A    2.50000E-01   1.25520E-01
  opls_804  C804    12.0110     0.000    A    3.50000E-01   2.76144E-01
  opls_827  H827     1.0080     0.000    A    2.50000E-01   1.25520E-01
  opls_801  C801    12.0110     0.000    A    3.50000E-01   2.76144E-01
  opls_808  C808    12.0110     0.000    A    3.50000E-01   2.76144E-01
  opls_817  H817     1.0080     0.000    A    2.50000E-01   1.25520E-01
  opls_812  H812     1.0080     0.000    A    2.50000E-01   1.25520E-01
  opls_829  H829     1.0080     0.000    A    2.50000E-01   1.25520E-01
  opls_803  N803    14.0070     0.000    A    3.20000E-01   7.11280E-01
[ moleculetype ]
; Name               nrexcl
UNK                   3
[ atoms ]
;   nr       type  resnr residue  atom   cgnr     charge       mass  
     1   opls_800      1    UNK   C00      1    -0.2387    12.0110 
     2   opls_801      1    UNK   C01      1     0.0061    12.0110 
     3   opls_802      1    UNK   C02      1     0.1675    12.0110 
     4   opls_803      1    UNK   N03      1    -0.3979    14.0070 
     5   opls_804      1    UNK   C04      1    -0.1053    12.0110 
     6   opls_805      1    UNK   C05      1    -0.1813    12.0110 
     7   opls_806      1    UNK   C06      1    -0.1835    12.0110 
     8   opls_807      1    UNK   C07      1    -0.1154    12.0110 
     9   opls_808      1    UNK   C08      1    -0.2279    12.0110 
    10   opls_809      1    UNK   C09      1     -0.038    12.0110 
    11   opls_810      1    UNK   C0A      1     -0.232    12.0110 
    12   opls_811      1    UNK   C0B      1    -0.2306    12.0110 
    13   opls_812      1    UNK   H0C      1     0.0955     1.0080 
    14   opls_813      1    UNK   H0D      1     0.0955     1.0080 
    15   opls_814      1    UNK   H0E      1     0.0955     1.0080 
    16   opls_815      1    UNK   H0F      1     0.1333     1.0080 
    17   opls_816      1    UNK   H0G      1     0.1108     1.0080 
    18   opls_817      1    UNK   H0H      1     0.0954     1.0080 
    19   opls_818      1    UNK   H0I      1     0.0954     1.0080 
    20   opls_819      1    UNK   H0J      1     0.0963     1.0080 
    21   opls_820      1    UNK   H0K      1     0.0963     1.0080 
    22   opls_821      1    UNK   H0M      1     0.0984     1.0080 
    23   opls_822      1    UNK   H0N      1     0.0833     1.0080 
    24   opls_823      1    UNK   H0O      1     0.0833     1.0080 
    25   opls_824      1    UNK   H0P      1     0.0833     1.0080 
    26   opls_825      1    UNK   H0Q      1     0.0845     1.0080 
    27   opls_826      1    UNK   H0R      1     0.0845     1.0080 
    28   opls_827      1    UNK   H0S      1     0.0845     1.0080 
    29   opls_828      1    UNK   H0T      1     0.0871     1.0080 
    30   opls_829      1    UNK   H0U      1     0.0871     1.0080 
    31   opls_830      1    UNK   H0V      1     0.0871     1.0080 
[ bonds ]
    2     1     1      0.1529 224262.400
    3     2     1      0.1470 326352.000
    4     3     1      0.1157 543920.000
    5     2     1      0.1529 224262.400
    6     5     1      0.1529 224262.400
    7     6     1      0.1529 224262.400
    8     7     1      0.1529 224262.400
    9     8     1      0.1529 224262.400
   10     5     1      0.1529 224262.400
   11    10     1      0.1529 224262.400
   12    10     1      0.1529 224262.400
   13     1     1      0.1090 284512.000
   14     1     1      0.1090 284512.000
   15     1     1      0.1090 284512.000
   16     2     1      0.1090 284512.000
   17     5     1      0.1090 284512.000
   18     6     1      0.1090 284512.000
   19     6     1      0.1090 284512.000
   20     7     1      0.1090 284512.000
   21     7     1      0.1090 284512.000
   22     8     1      0.1090 284512.000
   23     9     1      0.1090 284512.000
   24     9     1      0.1090 284512.000
   25     9     1      0.1090 284512.000
   26    11     1      0.1090 284512.000
   27    11     1      0.1090 284512.000
   28    11     1      0.1090 284512.000
   29    12     1      0.1090 284512.000
   30    12     1      0.1090 284512.000
   31    12     1      0.1090 284512.000
   10     8     1      0.1529 224262.400

[ angles ]
;  ai    aj    ak funct            c0            c1            c2            c3 
    1     2     3     1    112.700    488.273
    2     3     4     1    180.000   1255.200
    1     2     5     1    112.700    488.273
    2     5     6     1    112.700    488.273
    5     6     7     1    112.700    488.273
    6     7     8     1    112.700    488.273
    7     8     9     1    112.700    488.273
    2     5    10     1    112.700    488.273
    5    10    11     1    112.700    488.273
    5    10    12     1    112.700    488.273
    2     1    13     1    110.700    313.800
    2     1    14     1    110.700    313.800
    2     1    15     1    110.700    313.800
    1     2    16     1    110.700    313.800
    2     5    17     1    110.700    313.800
    5     6    18     1    110.700    313.800
    5     6    19     1    110.700    313.800
    6     7    20     1    110.700    313.800
    6     7    21     1    110.700    313.800
    7     8    22     1    110.700    313.800
    8     9    23     1    110.700    313.800
    8     9    24     1    110.700    313.800
    8     9    25     1    110.700    313.800
   10    11    26     1    110.700    313.800
   10    11    27     1    110.700    313.800
   10    11    28     1    110.700    313.800
   10    12    29     1    110.700    313.800
   10    12    30     1    110.700    313.800
   10    12    31     1    110.700    313.800
   23     9    24     1    107.800    276.144
   13     1    14     1    107.800    276.144
    9     8    10     1    112.700    488.273
    7     6    18     1    110.700    313.800
   18     6    19     1    107.800    276.144
    6     5    10     1    112.700    488.273
   20     7    21     1    107.800    276.144
    6     5    17     1    110.700    313.800
    5     2    16     1    110.700    313.800
   26    11    28     1    107.800    276.144
    3     2    16     1    108.500    292.880
    5    10     8     1    112.700    488.273
   10     8    22     1    110.700    313.800
    8    10    11     1    112.700    488.273
   24     9    25     1    107.800    276.144
   14     1    15     1    107.800    276.144
    7     8    10     1    112.700    488.273
    3     2     5     1    112.700    488.273
    9     8    22     1    110.700    313.800
    7     6    19     1    110.700    313.800
   27    11    28     1    107.800    276.144
    8     7    21     1    110.700    313.800
   30    12    31     1    107.800    276.144
   26    11    27     1    107.800    276.144
    8    10    12     1    112.700    488.273
   10     5    17     1    110.700    313.800
   13     1    15     1    107.800    276.144
   11    10    12     1    112.700    488.273
    8     7    20     1    110.700    313.800
   29    12    31     1    107.800    276.144
   23     9    25     1    107.800    276.144
   29    12    30     1    107.800    276.144

[ dihedrals ]
; IMPROPER DIHEDRAL ANGLES 
;  ai    aj    ak    al funct            c0            c1            c2            c3            c4            c5

[ dihedrals ]
; PROPER DIHEDRAL ANGLES
;  ai    aj    ak    al funct            c0            c1            c2            c3            c4            c5
   11   10    5    6        3       2.301  -1.464   0.837  -1.674  -0.000   0.000
   12   10    8    9        3       2.301  -1.464   0.837  -1.674  -0.000   0.000
   11   10    5    2        3       2.301  -1.464   0.837  -1.674  -0.000   0.000
   12   10    5    6        3       2.301  -1.464   0.837  -1.674  -0.000   0.000
    8   10    5    2        3       2.301  -1.464   0.837  -1.674  -0.000   0.000
   12   10    5    2        3       2.301  -1.464   0.837  -1.674  -0.000   0.000
   10    5    2    1        3       2.301  -1.464   0.837  -1.674  -0.000   0.000
   10    5    6    7        3       2.301  -1.464   0.837  -1.674  -0.000   0.000
    7    8   10    5        3       2.301  -1.464   0.837  -1.674  -0.000   0.000
    8   10    5    6        3       2.301  -1.464   0.837  -1.674  -0.000   0.000
   11   10    8    9        3       2.301  -1.464   0.837  -1.674  -0.000   0.000
   12   10    8    7        3       2.301  -1.464   0.837  -1.674  -0.000   0.000
    9    8   10    5        3       2.301  -1.464   0.837  -1.674  -0.000   0.000
   10    8    7    6        3       2.301  -1.464   0.837  -1.674  -0.000   0.000
    6    5    2    1        3       2.301  -1.464   0.837  -1.674  -0.000   0.000
    7    6    5    2        3       2.301  -1.464   0.837  -1.674  -0.000   0.000
    8    7    6    5        3       2.301  -1.464   0.837  -1.674  -0.000   0.000
    9    8    7    6        3       2.301  -1.464   0.837  -1.674  -0.000   0.000
   11   10    8    7        3       2.301  -1.464   0.837  -1.674  -0.000   0.000
   10    5    2    3        3      -2.720   0.000   2.720  -0.000  -0.000   0.000
    6    5    2    3        3      -2.720   0.000   2.720  -0.000  -0.000   0.000
    5    2    3    4        3       0.000   0.000   0.000  -0.000  -0.000   0.000
   26   11   10    5        3       0.628   1.883   0.000  -2.510  -0.000   0.000
   25    9    8    7        3       0.628   1.883   0.000  -2.510  -0.000   0.000
   31   12   10   11        3       0.628   1.883   0.000  -2.510  -0.000   0.000
   23    9    8   10        3       0.628   1.883   0.000  -2.510  -0.000   0.000
   18    6    5   10        3       0.628   1.883   0.000  -2.510  -0.000   0.000
   18    6    7    8        3       0.628   1.883   0.000  -2.510  -0.000   0.000
   30   12   10    8        3       0.628   1.883   0.000  -2.510  -0.000   0.000
   29   12   10   11        3       0.628   1.883   0.000  -2.510  -0.000   0.000
   24    9    8    7        3       0.628   1.883   0.000  -2.510  -0.000   0.000
   19    6    5    2        3       0.628   1.883   0.000  -2.510  -0.000   0.000
   27   11   10    8        3       0.628   1.883   0.000  -2.510  -0.000   0.000
   28   11   10    5        3       0.628   1.883   0.000  -2.510  -0.000   0.000
   23    9    8    7        3       0.628   1.883   0.000  -2.510  -0.000   0.000
   19    6    5   10        3       0.628   1.883   0.000  -2.510  -0.000   0.000
   25    9    8   10        3       0.628   1.883   0.000  -2.510  -0.000   0.000
   21    7    8    9        3       0.628   1.883   0.000  -2.510  -0.000   0.000
   20    7    8   10        3       0.628   1.883   0.000  -2.510  -0.000   0.000
   31   12   10    5        3       0.628   1.883   0.000  -2.510  -0.000   0.000
   22    8   10    5        3       0.628   1.883   0.000  -2.510  -0.000   0.000
   13    1    2    5        3       0.628   1.883   0.000  -2.510  -0.000   0.000
   15    1    2    5        3       0.628   1.883   0.000  -2.510  -0.000   0.000
   28   11   10   12        3       0.628   1.883   0.000  -2.510  -0.000   0.000
   26   11   10    8        3       0.628   1.883   0.000  -2.510  -0.000   0.000
   18    6    5    2        3       0.628   1.883   0.000  -2.510  -0.000   0.000
   19    6    7    8        3       0.628   1.883   0.000  -2.510  -0.000   0.000
   17    5   10    8        3       0.628   1.883   0.000  -2.510  -0.000   0.000
   30   12   10   11        3       0.628   1.883   0.000  -2.510  -0.000   0.000
   26   11   10   12        3       0.628   1.883   0.000  -2.510  -0.000   0.000
   22    8   10   11        3       0.628   1.883   0.000  -2.510  -0.000   0.000
   22    8   10   12        3       0.628   1.883   0.000  -2.510  -0.000   0.000
   31   12   10    8        3       0.628   1.883   0.000  -2.510  -0.000   0.000
   16    2    5    6        3       0.628   1.883   0.000  -2.510  -0.000   0.000
   17    5    6    7        3       0.628   1.883   0.000  -2.510  -0.000   0.000
   29   12   10    8        3       0.628   1.883   0.000  -2.510  -0.000   0.000
   24    9    8   10        3       0.628   1.883   0.000  -2.510  -0.000   0.000
   17    5   10   12        3       0.628   1.883   0.000  -2.510  -0.000   0.000
   22    8    7    6        3       0.628   1.883   0.000  -2.510  -0.000   0.000
   29   12   10    5        3       0.628   1.883   0.000  -2.510  -0.000   0.000
   20    7    6    5        3       0.628   1.883   0.000  -2.510  -0.000   0.000
   16    2    5   10        3       0.628   1.883   0.000  -2.510  -0.000   0.000
   27   11   10   12        3       0.628   1.883   0.000  -2.510  -0.000   0.000
   27   11   10    5        3       0.628   1.883   0.000  -2.510  -0.000   0.000
   17    5   10   11        3       0.628   1.883   0.000  -2.510  -0.000   0.000
   30   12   10    5        3       0.628   1.883   0.000  -2.510  -0.000   0.000
   14    1    2    5        3       0.628   1.883   0.000  -2.510  -0.000   0.000
   21    7    8   10        3       0.628   1.883   0.000  -2.510  -0.000   0.000
   20    7    8    9        3       0.628   1.883   0.000  -2.510  -0.000   0.000
   17    5    2    1        3       0.628   1.883   0.000  -2.510  -0.000   0.000
   21    7    6    5        3       0.628   1.883   0.000  -2.510  -0.000   0.000
   28   11   10    8        3       0.628   1.883   0.000  -2.510  -0.000   0.000
   14    1    2    3        3       0.766   2.297   0.000  -3.063  -0.000   0.000
   17    5    2    3        3       0.766   2.297   0.000  -3.063  -0.000   0.000
   13    1    2    3        3       0.766   2.297   0.000  -3.063  -0.000   0.000
   15    1    2    3        3       0.766   2.297   0.000  -3.063  -0.000   0.000
   25    9    8   22        3       0.628   1.883   0.000  -2.510  -0.000   0.000
   16    2    1   13        3       0.628   1.883   0.000  -2.510  -0.000   0.000
   22    8    7   20        3       0.628   1.883   0.000  -2.510  -0.000   0.000
   22    8    7   21        3       0.628   1.883   0.000  -2.510  -0.000   0.000
   19    6    5   17        3       0.628   1.883   0.000  -2.510  -0.000   0.000
   17    5    2   16        3       0.628   1.883   0.000  -2.510  -0.000   0.000
   23    9    8   22        3       0.628   1.883   0.000  -2.510  -0.000   0.000
   24    9    8   22        3       0.628   1.883   0.000  -2.510  -0.000   0.000
   18    6    5   17        3       0.628   1.883   0.000  -2.510  -0.000   0.000
   16    2    1   15        3       0.628   1.883   0.000  -2.510  -0.000   0.000
   16    2    1   14        3       0.628   1.883   0.000  -2.510  -0.000   0.000
   20    7    6   18        3       0.628   1.883   0.000  -2.510  -0.000   0.000
   20    7    6   19        3       0.628   1.883   0.000  -2.510  -0.000   0.000
   21    7    6   18        3       0.628   1.883   0.000  -2.510  -0.000   0.000
   21    7    6   19        3       0.628   1.883   0.000  -2.510  -0.000   0.000
   16    2    3    4        3       0.000   0.000   0.000  -0.000  -0.000   0.000
    4    3    2    1        3       0.000   0.000   0.000  -0.000  -0.000   0.000

[ pairs ]
     1     4    1
     1     6    1
     4     5    1
     3     6    1
     2     7    1
     2     8    1
     1    10    1
     3    10    1
     2    11    1
     5     9    1
     2    12    1
     6     9    1
     3    13    1
     6    11    1
     3    14    1
     7    11    1
     6    12    1
     5    13    1
     3    15    1
     1    17    1
     7    12    1
     5    14    1
     9    11    1
     5    15    1
     4    16    1
     3    17    1
     2    18    1
     9    12    1
     2    19    1
     6    16    1
     7    17    1
     8    17    1
     5    20    1
    10    16    1
     8    18    1
     5    21    1
     8    19    1
     5    22    1
    11    17    1
    10    18    1
     6    22    1
    13    16    1
    12    17    1
    10    19    1
     9    20    1
    14    16    1
    10    20    1
     9    21    1
     7    23    1
    15    16    1
    10    21    1
     7    24    1
     5    26    1
     7    25    1
     5    27    1
    16    17    1
    11    22    1
    10    23    1
     5    28    1
    12    22    1
    10    24    1
     8    26    1
     5    29    1
    17    18    1
    10    25    1
     8    27    1
     5    30    1
    17    19    1
     8    28    1
     5    31    1
     8    29    1
    18    20    1
    12    26    1
     8    30    1
    19    20    1
    18    21    1
    12    27    1
     8    31    1
    19    21    1
    12    28    1
    11    29    1
    11    30    1
    20    22    1
    11    31    1
    21    22    1
    22    23    1
    22    24    1
    22    25    1

