LIGPARGEN GENERATED GRO FILE
   49
    1UNK    C00    1   0.100   0.100   0.000
    1UNK    C01    2  -0.052   0.100   0.000
    1UNK    C02    3  -0.109   0.100   0.143
    1UNK    C03    4  -0.263   0.106   0.148
    1UNK    C04    5  -0.328  -0.017   0.085
    1UNK    C05    6  -0.316   0.120   0.294
    1UNK    C06    7  -0.276   0.247   0.373
    1UNK    C07    8  -0.316   0.375   0.296
    1UNK    C08    9  -0.335   0.251   0.519
    1UNK    C09   10  -0.486   0.250   0.506
    1UNK    O0A   11  -0.555   0.352   0.513
    1UNK    C0B   12  -0.284   0.139   0.618
    1UNK    C0C   13  -0.129   0.145   0.619
    1UNK    C0D   14  -0.344   0.143   0.766
    1UNK    C0E   15  -0.496   0.120   0.769
    1UNK    C0F   16  -0.286   0.029   0.853
    1UNK    C0G   17  -0.313   0.277   0.836
    1UNK    H0H   18   0.138   0.095  -0.103
    1UNK    H0I   19   0.139   0.013   0.054
    1UNK    H0J   20   0.139   0.191   0.046
    1UNK    H0K   21  -0.086   0.012  -0.055
    1UNK    H0M   22  -0.088   0.188  -0.054
    1UNK    H0N   23  -0.067   0.187   0.195
    1UNK    H0O   24  -0.073   0.011   0.196
    1UNK    H0P   25  -0.295   0.193   0.089
    1UNK    H0Q   26  -0.329  -0.102   0.154
    1UNK    H0R   27  -0.279  -0.050  -0.007
    1UNK    H0S   28  -0.432   0.005   0.058
    1UNK    H0T   29  -0.283   0.032   0.350
    1UNK    H0U   30  -0.425   0.114   0.288
    1UNK    H0V   31  -0.167   0.250   0.381
    1UNK    H0W   32  -0.423   0.378   0.275
    1UNK    H0X   33  -0.263   0.382   0.200
    1UNK    H0Y   34  -0.290   0.464   0.353
    1UNK    H0Z   35  -0.308   0.348   0.562
    1UNK    H10   36  -0.533   0.153   0.484
    1UNK    H11   37  -0.312   0.042   0.576
    1UNK    H12   38  -0.093   0.248   0.630
    1UNK    H13   39  -0.088   0.105   0.526
    1UNK    H14   40  -0.084   0.085   0.698
    1UNK    H15   41  -0.524   0.031   0.711
    1UNK    H16   42  -0.553   0.205   0.733
    1UNK    H17   43  -0.532   0.104   0.872
    1UNK    H18   44  -0.307  -0.069   0.809
    1UNK    H19   45  -0.330   0.029   0.953
    1UNK    H1A   46  -0.178   0.037   0.869
    1UNK    H1B   47  -0.366   0.360   0.788
    1UNK    H1C   48  -0.206   0.299   0.837
    1UNK    H1D   49  -0.347   0.275   0.941
   1.00000   1.00000   1.00000

