LIGPARGEN GENERATED GRO FILE
   39
    1UNK    C00    1   0.100   0.100   0.000
    1UNK    C01    2  -0.053   0.100   0.000
    1UNK    N02    3  -0.112   0.100   0.135
    1UNK    C03    4  -0.071   0.216   0.213
    1UNK    C04    5  -0.257   0.071   0.136
    1UNK    C05    6  -0.283  -0.076   0.085
    1UNK    C06    7  -0.426  -0.108   0.130
    1UNK    C07    8  -0.442  -0.241   0.202
    1UNK    C08    9  -0.461   0.015   0.215
    1UNK    C09   10  -0.493   0.129   0.116
    1UNK    C0A   11  -0.355   0.165   0.055
    1UNK    C0B   12  -0.334   0.316   0.064
    1UNK    C0C   13  -0.328   0.065   0.274
    1UNK    C0D   14  -0.265  -0.022   0.382
    1UNK    H0E   15   0.137   0.087  -0.102
    1UNK    H0F   16   0.139   0.018   0.060
    1UNK    H0G   17   0.141   0.194   0.037
    1UNK    H0H   18  -0.082   0.010  -0.054
    1UNK    H0I   19  -0.088   0.185  -0.059
    1UNK    H0J   20   0.036   0.211   0.236
    1UNK    H0K   21  -0.120   0.222   0.310
    1UNK    H0M   22  -0.088   0.311   0.161
    1UNK    H0N   23  -0.211  -0.147   0.127
    1UNK    H0O   24  -0.276  -0.083  -0.025
    1UNK    H0P   25  -0.492  -0.113   0.042
    1UNK    H0Q   26  -0.382  -0.248   0.293
    1UNK    H0R   27  -0.412  -0.323   0.137
    1UNK    H0S   28  -0.546  -0.256   0.231
    1UNK    H0T   29  -0.541  -0.001   0.288
    1UNK    H0U   30  -0.537   0.214   0.170
    1UNK    H0V   31  -0.565   0.099   0.039
    1UNK    H0W   32  -0.353   0.137  -0.052
    1UNK    H0X   33  -0.330   0.350   0.167
    1UNK    H0Y   34  -0.417   0.368   0.015
    1UNK    H0Z   35  -0.243   0.347   0.012
    1UNK    H10   36  -0.342   0.165   0.317
    1UNK    H11   37  -0.221  -0.115   0.344
    1UNK    H12   38  -0.339  -0.048   0.458
    1UNK    H13   39  -0.184   0.032   0.432
   1.00000   1.00000   1.00000

