
;
; GENERATED BY LigParGen Server
; Jorgensen Lab @ Yale University 
;
[ atomtypes ]
  opls_818  H818     1.0080     0.000    A    2.50000E-01   1.25520E-01
  opls_805  C805    12.0110     0.000    A    3.50000E-01   2.76144E-01
  opls_813  H813     1.0080     0.000    A    2.50000E-01   1.25520E-01
  opls_806  C806    12.0110     0.000    A    3.50000E-01   2.76144E-01
  opls_815  H815     1.0080     0.000    A    2.50000E-01   1.25520E-01
  opls_801  C801    12.0110     0.000    A    3.50000E-01   2.76144E-01
  opls_808  H808     1.0080     0.000    A    2.50000E-01   1.25520E-01
  opls_803  C803    12.0110     0.000    A    3.50000E-01   2.76144E-01
  opls_814  H814     1.0080     0.000    A    2.50000E-01   1.25520E-01
  opls_821  H821     1.0080     0.000    A    2.50000E-01   1.25520E-01
  opls_820  H820     1.0080     0.000    A    2.50000E-01   1.25520E-01
  opls_811  H811     1.0080     0.000    A    2.50000E-01   1.25520E-01
  opls_810  H810     1.0080     0.000    A    2.50000E-01   1.25520E-01
  opls_816  H816     1.0080     0.000    A    2.50000E-01   1.25520E-01
  opls_800  C800    12.0110     0.000    A    3.50000E-01   2.76144E-01
  opls_802  S802    32.0600     0.000    A    3.60000E-01   1.48532E+00
  opls_823  H823     1.0080     0.000    A    2.50000E-01   1.25520E-01
  opls_819  H819     1.0080     0.000    A    2.50000E-01   1.25520E-01
  opls_804  C804    12.0110     0.000    A    3.50000E-01   2.76144E-01
  opls_817  H817     1.0080     0.000    A    2.50000E-01   1.25520E-01
  opls_812  H812     1.0080     0.000    A    2.50000E-01   1.25520E-01
  opls_809  H809     1.0080     0.000    A    2.50000E-01   1.25520E-01
  opls_822  H822     1.0080     0.000    A    2.50000E-01   1.25520E-01
  opls_807  C807    12.0110     0.000    A    3.50000E-01   2.76144E-01
[ moleculetype ]
; Name               nrexcl
UNK                   3
[ atoms ]
;   nr       type  resnr residue  atom   cgnr     charge       mass  
     1   opls_800      1    UNK   C00      1    -0.2276    12.0110 
     2   opls_801      1    UNK   C01      1    -0.0848    12.0110 
     3   opls_802      1    UNK   S02      1    -0.3823    32.0600 
     4   opls_803      1    UNK   C03      1    -0.0811    12.0110 
     5   opls_804      1    UNK   C04      1    -0.0966    12.0110 
     6   opls_805      1    UNK   C05      1    -0.2368    12.0110 
     7   opls_806      1    UNK   C06      1    -0.1747    12.0110 
     8   opls_807      1    UNK   C07      1    -0.2364    12.0110 
     9   opls_808      1    UNK   H08      1     0.0952     1.0080 
    10   opls_809      1    UNK   H09      1     0.0952     1.0080 
    11   opls_810      1    UNK   H0A      1     0.0952     1.0080 
    12   opls_811      1    UNK   H0B      1     0.1089     1.0080 
    13   opls_812      1    UNK   H0C      1     0.1089     1.0080 
    14   opls_813      1    UNK   H0D      1     0.1081     1.0080 
    15   opls_814      1    UNK   H0E      1     0.1081     1.0080 
    16   opls_815      1    UNK   H0F      1     0.1117     1.0080 
    17   opls_816      1    UNK   H0G      1     0.0884     1.0080 
    18   opls_817      1    UNK   H0H      1     0.0884     1.0080 
    19   opls_818      1    UNK   H0I      1     0.0884     1.0080 
    20   opls_819      1    UNK   H0J      1     0.0872     1.0080 
    21   opls_820      1    UNK   H0K      1     0.0872     1.0080 
    22   opls_821      1    UNK   H0M      1      0.083     1.0080 
    23   opls_822      1    UNK   H0N      1      0.083     1.0080 
    24   opls_823      1    UNK   H0O      1      0.083     1.0080 
[ bonds ]
    2     1     1      0.1529 224262.400
    3     2     1      0.1810 185769.600
    4     3     1      0.1810 185769.600
    5     4     1      0.1529 224262.400
    6     5     1      0.1529 224262.400
    7     5     1      0.1529 224262.400
    8     7     1      0.1529 224262.400
    9     1     1      0.1090 284512.000
   10     1     1      0.1090 284512.000
   11     1     1      0.1090 284512.000
   12     2     1      0.1090 284512.000
   13     2     1      0.1090 284512.000
   14     4     1      0.1090 284512.000
   15     4     1      0.1090 284512.000
   16     5     1      0.1090 284512.000
   17     6     1      0.1090 284512.000
   18     6     1      0.1090 284512.000
   19     6     1      0.1090 284512.000
   20     7     1      0.1090 284512.000
   21     7     1      0.1090 284512.000
   22     8     1      0.1090 284512.000
   23     8     1      0.1090 284512.000
   24     8     1      0.1090 284512.000

[ angles ]
;  ai    aj    ak funct            c0            c1            c2            c3 
    1     2     3     1    114.700    418.400
    2     3     4     1     98.900    518.816
    3     4     5     1    114.700    418.400
    4     5     6     1    112.700    488.273
    4     5     7     1    112.700    488.273
    5     7     8     1    112.700    488.273
    2     1     9     1    110.700    313.800
    2     1    10     1    110.700    313.800
    2     1    11     1    110.700    313.800
    1     2    12     1    110.700    313.800
    1     2    13     1    110.700    313.800
    3     4    14     1    109.500    292.880
    3     4    15     1    109.500    292.880
    4     5    16     1    110.700    313.800
    5     6    17     1    110.700    313.800
    5     6    18     1    110.700    313.800
    5     6    19     1    110.700    313.800
    5     7    20     1    110.700    313.800
    5     7    21     1    110.700    313.800
    7     8    22     1    110.700    313.800
    7     8    23     1    110.700    313.800
    7     8    24     1    110.700    313.800
    5     4    14     1    110.700    313.800
   12     2    13     1    107.800    276.144
   18     6    19     1    107.800    276.144
   14     4    15     1    107.800    276.144
   17     6    19     1    107.800    276.144
   20     7    21     1    107.800    276.144
   22     8    23     1    107.800    276.144
    6     5     7     1    112.700    488.273
   22     8    24     1    107.800    276.144
    5     4    15     1    110.700    313.800
    3     2    12     1    109.500    292.880
    6     5    16     1    110.700    313.800
   10     1    11     1    107.800    276.144
    3     2    13     1    109.500    292.880
    9     1    10     1    107.800    276.144
    8     7    21     1    110.700    313.800
    9     1    11     1    107.800    276.144
   23     8    24     1    107.800    276.144
    7     5    16     1    110.700    313.800
    8     7    20     1    110.700    313.800
   17     6    18     1    107.800    276.144

[ dihedrals ]
; IMPROPER DIHEDRAL ANGLES 
;  ai    aj    ak    al funct            c0            c1            c2            c3            c4            c5

[ dihedrals ]
; PROPER DIHEDRAL ANGLES
;  ai    aj    ak    al funct            c0            c1            c2            c3            c4            c5
    8    7    5    6        3       2.301  -1.464   0.837  -1.674  -0.000   0.000
    8    7    5    4        3       2.301  -1.464   0.837  -1.674  -0.000   0.000
    6    5    4    3        3       3.425  -3.860   2.594  -2.159  -0.000   0.000
    7    5    4    3        3       3.425  -3.860   2.594  -2.159  -0.000   0.000
    5    4    3    2        3       0.941   2.314   2.410  -5.665  -0.000   0.000
    4    3    2    1        3       0.941   2.314   2.410  -5.665  -0.000   0.000
   18    6    5    7        3       0.628   1.883   0.000  -2.510  -0.000   0.000
   21    7    5    4        3       0.628   1.883   0.000  -2.510  -0.000   0.000
   20    7    5    4        3       0.628   1.883   0.000  -2.510  -0.000   0.000
   14    4    5    6        3       0.628   1.883   0.000  -2.510  -0.000   0.000
   18    6    5    4        3       0.628   1.883   0.000  -2.510  -0.000   0.000
   19    6    5    7        3       0.628   1.883   0.000  -2.510  -0.000   0.000
   20    7    5    6        3       0.628   1.883   0.000  -2.510  -0.000   0.000
   19    6    5    4        3       0.628   1.883   0.000  -2.510  -0.000   0.000
   15    4    5    7        3       0.628   1.883   0.000  -2.510  -0.000   0.000
   21    7    5    6        3       0.628   1.883   0.000  -2.510  -0.000   0.000
   23    8    7    5        3       0.628   1.883   0.000  -2.510  -0.000   0.000
   22    8    7    5        3       0.628   1.883   0.000  -2.510  -0.000   0.000
   17    6    5    7        3       0.628   1.883   0.000  -2.510  -0.000   0.000
   17    6    5    4        3       0.628   1.883   0.000  -2.510  -0.000   0.000
   16    5    7    8        3       0.628   1.883   0.000  -2.510  -0.000   0.000
   14    4    5    7        3       0.628   1.883   0.000  -2.510  -0.000   0.000
   15    4    5    6        3       0.628   1.883   0.000  -2.510  -0.000   0.000
   24    8    7    5        3       0.628   1.883   0.000  -2.510  -0.000   0.000
   12    2    1   11        3       0.628   1.883   0.000  -2.510  -0.000   0.000
   23    8    7   20        3       0.628   1.883   0.000  -2.510  -0.000   0.000
   24    8    7   20        3       0.628   1.883   0.000  -2.510  -0.000   0.000
   23    8    7   21        3       0.628   1.883   0.000  -2.510  -0.000   0.000
   17    6    5   16        3       0.628   1.883   0.000  -2.510  -0.000   0.000
   20    7    5   16        3       0.628   1.883   0.000  -2.510  -0.000   0.000
   19    6    5   16        3       0.628   1.883   0.000  -2.510  -0.000   0.000
   24    8    7   21        3       0.628   1.883   0.000  -2.510  -0.000   0.000
   13    2    1    9        3       0.628   1.883   0.000  -2.510  -0.000   0.000
   12    2    1   10        3       0.628   1.883   0.000  -2.510  -0.000   0.000
   16    5    4   14        3       0.628   1.883   0.000  -2.510  -0.000   0.000
   21    7    5   16        3       0.628   1.883   0.000  -2.510  -0.000   0.000
   22    8    7   20        3       0.628   1.883   0.000  -2.510  -0.000   0.000
   13    2    1   11        3       0.628   1.883   0.000  -2.510  -0.000   0.000
   12    2    1    9        3       0.628   1.883   0.000  -2.510  -0.000   0.000
   18    6    5   16        3       0.628   1.883   0.000  -2.510  -0.000   0.000
   16    5    4   15        3       0.628   1.883   0.000  -2.510  -0.000   0.000
   13    2    1   10        3       0.628   1.883   0.000  -2.510  -0.000   0.000
   22    8    7   21        3       0.628   1.883   0.000  -2.510  -0.000   0.000
   10    1    2    3        3       0.946   2.837   0.000  -3.782  -0.000   0.000
   16    5    4    3        3       0.946   2.837   0.000  -3.782  -0.000   0.000
   11    1    2    3        3       0.946   2.837   0.000  -3.782  -0.000   0.000
    9    1    2    3        3       0.946   2.837   0.000  -3.782  -0.000   0.000
   12    2    3    4        3       1.354   4.061   0.000  -5.414  -0.000   0.000
   15    4    3    2        3       1.354   4.061   0.000  -5.414  -0.000   0.000
   14    4    3    2        3       1.354   4.061   0.000  -5.414  -0.000   0.000
   13    2    3    4        3       1.354   4.061   0.000  -5.414  -0.000   0.000

[ pairs ]
     1     4    1
     2     5    1
     3     6    1
     3     7    1
     4     8    1
     3     9    1
     3    10    1
     6     8    1
     3    11    1
     4    12    1
     2    14    1
     4    13    1
     2    15    1
     3    16    1
     6    14    1
     9    12    1
     7    14    1
     6    15    1
     4    17    1
    10    12    1
     9    13    1
     7    15    1
     4    18    1
    11    12    1
    10    13    1
     4    19    1
    11    13    1
     8    16    1
     7    17    1
     4    20    1
     7    18    1
     4    21    1
     7    19    1
     6    20    1
     6    21    1
     5    22    1
     5    23    1
     5    24    1
    14    16    1
    15    16    1
    16    17    1
    16    18    1
    16    19    1
    16    20    1
    16    21    1
    20    22    1
    21    22    1
    20    23    1
    21    23    1
    20    24    1
    21    24    1

