LIGPARGEN GENERATED GRO FILE
   24
    1UNK    C00    1   0.100   0.100   0.000
    1UNK    C01    2  -0.052   0.100   0.000
    1UNK    S02    3  -0.113   0.100   0.171
    1UNK    C03    4  -0.292   0.114   0.139
    1UNK    C04    5  -0.374   0.124   0.269
    1UNK    C05    6  -0.343   0.252   0.347
    1UNK    C06    7  -0.524   0.114   0.234
    1UNK    C07    8  -0.616   0.116   0.355
    1UNK    H08    9   0.137   0.095  -0.103
    1UNK    H09   10   0.140   0.014   0.054
    1UNK    H0A   11   0.140   0.191   0.046
    1UNK    H0B   12  -0.089   0.011  -0.051
    1UNK    H0C   13  -0.089   0.189  -0.052
    1UNK    H0D   14  -0.322   0.026   0.082
    1UNK    H0E   15  -0.309   0.203   0.077
    1UNK    H0F   16  -0.349   0.037   0.332
    1UNK    H0G   17  -0.373   0.341   0.291
    1UNK    H0H   18  -0.237   0.261   0.371
    1UNK    H0I   19  -0.396   0.253   0.443
    1UNK    H0J   20  -0.542   0.021   0.179
    1UNK    H0K   21  -0.552   0.197   0.167
    1UNK    H0M   22  -0.588   0.039   0.427
    1UNK    H0N   23  -0.720   0.097   0.324
    1UNK    H0O   24  -0.615   0.213   0.405
   1.00000   1.00000   1.00000

