
;
; GENERATED BY LigParGen Server
; Jorgensen Lab @ Yale University 
;
[ atomtypes ]
  opls_818  H818     1.0080     0.000    A    2.50000E-01   1.25520E-01
  opls_824  H824     1.0080     0.000    A    2.50000E-01   1.25520E-01
  opls_810  F810    18.9984     0.000    A    2.90000E-01   2.51040E-01
  opls_805  C805    12.0110     0.000    A    3.50000E-01   2.76144E-01
  opls_813  H813     1.0080     0.000    A    2.50000E-01   1.25520E-01
  opls_811  F811    18.9984     0.000    A    2.90000E-01   2.51040E-01
  opls_802  C802    12.0110     0.000    A    3.50000E-01   2.76144E-01
  opls_815  H815     1.0080     0.000    A    2.50000E-01   1.25520E-01
  opls_809  C809    12.0110     0.000    A    3.50000E-01   2.76144E-01
  opls_822  H822     1.0080     0.000    A    2.50000E-01   1.25520E-01
  opls_803  C803    12.0110     0.000    A    3.50000E-01   2.76144E-01
  opls_812  F812    18.9984     0.000    A    2.90000E-01   2.51040E-01
  opls_825  H825     1.0080     0.000    A    2.50000E-01   1.25520E-01
  opls_807  C807    12.0110     0.000    A    3.30000E-01   2.76144E-01
  opls_814  H814     1.0080     0.000    A    2.50000E-01   1.25520E-01
  opls_821  H821     1.0080     0.000    A    2.50000E-01   1.25520E-01
  opls_808  N808    14.0070     0.000    A    3.20000E-01   7.11280E-01
  opls_820  H820     1.0080     0.000    A    2.50000E-01   1.25520E-01
  opls_816  H816     1.0080     0.000    A    2.50000E-01   1.25520E-01
  opls_800  C800    12.0110     0.000    A    3.50000E-01   2.76144E-01
  opls_806  C806    12.0110     0.000    A    3.50000E-01   2.76144E-01
  opls_823  H823     1.0080     0.000    A    2.50000E-01   1.25520E-01
  opls_826  H826     1.0080     0.000    A    2.50000E-01   1.25520E-01
  opls_819  H819     1.0080     0.000    A    2.50000E-01   1.25520E-01
  opls_804  C804    12.0110     0.000    A    3.50000E-01   2.76144E-01
  opls_801  C801    12.0110     0.000    A    3.50000E-01   2.76144E-01
  opls_817  H817     1.0080     0.000    A    2.50000E-01   1.25520E-01
[ moleculetype ]
; Name               nrexcl
UNK                   3
[ atoms ]
;   nr       type  resnr residue  atom   cgnr     charge       mass  
     1   opls_800      1    UNK   C00      1    -0.2431    12.0110 
     2   opls_801      1    UNK   C01      1    -0.1739    12.0110 
     3   opls_802      1    UNK   C02      1    -0.1759    12.0110 
     4   opls_803      1    UNK   C03      1    -0.1852    12.0110 
     5   opls_804      1    UNK   C04      1    -0.1758    12.0110 
     6   opls_805      1    UNK   C05      1    -0.1809    12.0110 
     7   opls_806      1    UNK   C06      1    -0.0751    12.0110 
     8   opls_807      1    UNK   C07      1     0.1576    12.0110 
     9   opls_808      1    UNK   N08      1    -0.3889    14.0070 
    10   opls_809      1    UNK   C09      1     0.4443    12.0110 
    11   opls_810      1    UNK   F0A      1    -0.1713    18.9984 
    12   opls_811      1    UNK   F0B      1    -0.1713    18.9984 
    13   opls_812      1    UNK   F0C      1    -0.1713    18.9984 
    14   opls_813      1    UNK   H0D      1     0.0862     1.0080 
    15   opls_814      1    UNK   H0E      1     0.0862     1.0080 
    16   opls_815      1    UNK   H0F      1     0.0862     1.0080 
    17   opls_816      1    UNK   H0G      1     0.0945     1.0080 
    18   opls_817      1    UNK   H0H      1     0.0945     1.0080 
    19   opls_818      1    UNK   H0I      1     0.1053     1.0080 
    20   opls_819      1    UNK   H0J      1     0.1053     1.0080 
    21   opls_820      1    UNK   H0K      1     0.1382     1.0080 
    22   opls_821      1    UNK   H0M      1     0.1132     1.0080 
    23   opls_822      1    UNK   H0N      1     0.1132     1.0080 
    24   opls_823      1    UNK   H0O      1     0.1114     1.0080 
    25   opls_824      1    UNK   H0P      1     0.1114     1.0080 
    26   opls_825      1    UNK   H0Q      1     0.1326     1.0080 
    27   opls_826      1    UNK   H0R      1     0.1326     1.0080 
[ bonds ]
    2     1     1      0.1529 224262.400
    3     2     1      0.1529 224262.400
    4     3     1      0.1529 224262.400
    5     4     1      0.1529 224262.400
    6     5     1      0.1529 224262.400
    7     6     1      0.1529 224262.400
    8     7     1      0.1470 326352.000
    9     8     1      0.1157 543920.000
   10     4     1      0.1529 224262.400
   11    10     1      0.1360 307105.600
   12    10     1      0.1360 307105.600
   13    10     1      0.1360 307105.600
   14     1     1      0.1090 284512.000
   15     1     1      0.1090 284512.000
   16     1     1      0.1090 284512.000
   17     2     1      0.1090 284512.000
   18     2     1      0.1090 284512.000
   19     3     1      0.1090 284512.000
   20     3     1      0.1090 284512.000
   21     4     1      0.1090 284512.000
   22     5     1      0.1090 284512.000
   23     5     1      0.1090 284512.000
   24     6     1      0.1090 284512.000
   25     6     1      0.1090 284512.000
   26     7     1      0.1090 284512.000
   27     7     1      0.1090 284512.000

[ angles ]
;  ai    aj    ak funct            c0            c1            c2            c3 
    1     2     3     1    112.700    488.273
    2     3     4     1    112.700    488.273
    3     4     5     1    112.700    488.273
    4     5     6     1    112.700    488.273
    5     6     7     1    112.700    488.273
    6     7     8     1    112.700    488.273
    7     8     9     1    180.000   1255.200
    3     4    10     1    112.700    488.273
    4    10    11     1    109.500    418.400
    4    10    12     1    109.500    418.400
    4    10    13     1    109.500    418.400
    2     1    14     1    110.700    313.800
    2     1    15     1    110.700    313.800
    2     1    16     1    110.700    313.800
    1     2    17     1    110.700    313.800
    1     2    18     1    110.700    313.800
    2     3    19     1    110.700    313.800
    2     3    20     1    110.700    313.800
    3     4    21     1    110.700    313.800
    4     5    22     1    110.700    313.800
    4     5    23     1    110.700    313.800
    5     6    24     1    110.700    313.800
    5     6    25     1    110.700    313.800
    6     7    26     1    110.700    313.800
    6     7    27     1    110.700    313.800
    8     7    27     1    108.500    292.880
    7     6    24     1    110.700    313.800
    8     7    26     1    108.500    292.880
   22     5    23     1    107.800    276.144
   11    10    12     1    109.100    644.336
    6     5    22     1    110.700    313.800
    3     2    17     1    110.700    313.800
   24     6    25     1    107.800    276.144
    7     6    25     1    110.700    313.800
   12    10    13     1    109.100    644.336
    4     3    19     1    110.700    313.800
   15     1    16     1    107.800    276.144
   14     1    15     1    107.800    276.144
   17     2    18     1    107.800    276.144
   26     7    27     1    107.800    276.144
   10     4    21     1    110.700    313.800
   19     3    20     1    107.800    276.144
   11    10    13     1    109.100    644.336
    6     5    23     1    110.700    313.800
    3     2    18     1    110.700    313.800
    5     4    21     1    110.700    313.800
    4     3    20     1    110.700    313.800
    5     4    10     1    112.700    488.273
   14     1    16     1    107.800    276.144

[ dihedrals ]
; IMPROPER DIHEDRAL ANGLES 
;  ai    aj    ak    al funct            c0            c1            c2            c3            c4            c5

[ dihedrals ]
; PROPER DIHEDRAL ANGLES
;  ai    aj    ak    al funct            c0            c1            c2            c3            c4            c5
   10    4    5    6        3       2.301  -1.464   0.837  -1.674  -0.000   0.000
   10    4    3    2        3       2.301  -1.464   0.837  -1.674  -0.000   0.000
    4    3    2    1        3       2.301  -1.464   0.837  -1.674  -0.000   0.000
    5    4    3    2        3       2.301  -1.464   0.837  -1.674  -0.000   0.000
    6    5    4    3        3       2.301  -1.464   0.837  -1.674  -0.000   0.000
    7    6    5    4        3       2.301  -1.464   0.837  -1.674  -0.000   0.000
    8    7    6    5        3      -2.720   0.000   2.720  -0.000  -0.000   0.000
   11   10    4    3        3       0.000   0.000   0.000  -0.000  -0.000   0.000
   13   10    4    5        3       0.000   0.000   0.000  -0.000  -0.000   0.000
   12   10    4    5        3       0.000   0.000   0.000  -0.000  -0.000   0.000
   11   10    4    5        3       0.000   0.000   0.000  -0.000  -0.000   0.000
   13   10    4    3        3       0.000   0.000   0.000  -0.000  -0.000   0.000
   12   10    4    3        3       0.000   0.000   0.000  -0.000  -0.000   0.000
   21    4   10   12        3       0.753   2.259   0.000  -3.012  -0.000   0.000
   21    4   10   11        3       0.753   2.259   0.000  -3.012  -0.000   0.000
   21    4   10   13        3       0.753   2.259   0.000  -3.012  -0.000   0.000
   19    3    4   10        3       0.628   1.883   0.000  -2.510  -0.000   0.000
   20    3    4   10        3       0.628   1.883   0.000  -2.510  -0.000   0.000
   22    5    4   10        3       0.628   1.883   0.000  -2.510  -0.000   0.000
   23    5    4   10        3       0.628   1.883   0.000  -2.510  -0.000   0.000
   21    4    3    2        3       0.628   1.883   0.000  -2.510  -0.000   0.000
   18    2    3    4        3       0.628   1.883   0.000  -2.510  -0.000   0.000
   20    3    2    1        3       0.628   1.883   0.000  -2.510  -0.000   0.000
   24    6    5    4        3       0.628   1.883   0.000  -2.510  -0.000   0.000
   23    5    4    3        3       0.628   1.883   0.000  -2.510  -0.000   0.000
   19    3    4    5        3       0.628   1.883   0.000  -2.510  -0.000   0.000
   22    5    6    7        3       0.628   1.883   0.000  -2.510  -0.000   0.000
   17    2    3    4        3       0.628   1.883   0.000  -2.510  -0.000   0.000
   26    7    6    5        3       0.628   1.883   0.000  -2.510  -0.000   0.000
   20    3    4    5        3       0.628   1.883   0.000  -2.510  -0.000   0.000
   27    7    6    5        3       0.628   1.883   0.000  -2.510  -0.000   0.000
   14    1    2    3        3       0.628   1.883   0.000  -2.510  -0.000   0.000
   15    1    2    3        3       0.628   1.883   0.000  -2.510  -0.000   0.000
   22    5    4    3        3       0.628   1.883   0.000  -2.510  -0.000   0.000
   21    4    5    6        3       0.628   1.883   0.000  -2.510  -0.000   0.000
   23    5    6    7        3       0.628   1.883   0.000  -2.510  -0.000   0.000
   25    6    5    4        3       0.628   1.883   0.000  -2.510  -0.000   0.000
   16    1    2    3        3       0.628   1.883   0.000  -2.510  -0.000   0.000
   19    3    2    1        3       0.628   1.883   0.000  -2.510  -0.000   0.000
   25    6    7    8        3       0.766   2.297   0.000  -3.063  -0.000   0.000
   24    6    7    8        3       0.766   2.297   0.000  -3.063  -0.000   0.000
   18    2    1   14        3       0.628   1.883   0.000  -2.510  -0.000   0.000
   18    2    1   16        3       0.628   1.883   0.000  -2.510  -0.000   0.000
   18    2    1   15        3       0.628   1.883   0.000  -2.510  -0.000   0.000
   17    2    1   16        3       0.628   1.883   0.000  -2.510  -0.000   0.000
   17    2    1   14        3       0.628   1.883   0.000  -2.510  -0.000   0.000
   27    7    6   25        3       0.628   1.883   0.000  -2.510  -0.000   0.000
   21    4    3   20        3       0.628   1.883   0.000  -2.510  -0.000   0.000
   17    2    1   15        3       0.628   1.883   0.000  -2.510  -0.000   0.000
   23    5    4   21        3       0.628   1.883   0.000  -2.510  -0.000   0.000
   21    4    3   19        3       0.628   1.883   0.000  -2.510  -0.000   0.000
   26    7    6   25        3       0.628   1.883   0.000  -2.510  -0.000   0.000
   25    6    5   22        3       0.628   1.883   0.000  -2.510  -0.000   0.000
   24    6    5   23        3       0.628   1.883   0.000  -2.510  -0.000   0.000
   26    7    6   24        3       0.628   1.883   0.000  -2.510  -0.000   0.000
   22    5    4   21        3       0.628   1.883   0.000  -2.510  -0.000   0.000
   25    6    5   23        3       0.628   1.883   0.000  -2.510  -0.000   0.000
   20    3    2   17        3       0.628   1.883   0.000  -2.510  -0.000   0.000
   19    3    2   18        3       0.628   1.883   0.000  -2.510  -0.000   0.000
   19    3    2   17        3       0.628   1.883   0.000  -2.510  -0.000   0.000
   20    3    2   18        3       0.628   1.883   0.000  -2.510  -0.000   0.000
   24    6    5   22        3       0.628   1.883   0.000  -2.510  -0.000   0.000
   27    7    6   24        3       0.628   1.883   0.000  -2.510  -0.000   0.000
   27    7    8    9        3       0.000   0.000   0.000  -0.000  -0.000   0.000
   26    7    8    9        3       0.000   0.000   0.000  -0.000  -0.000   0.000
    9    8    7    6        3       0.000   0.000   0.000  -0.000  -0.000   0.000

[ pairs ]
     1     4    1
     2     5    1
     3     6    1
     4     7    1
     2    10    1
     5     8    1
     3    11    1
     6     9    1
     3    12    1
     6    10    1
     5    11    1
     3    13    1
     5    12    1
     3    14    1
     5    13    1
     3    15    1
     3    16    1
     1    19    1
     4    17    1
     1    20    1
     4    18    1
     2    21    1
     5    19    1
     5    20    1
     3    22    1
     3    23    1
     6    21    1
     4    24    1
    10    19    1
     7    22    1
     4    25    1
    10    20    1
     7    23    1
    14    17    1
     5    26    1
    15    17    1
    14    18    1
    11    21    1
    10    22    1
     8    24    1
     5    27    1
    16    17    1
    15    18    1
    12    21    1
    10    23    1
     8    25    1
    16    18    1
    13    21    1
     9    26    1
    17    19    1
     9    27    1
    18    19    1
    17    20    1
    18    20    1
    19    21    1
    20    21    1
    21    22    1
    21    23    1
    22    24    1
    23    24    1
    22    25    1
    23    25    1
    24    26    1
    25    26    1
    24    27    1
    25    27    1

