
;
; GENERATED BY LigParGen Server
; Jorgensen Lab @ Yale University 
;
[ atomtypes ]
  opls_818  H818     1.0080     0.000    A    2.50000E-01   1.25520E-01
  opls_805  C805    12.0110     0.000    A    3.50000E-01   2.76144E-01
  opls_813  H813     1.0080     0.000    A    2.50000E-01   1.25520E-01
  opls_806  C806    12.0110     0.000    A    3.50000E-01   2.76144E-01
  opls_815  H815     1.0080     0.000    A    2.50000E-01   1.25520E-01
  opls_801  C801    12.0110     0.000    A    3.50000E-01   2.76144E-01
  opls_808  H808     1.0080     0.000    A    2.50000E-01   1.25520E-01
  opls_803  C803    12.0110     0.000    A    3.50000E-01   2.76144E-01
  opls_814  H814     1.0080     0.000    A    2.50000E-01   1.25520E-01
  opls_821  H821     1.0080     0.000    A    2.50000E-01   1.25520E-01
  opls_820  H820     1.0080     0.000    A    2.50000E-01   1.25520E-01
  opls_811  H811     1.0080     0.000    A    2.50000E-01   1.25520E-01
  opls_810  H810     1.0080     0.000    A    2.50000E-01   1.25520E-01
  opls_816  H816     1.0080     0.000    A    2.50000E-01   1.25520E-01
  opls_800  C800    12.0110     0.000    A    3.50000E-01   2.76144E-01
  opls_819  H819     1.0080     0.000    A    2.50000E-01   1.25520E-01
  opls_804  C804    12.0110     0.000    A    3.50000E-01   2.76144E-01
  opls_817  H817     1.0080     0.000    A    2.50000E-01   1.25520E-01
  opls_812  H812     1.0080     0.000    A    2.50000E-01   1.25520E-01
  opls_809  H809     1.0080     0.000    A    2.50000E-01   1.25520E-01
  opls_822  H822     1.0080     0.000    A    2.50000E-01   1.25520E-01
  opls_807  C807    12.0110     0.000    A    3.50000E-01   2.76144E-01
  opls_802  N802    14.0070     0.000    A    3.30000E-01   7.11280E-01
[ moleculetype ]
; Name               nrexcl
UNK                   3
[ atoms ]
;   nr       type  resnr residue  atom   cgnr     charge       mass  
     1   opls_800      1    UNK   C00      1    -0.2407    12.0110 
     2   opls_801      1    UNK   C01      1     0.0136    12.0110 
     3   opls_802      1    UNK   N02      1     -0.575    14.0070 
     4   opls_803      1    UNK   C03      1     0.0126    12.0110 
     5   opls_804      1    UNK   C04      1     -0.215    12.0110 
     6   opls_805      1    UNK   C05      1    -0.1731    12.0110 
     7   opls_806      1    UNK   C06      1    -0.2152    12.0110 
     8   opls_807      1    UNK   C07      1     0.0138    12.0110 
     9   opls_808      1    UNK   H08      1     0.0865     1.0080 
    10   opls_809      1    UNK   H09      1     0.0865     1.0080 
    11   opls_810      1    UNK   H0A      1     0.0865     1.0080 
    12   opls_811      1    UNK   H0B      1     0.0807     1.0080 
    13   opls_812      1    UNK   H0C      1     0.0807     1.0080 
    14   opls_813      1    UNK   H0D      1     0.1017     1.0080 
    15   opls_814      1    UNK   H0E      1     0.1017     1.0080 
    16   opls_815      1    UNK   H0F      1     0.0927     1.0080 
    17   opls_816      1    UNK   H0G      1     0.0927     1.0080 
    18   opls_817      1    UNK   H0H      1     0.0889     1.0080 
    19   opls_818      1    UNK   H0I      1     0.0889     1.0080 
    20   opls_819      1    UNK   H0J      1     0.0934     1.0080 
    21   opls_820      1    UNK   H0K      1     0.0934     1.0080 
    22   opls_821      1    UNK   H0M      1     0.1023     1.0080 
    23   opls_822      1    UNK   H0N      1     0.1023     1.0080 
[ bonds ]
    2     1     1      0.1529 224262.400
    3     2     1      0.1448 319657.600
    4     3     1      0.1448 319657.600
    5     4     1      0.1529 224262.400
    6     5     1      0.1529 224262.400
    7     6     1      0.1529 224262.400
    8     3     1      0.1448 319657.600
    9     1     1      0.1090 284512.000
   10     1     1      0.1090 284512.000
   11     1     1      0.1090 284512.000
   12     2     1      0.1090 284512.000
   13     2     1      0.1090 284512.000
   14     4     1      0.1090 284512.000
   15     4     1      0.1090 284512.000
   16     5     1      0.1090 284512.000
   17     5     1      0.1090 284512.000
   18     6     1      0.1090 284512.000
   19     6     1      0.1090 284512.000
   20     7     1      0.1090 284512.000
   21     7     1      0.1090 284512.000
   22     8     1      0.1090 284512.000
   23     8     1      0.1090 284512.000
    8     7     1      0.1529 224262.400

[ angles ]
;  ai    aj    ak funct            c0            c1            c2            c3 
    1     2     3     1    109.470    470.282
    2     3     4     1    107.200    433.462
    3     4     5     1    109.470    470.282
    4     5     6     1    112.700    488.273
    5     6     7     1    112.700    488.273
    2     3     8     1    107.200    433.462
    2     1     9     1    110.700    313.800
    2     1    10     1    110.700    313.800
    2     1    11     1    110.700    313.800
    1     2    12     1    110.700    313.800
    1     2    13     1    110.700    313.800
    3     4    14     1    109.500    292.880
    3     4    15     1    109.500    292.880
    4     5    16     1    110.700    313.800
    4     5    17     1    110.700    313.800
    5     6    18     1    110.700    313.800
    5     6    19     1    110.700    313.800
    6     7    20     1    110.700    313.800
    6     7    21     1    110.700    313.800
    3     8    22     1    109.500    292.880
    3     8    23     1    109.500    292.880
    5     4    14     1    110.700    313.800
    7     6    18     1    110.700    313.800
   12     2    13     1    107.800    276.144
   18     6    19     1    107.800    276.144
   16     5    17     1    107.800    276.144
   14     4    15     1    107.800    276.144
    4     3     8     1    107.200    433.462
    6     5    17     1    110.700    313.800
    6     7     8     1    112.700    488.273
    3     8     7     1    109.470    470.282
   20     7    21     1    107.800    276.144
    7     6    19     1    110.700    313.800
    5     4    15     1    110.700    313.800
    3     2    12     1    109.500    292.880
    7     8    22     1    110.700    313.800
    6     5    16     1    110.700    313.800
   10     1    11     1    107.800    276.144
    3     2    13     1    109.500    292.880
    9     1    10     1    107.800    276.144
    8     7    21     1    110.700    313.800
    9     1    11     1    107.800    276.144
    7     8    23     1    110.700    313.800
   22     8    23     1    107.800    276.144
    8     7    20     1    110.700    313.800

[ dihedrals ]
; IMPROPER DIHEDRAL ANGLES 
;  ai    aj    ak    al funct            c0            c1            c2            c3            c4            c5

[ dihedrals ]
; PROPER DIHEDRAL ANGLES
;  ai    aj    ak    al funct            c0            c1            c2            c3            c4            c5
    7    6    5    4        3       2.301  -1.464   0.837  -1.674  -0.000   0.000
    8    7    6    5        3       2.301  -1.464   0.837  -1.674  -0.000   0.000
    6    7    8    3        3       3.335  -1.552   2.820  -4.602  -0.000   0.000
    6    5    4    3        3       3.335  -1.552   2.820  -4.602  -0.000   0.000
    5    4    3    2        3       1.789   3.492   0.536  -5.816  -0.000   0.000
    7    8    3    4        3       1.789   3.492   0.536  -5.816  -0.000   0.000
    7    8    3    2        3       1.789   3.492   0.536  -5.816  -0.000   0.000
    8    3    4    5        3       1.789   3.492   0.536  -5.816  -0.000   0.000
    8    3    2    1        3       1.789   3.492   0.536  -5.816  -0.000   0.000
    4    3    2    1        3       1.789   3.492   0.536  -5.816  -0.000   0.000
   18    6    7    8        3       0.628   1.883   0.000  -2.510  -0.000   0.000
   14    4    5    6        3       0.628   1.883   0.000  -2.510  -0.000   0.000
   17    5    6    7        3       0.628   1.883   0.000  -2.510  -0.000   0.000
   23    8    7    6        3       0.628   1.883   0.000  -2.510  -0.000   0.000
   19    6    7    8        3       0.628   1.883   0.000  -2.510  -0.000   0.000
   18    6    5    4        3       0.628   1.883   0.000  -2.510  -0.000   0.000
   21    7    6    5        3       0.628   1.883   0.000  -2.510  -0.000   0.000
   20    7    6    5        3       0.628   1.883   0.000  -2.510  -0.000   0.000
   15    4    5    6        3       0.628   1.883   0.000  -2.510  -0.000   0.000
   19    6    5    4        3       0.628   1.883   0.000  -2.510  -0.000   0.000
   22    8    7    6        3       0.628   1.883   0.000  -2.510  -0.000   0.000
   16    5    6    7        3       0.628   1.883   0.000  -2.510  -0.000   0.000
   17    5    4   15        3       0.628   1.883   0.000  -2.510  -0.000   0.000
   12    2    1   11        3       0.628   1.883   0.000  -2.510  -0.000   0.000
   22    8    7   20        3       0.628   1.883   0.000  -2.510  -0.000   0.000
   23    8    7   20        3       0.628   1.883   0.000  -2.510  -0.000   0.000
   22    8    7   21        3       0.628   1.883   0.000  -2.510  -0.000   0.000
   20    7    6   18        3       0.628   1.883   0.000  -2.510  -0.000   0.000
   16    5    4   14        3       0.628   1.883   0.000  -2.510  -0.000   0.000
   23    8    7   21        3       0.628   1.883   0.000  -2.510  -0.000   0.000
   21    7    6   19        3       0.628   1.883   0.000  -2.510  -0.000   0.000
   19    6    5   16        3       0.628   1.883   0.000  -2.510  -0.000   0.000
   18    6    5   17        3       0.628   1.883   0.000  -2.510  -0.000   0.000
   21    7    6   18        3       0.628   1.883   0.000  -2.510  -0.000   0.000
   13    2    1   10        3       0.628   1.883   0.000  -2.510  -0.000   0.000
   12    2    1    9        3       0.628   1.883   0.000  -2.510  -0.000   0.000
   12    2    1   10        3       0.628   1.883   0.000  -2.510  -0.000   0.000
   20    7    6   19        3       0.628   1.883   0.000  -2.510  -0.000   0.000
   16    5    4   15        3       0.628   1.883   0.000  -2.510  -0.000   0.000
   13    2    1   11        3       0.628   1.883   0.000  -2.510  -0.000   0.000
   17    5    4   14        3       0.628   1.883   0.000  -2.510  -0.000   0.000
   18    6    5   16        3       0.628   1.883   0.000  -2.510  -0.000   0.000
   13    2    1    9        3       0.628   1.883   0.000  -2.510  -0.000   0.000
   19    6    5   17        3       0.628   1.883   0.000  -2.510  -0.000   0.000
    9    1    2    3        3      -4.096   5.088   2.966  -3.958  -0.000   0.000
   10    1    2    3        3      -4.096   5.088   2.966  -3.958  -0.000   0.000
   17    5    4    3        3      -4.096   5.088   2.966  -3.958  -0.000   0.000
   21    7    8    3        3      -4.096   5.088   2.966  -3.958  -0.000   0.000
   16    5    4    3        3      -4.096   5.088   2.966  -3.958  -0.000   0.000
   20    7    8    3        3      -4.096   5.088   2.966  -3.958  -0.000   0.000
   11    1    2    3        3      -4.096   5.088   2.966  -3.958  -0.000   0.000
   14    4    3    2        3       1.172   3.515   0.000  -4.686  -0.000   0.000
   22    8    3    2        3       1.172   3.515   0.000  -4.686  -0.000   0.000
   12    2    3    4        3       1.172   3.515   0.000  -4.686  -0.000   0.000
   15    4    3    8        3       1.172   3.515   0.000  -4.686  -0.000   0.000
   15    4    3    2        3       1.172   3.515   0.000  -4.686  -0.000   0.000
   13    2    3    4        3       1.172   3.515   0.000  -4.686  -0.000   0.000
   23    8    3    2        3       1.172   3.515   0.000  -4.686  -0.000   0.000
   13    2    3    8        3       1.172   3.515   0.000  -4.686  -0.000   0.000
   22    8    3    4        3       1.172   3.515   0.000  -4.686  -0.000   0.000
   14    4    3    8        3       1.172   3.515   0.000  -4.686  -0.000   0.000
   23    8    3    4        3       1.172   3.515   0.000  -4.686  -0.000   0.000
   12    2    3    8        3       1.172   3.515   0.000  -4.686  -0.000   0.000

[ pairs ]
     1     4    1
     2     5    1
     3     6    1
     2     7    1
     1     8    1
     4     7    1
     3     9    1
     5     8    1
     3    10    1
     3    11    1
     4    12    1
     2    14    1
     4    13    1
     2    15    1
     3    16    1
     8    12    1
     6    14    1
     3    17    1
     9    12    1
     8    13    1
     6    15    1
    10    12    1
     9    13    1
     8    14    1
     4    18    1
    11    12    1
    10    13    1
     8    15    1
     7    16    1
     4    19    1
     3    20    1
    11    13    1
     7    17    1
     3    21    1
     2    22    1
     5    20    1
     2    23    1
     8    18    1
     5    21    1
     4    22    1
     8    19    1
     4    23    1
     6    22    1
     6    23    1
    14    16    1
    15    16    1
    14    17    1
    15    17    1
    16    18    1
    17    18    1
    16    19    1
    17    19    1
    18    20    1
    19    20    1
    18    21    1
    19    21    1
    20    22    1
    21    22    1
    20    23    1
    21    23    1

