LIGPARGEN GENERATED GRO FILE
   23
    1UNK    C00    1   0.100   0.100   0.000
    1UNK    C01    2  -0.053   0.100   0.000
    1UNK    N02    3  -0.113   0.100   0.134
    1UNK    C03    4  -0.259   0.109   0.127
    1UNK    C04    5  -0.327  -0.019   0.077
    1UNK    C05    6  -0.282  -0.142   0.157
    1UNK    C06    7  -0.130  -0.148   0.170
    1UNK    C07    8  -0.074  -0.014   0.219
    1UNK    H08    9   0.137   0.113  -0.102
    1UNK    H09   10   0.141   0.005   0.037
    1UNK    H0A   11   0.140   0.182   0.061
    1UNK    H0B   12  -0.087   0.015  -0.060
    1UNK    H0C   13  -0.084   0.191  -0.052
    1UNK    H0D   14  -0.289   0.193   0.064
    1UNK    H0E   15  -0.298   0.133   0.227
    1UNK    H0F   16  -0.304  -0.035  -0.029
    1UNK    H0G   17  -0.436  -0.009   0.085
    1UNK    H0H   18  -0.319  -0.233   0.110
    1UNK    H0I   19  -0.327  -0.137   0.257
    1UNK    H0J   20  -0.086  -0.175   0.074
    1UNK    H0K   21  -0.103  -0.227   0.241
    1UNK    H0M   22   0.035  -0.021   0.228
    1UNK    H0N   23  -0.110   0.005   0.321
   1.00000   1.00000   1.00000

