LIGPARGEN GENERATED GRO FILE
   27
    1UNK    C00    1   0.100   0.100   0.000
    1UNK    C01    2  -0.052   0.100   0.000
    1UNK    C02    3  -0.115   0.100   0.140
    1UNK    C03    4  -0.077   0.217   0.233
    1UNK    C04    5  -0.115   0.355   0.172
    1UNK    C05    6  -0.081   0.479   0.257
    1UNK    C06    7   0.068   0.500   0.285
    1UNK    C07    8   0.145   0.522   0.162
    1UNK    N08    9   0.206   0.540   0.065
    1UNK    C09   10  -0.140   0.197   0.372
    1UNK    F0A   11  -0.173   0.069   0.396
    1UNK    F0B   12  -0.052   0.234   0.468
    1UNK    F0C   13  -0.252   0.271   0.389
    1UNK    H0D   14   0.137   0.087  -0.102
    1UNK    H0E   15   0.140   0.018   0.061
    1UNK    H0F   16   0.140   0.195   0.038
    1UNK    H0G   17  -0.086   0.009  -0.052
    1UNK    H0H   18  -0.089   0.185  -0.059
    1UNK    H0I   19  -0.085   0.006   0.189
    1UNK    H0J   20  -0.224   0.096   0.129
    1UNK    H0K   21   0.032   0.214   0.246
    1UNK    H0M   22  -0.223   0.356   0.153
    1UNK    H0N   23  -0.067   0.366   0.074
    1UNK    H0O   24  -0.134   0.474   0.353
    1UNK    H0P   25  -0.121   0.567   0.205
    1UNK    H0Q   26   0.109   0.416   0.341
    1UNK    H0R   27   0.078   0.588   0.350
   1.00000   1.00000   1.00000

