LIGPARGEN GENERATED GRO FILE
   39
    1UNK    C00    1   0.100   0.100   0.000
    1UNK    C01    2  -0.052   0.100   0.000
    1UNK    C02    3  -0.111   0.100   0.142
    1UNK    C03    4  -0.270   0.100   0.156
    1UNK    C04    5  -0.331  -0.022   0.084
    1UNK    C05    6  -0.283  -0.161   0.125
    1UNK    C06    7  -0.303   0.115   0.309
    1UNK    C07    8  -0.449   0.123   0.342
    1UNK    O08    9  -0.531   0.038   0.308
    1UNK    C09   10  -0.240   0.010   0.398
    1UNK    O0A   11  -0.127   0.020   0.444
    1UNK    S0B   12  -0.330   0.260   0.070
    1UNK    O0C   13  -0.278   0.370   0.151
    1UNK    O0D   14  -0.294   0.253  -0.070
    1UNK    C0E   15  -0.510   0.283   0.070
    1UNK    C0F   16  -0.541   0.421   0.009
    1UNK    C0G   17  -0.585   0.178  -0.011
    1UNK    H0H   18   0.137   0.100  -0.103
    1UNK    H0I   19   0.140   0.012   0.051
    1UNK    H0J   20   0.139   0.190   0.049
    1UNK    H0K   21  -0.088   0.013  -0.057
    1UNK    H0M   22  -0.081   0.190  -0.054
    1UNK    H0N   23  -0.071   0.187   0.195
    1UNK    H0O   24  -0.071   0.012   0.193
    1UNK    H0P   25  -0.316  -0.012  -0.024
    1UNK    H0Q   26  -0.439  -0.024   0.098
    1UNK    H0R   27  -0.176  -0.175   0.107
    1UNK    H0S   28  -0.336  -0.236   0.065
    1UNK    H0T   29  -0.306  -0.183   0.229
    1UNK    H0U   30  -0.261   0.210   0.345
    1UNK    H0V   31  -0.479   0.209   0.405
    1UNK    H0W   32  -0.300  -0.081   0.417
    1UNK    H0X   33  -0.545   0.284   0.174
    1UNK    H0Y   34  -0.492   0.434  -0.088
    1UNK    H0Z   35  -0.506   0.501   0.075
    1UNK    H10   36  -0.649   0.435  -0.005
    1UNK    H11   37  -0.540   0.161  -0.109
    1UNK    H12   38  -0.690   0.208  -0.026
    1UNK    H13   39  -0.590   0.082   0.042
   1.00000   1.00000   1.00000

