
;
; GENERATED BY LigParGen Server
; Jorgensen Lab @ Yale University 
;
[ atomtypes ]
  opls_818  H818     1.0080     0.000    A    2.50000E-01   1.25520E-01
  opls_814  C814    12.0110     0.000    A    3.50000E-01   2.76144E-01
  opls_824  H824     1.0080     0.000    A    2.50000E-01   1.25520E-01
  opls_809  O809    15.9990     0.000    A    2.90000E-01   5.85760E-01
  opls_833  H833     1.0080     0.000    A    2.50000E-01   1.25520E-01
  opls_836  H836     1.0080     0.000    A    2.50000E-01   1.25520E-01
  opls_834  H834     1.0080     0.000    A    2.50000E-01   1.25520E-01
  opls_828  H828     1.0080     0.000    A    2.50000E-01   1.25520E-01
  opls_812  O812    15.9990     0.000    A    2.90000E-01   5.85760E-01
  opls_832  H832     1.0080     0.000    A    2.50000E-01   1.25520E-01
  opls_802  C802    12.0110     0.000    A    3.50000E-01   2.76144E-01
  opls_815  H815     1.0080     0.000    A    2.50000E-01   1.25520E-01
  opls_801  C801    12.0110     0.000    A    3.50000E-01   2.76144E-01
  opls_811  O811    15.9990     0.000    A    2.96000E-01   8.78640E-01
  opls_822  H822     1.0080     0.000    A    2.50000E-01   1.25520E-01
  opls_807  C807    12.0110     0.000    A    3.50000E-01   2.76144E-01
  opls_825  H825     1.0080     0.000    A    2.50000E-01   1.25520E-01
  opls_830  H830     1.0080     0.000    A    2.50000E-01   1.25520E-01
  opls_821  H821     1.0080     0.000    A    2.50000E-01   1.25520E-01
  opls_820  H820     1.0080     0.000    A    2.50000E-01   1.25520E-01
  opls_803  N803    14.0070     0.000    A    3.30000E-01   7.11280E-01
  opls_837  H837     1.0080     0.000    A    2.50000E-01   1.25520E-01
  opls_829  H829     1.0080     0.000    A    2.50000E-01   1.25520E-01
  opls_831  H831     1.0080     0.000    A    2.50000E-01   1.25520E-01
  opls_810  C810    12.0110     0.000    A    3.55000E-01   2.92880E-01
  opls_816  H816     1.0080     0.000    A    2.50000E-01   1.25520E-01
  opls_800  C800    12.0110     0.000    A    3.50000E-01   2.76144E-01
  opls_805  C805    12.0110     0.000    A    3.50000E-01   2.76144E-01
  opls_806  C806    12.0110     0.000    A    3.50000E-01   2.76144E-01
  opls_823  H823     1.0080     0.000    A    2.50000E-01   1.25520E-01
  opls_813  C813    12.0110     0.000    A    3.50000E-01   2.76144E-01
  opls_826  H826     1.0080     0.000    A    2.50000E-01   1.25520E-01
  opls_835  H835     1.0080     0.000    A    2.50000E-01   1.25520E-01
  opls_819  H819     1.0080     0.000    A    2.50000E-01   1.25520E-01
  opls_804  C804    12.0110     0.000    A    3.50000E-01   2.76144E-01
  opls_827  H827     1.0080     0.000    A    2.50000E-01   1.25520E-01
  opls_808  C808    12.0110     0.000    A    3.50000E-01   2.76144E-01
  opls_817  H817     1.0080     0.000    A    2.50000E-01   1.25520E-01
[ moleculetype ]
; Name               nrexcl
UNK                   3
[ atoms ]
;   nr       type  resnr residue  atom   cgnr     charge       mass  
     1   opls_800      1    UNK   C00      1    -0.2406    12.0110 
     2   opls_801      1    UNK   C01      1    -0.1789    12.0110 
     3   opls_802      1    UNK   C02      1     0.0066    12.0110 
     4   opls_803      1    UNK   N03      1    -0.5618    14.0070 
     5   opls_804      1    UNK   C04      1    -0.0635    12.0110 
     6   opls_805      1    UNK   C05      1      0.047    12.0110 
     7   opls_806      1    UNK   C06      1    -0.1726    12.0110 
     8   opls_807      1    UNK   C07      1    -0.2367    12.0110 
     9   opls_808      1    UNK   C08      1      0.019    12.0110 
    10   opls_809      1    UNK   O09      1    -0.3162    15.9990 
    11   opls_810      1    UNK   C0A      1     0.5692    12.0110 
    12   opls_811      1    UNK   O0B      1    -0.4998    15.9990 
    13   opls_812      1    UNK   O0C      1    -0.3232    15.9990 
    14   opls_813      1    UNK   C0D      1     0.0163    12.0110 
    15   opls_814      1    UNK   C0E      1    -0.2811    12.0110 
    16   opls_815      1    UNK   H0F      1      0.083     1.0080 
    17   opls_816      1    UNK   H0G      1      0.083     1.0080 
    18   opls_817      1    UNK   H0H      1      0.083     1.0080 
    19   opls_818      1    UNK   H0I      1     0.0965     1.0080 
    20   opls_819      1    UNK   H0J      1     0.0965     1.0080 
    21   opls_820      1    UNK   H0K      1     0.0861     1.0080 
    22   opls_821      1    UNK   H0M      1     0.0861     1.0080 
    23   opls_822      1    UNK   H0N      1     0.0852     1.0080 
    24   opls_823      1    UNK   H0O      1     0.0852     1.0080 
    25   opls_824      1    UNK   H0P      1     0.0852     1.0080 
    26   opls_825      1    UNK   H0Q      1     0.0885     1.0080 
    27   opls_826      1    UNK   H0R      1      0.095     1.0080 
    28   opls_827      1    UNK   H0S      1      0.095     1.0080 
    29   opls_828      1    UNK   H0T      1     0.0863     1.0080 
    30   opls_829      1    UNK   H0U      1     0.0863     1.0080 
    31   opls_830      1    UNK   H0V      1     0.0863     1.0080 
    32   opls_831      1    UNK   H0W      1     0.1284     1.0080 
    33   opls_832      1    UNK   H0X      2     0.1284     1.0080 
    34   opls_833      1    UNK   H0Y      2     0.1249     1.0080 
    35   opls_834      1    UNK   H0Z      2     0.1249     1.0080 
    36   opls_835      1    UNK   H10      2     0.1009     1.0080 
    37   opls_836      1    UNK   H11      2     0.1009     1.0080 
    38   opls_837      1    UNK   H12      2     0.1009     1.0080 
[ bonds ]
    2     1     1      0.1529 224262.400
    3     2     1      0.1529 224262.400
    4     3     1      0.1448 319657.600
    5     4     1      0.1448 319657.600
    6     4     1      0.1448 319657.600
    7     6     1      0.1529 224262.400
    8     7     1      0.1529 224262.400
    9     6     1      0.1529 224262.400
   10     9     1      0.1410 267776.000
   11    10     1      0.1327 179075.200
   12    11     1      0.1229 476976.000
   13    11     1      0.1327 179075.200
   14    13     1      0.1410 267776.000
   15    14     1      0.1529 224262.400
   16     1     1      0.1090 284512.000
   17     1     1      0.1090 284512.000
   18     1     1      0.1090 284512.000
   19     2     1      0.1090 284512.000
   20     2     1      0.1090 284512.000
   21     3     1      0.1090 284512.000
   22     3     1      0.1090 284512.000
   23     5     1      0.1090 284512.000
   24     5     1      0.1090 284512.000
   25     5     1      0.1090 284512.000
   26     6     1      0.1090 284512.000
   27     7     1      0.1090 284512.000
   28     7     1      0.1090 284512.000
   29     8     1      0.1090 284512.000
   30     8     1      0.1090 284512.000
   31     8     1      0.1090 284512.000
   32     9     1      0.1090 284512.000
   33     9     1      0.1090 284512.000
   34    14     1      0.1090 284512.000
   35    14     1      0.1090 284512.000
   36    15     1      0.1090 284512.000
   37    15     1      0.1090 284512.000
   38    15     1      0.1090 284512.000

[ angles ]
;  ai    aj    ak funct            c0            c1            c2            c3 
    1     2     3     1    112.700    488.273
    2     3     4     1    109.470    470.282
    3     4     5     1    107.200    433.462
    3     4     6     1    107.200    433.462
    4     6     7     1    109.470    470.282
    6     7     8     1    112.700    488.273
    4     6     9     1    109.470    470.282
    6     9    10     1    109.500    418.400
    9    10    11     1    116.900    694.544
   10    11    12     1    123.400    694.544
   10    11    13     1    118.180    584.923
   11    13    14     1    116.900    694.544
   13    14    15     1    109.500    418.400
    2     1    16     1    110.700    313.800
    2     1    17     1    110.700    313.800
    2     1    18     1    110.700    313.800
    1     2    19     1    110.700    313.800
    1     2    20     1    110.700    313.800
    2     3    21     1    110.700    313.800
    2     3    22     1    110.700    313.800
    4     5    23     1    109.500    292.880
    4     5    24     1    109.500    292.880
    4     5    25     1    109.500    292.880
    4     6    26     1    109.500    292.880
    6     7    27     1    110.700    313.800
    6     7    28     1    110.700    313.800
    7     8    29     1    110.700    313.800
    7     8    30     1    110.700    313.800
    7     8    31     1    110.700    313.800
    6     9    32     1    110.700    313.800
    6     9    33     1    110.700    313.800
   13    14    34     1    109.500    292.880
   13    14    35     1    109.500    292.880
   14    15    36     1    110.700    313.800
   14    15    37     1    110.700    313.800
   14    15    38     1    110.700    313.800
    8     7    28     1    110.700    313.800
    5     4     6     1    107.200    433.462
    3     2    20     1    110.700    313.800
   36    15    37     1    107.800    276.144
   34    14    35     1    107.800    276.144
   29     8    30     1    107.800    276.144
   16     1    18     1    107.800    276.144
    7     6     9     1    112.700    488.273
    9     6    26     1    110.700    313.800
    4     3    22     1    109.500    292.880
   23     5    24     1    107.800    276.144
    8     7    27     1    110.700    313.800
   21     3    22     1    107.800    276.144
   17     1    18     1    107.800    276.144
    7     6    26     1    110.700    313.800
   23     5    25     1    107.800    276.144
   36    15    38     1    107.800    276.144
   24     5    25     1    107.800    276.144
   29     8    31     1    107.800    276.144
    3     2    19     1    110.700    313.800
   27     7    28     1    107.800    276.144
    4     3    21     1    109.500    292.880
   19     2    20     1    107.800    276.144
   16     1    17     1    107.800    276.144
   12    11    13     1    123.400    694.544
   10     9    33     1    109.500    292.880
   30     8    31     1    107.800    276.144
   15    14    35     1    110.700    313.800
   32     9    33     1    107.800    276.144
   37    15    38     1    107.800    276.144
   10     9    32     1    109.500    292.880
   15    14    34     1    110.700    313.800

[ dihedrals ]
; IMPROPER DIHEDRAL ANGLES 
;  ai    aj    ak    al funct            c0            c1            c2            c3            c4            c5
    13    11    10    12    4        180.000     43.932     2  

[ dihedrals ]
; PROPER DIHEDRAL ANGLES
;  ai    aj    ak    al funct            c0            c1            c2            c3            c4            c5
   11   10    9    6        3      -2.197   5.201   0.527  -3.531  -0.000   0.000
    9    6    7    8        3       2.301  -1.464   0.837  -1.674  -0.000   0.000
    8    7    6    4        3       3.335  -1.552   2.820  -4.602  -0.000   0.000
    7    6    4    5        3       1.789   3.492   0.536  -5.816  -0.000   0.000
    9    6    4    5        3       1.789   3.492   0.536  -5.816  -0.000   0.000
    7    6    4    3        3       1.789   3.492   0.536  -5.816  -0.000   0.000
    9    6    4    3        3       1.789   3.492   0.536  -5.816  -0.000   0.000
   15   14   13   11        3      -2.197   5.201   0.527  -3.531  -0.000   0.000
    6    4    3    2        3       1.789   3.492   0.536  -5.816  -0.000   0.000
    5    4    3    2        3       1.789   3.492   0.536  -5.816  -0.000   0.000
   14   13   11   12        3      21.439   0.000  -21.439  -0.000  -0.000   0.000
   14   13   11   10        3      31.206  -9.768  -21.439  -0.000  -0.000   0.000
   21    3    2    1        3       0.628   1.883   0.000  -2.510  -0.000   0.000
   27    7    6    9        3       0.628   1.883   0.000  -2.510  -0.000   0.000
   22    3    2    1        3       0.628   1.883   0.000  -2.510  -0.000   0.000
   30    8    7    6        3       0.628   1.883   0.000  -2.510  -0.000   0.000
   29    8    7    6        3       0.628   1.883   0.000  -2.510  -0.000   0.000
   26    6    7    8        3       0.628   1.883   0.000  -2.510  -0.000   0.000
   32    9    6    7        3       0.628   1.883   0.000  -2.510  -0.000   0.000
   28    7    6    9        3       0.628   1.883   0.000  -2.510  -0.000   0.000
   31    8    7    6        3       0.628   1.883   0.000  -2.510  -0.000   0.000
   33    9    6    7        3       0.628   1.883   0.000  -2.510  -0.000   0.000
   17    1    2    3        3       0.628   1.883   0.000  -2.510  -0.000   0.000
   16    1    2    3        3       0.628   1.883   0.000  -2.510  -0.000   0.000
   18    1    2    3        3       0.628   1.883   0.000  -2.510  -0.000   0.000
   32    9    6   26        3       0.628   1.883   0.000  -2.510  -0.000   0.000
   20    2    1   16        3       0.628   1.883   0.000  -2.510  -0.000   0.000
   27    7    6   26        3       0.628   1.883   0.000  -2.510  -0.000   0.000
   38   15   14   35        3       0.628   1.883   0.000  -2.510  -0.000   0.000
   37   15   14   35        3       0.628   1.883   0.000  -2.510  -0.000   0.000
   29    8    7   27        3       0.628   1.883   0.000  -2.510  -0.000   0.000
   31    8    7   27        3       0.628   1.883   0.000  -2.510  -0.000   0.000
   19    2    1   18        3       0.628   1.883   0.000  -2.510  -0.000   0.000
   22    3    2   20        3       0.628   1.883   0.000  -2.510  -0.000   0.000
   38   15   14   34        3       0.628   1.883   0.000  -2.510  -0.000   0.000
   33    9    6   26        3       0.628   1.883   0.000  -2.510  -0.000   0.000
   28    7    6   26        3       0.628   1.883   0.000  -2.510  -0.000   0.000
   19    2    1   17        3       0.628   1.883   0.000  -2.510  -0.000   0.000
   21    3    2   19        3       0.628   1.883   0.000  -2.510  -0.000   0.000
   22    3    2   19        3       0.628   1.883   0.000  -2.510  -0.000   0.000
   20    2    1   17        3       0.628   1.883   0.000  -2.510  -0.000   0.000
   30    8    7   28        3       0.628   1.883   0.000  -2.510  -0.000   0.000
   19    2    1   16        3       0.628   1.883   0.000  -2.510  -0.000   0.000
   36   15   14   35        3       0.628   1.883   0.000  -2.510  -0.000   0.000
   36   15   14   34        3       0.628   1.883   0.000  -2.510  -0.000   0.000
   31    8    7   28        3       0.628   1.883   0.000  -2.510  -0.000   0.000
   30    8    7   27        3       0.628   1.883   0.000  -2.510  -0.000   0.000
   21    3    2   20        3       0.628   1.883   0.000  -2.510  -0.000   0.000
   29    8    7   28        3       0.628   1.883   0.000  -2.510  -0.000   0.000
   20    2    1   18        3       0.628   1.883   0.000  -2.510  -0.000   0.000
   37   15   14   34        3       0.628   1.883   0.000  -2.510  -0.000   0.000
   20    2    3    4        3      -4.096   5.088   2.966  -3.958  -0.000   0.000
   33    9    6    4        3      -4.096   5.088   2.966  -3.958  -0.000   0.000
   28    7    6    4        3      -4.096   5.088   2.966  -3.958  -0.000   0.000
   32    9    6    4        3      -4.096   5.088   2.966  -3.958  -0.000   0.000
   19    2    3    4        3      -4.096   5.088   2.966  -3.958  -0.000   0.000
   27    7    6    4        3      -4.096   5.088   2.966  -3.958  -0.000   0.000
   26    6    9   10        3       0.979   2.937   0.000  -3.916  -0.000   0.000
   37   15   14   13        3       0.979   2.937   0.000  -3.916  -0.000   0.000
   36   15   14   13        3       0.979   2.937   0.000  -3.916  -0.000   0.000
   38   15   14   13        3       0.979   2.937   0.000  -3.916  -0.000   0.000
   23    5    4    6        3       1.172   3.515   0.000  -4.686  -0.000   0.000
   26    6    4    5        3       1.172   3.515   0.000  -4.686  -0.000   0.000
   21    3    4    6        3       1.172   3.515   0.000  -4.686  -0.000   0.000
   24    5    4    6        3       1.172   3.515   0.000  -4.686  -0.000   0.000
   26    6    4    3        3       1.172   3.515   0.000  -4.686  -0.000   0.000
   23    5    4    3        3       1.172   3.515   0.000  -4.686  -0.000   0.000
   22    3    4    6        3       1.172   3.515   0.000  -4.686  -0.000   0.000
   25    5    4    6        3       1.172   3.515   0.000  -4.686  -0.000   0.000
   21    3    4    5        3       1.172   3.515   0.000  -4.686  -0.000   0.000
   25    5    4    3        3       1.172   3.515   0.000  -4.686  -0.000   0.000
   24    5    4    3        3       1.172   3.515   0.000  -4.686  -0.000   0.000
   22    3    4    5        3       1.172   3.515   0.000  -4.686  -0.000   0.000
   32    9   10   11        3       0.414   1.243   0.000  -1.657  -0.000   0.000
   35   14   13   11        3       0.414   1.243   0.000  -1.657  -0.000   0.000
   34   14   13   11        3       0.414   1.243   0.000  -1.657  -0.000   0.000
   33    9   10   11        3       0.414   1.243   0.000  -1.657  -0.000   0.000
    4    3    2    1        3       3.335  -1.552   2.820  -4.602  -0.000   0.000
   12   11   10    9        3      21.439   0.000  -21.439  -0.000  -0.000   0.000
   13   11   10    9        3      31.206  -9.768  -21.439  -0.000  -0.000   0.000
   10    9    6    7        3       2.874   0.582   2.092  -5.548  -0.000   0.000
   10    9    6    4        3      16.736  -16.736   0.000  -0.000  -0.000   0.000

[ pairs ]
     1     4    1
     2     5    1
     2     6    1
     3     7    1
     5     7    1
     4     8    1
     3     9    1
     5     9    1
     4    10    1
     8     9    1
     7    10    1
     6    11    1
     3    16    1
     3    17    1
     9    12    1
     3    18    1
     9    13    1
     1    21    1
     4    19    1
     1    22    1
    10    14    1
     4    20    1
    12    14    1
    11    15    1
     5    21    1
     3    23    1
     6    21    1
     5    22    1
     3    24    1
     6    22    1
     3    25    1
     6    23    1
     3    26    1
     6    24    1
     6    25    1
     5    26    1
     4    27    1
     4    28    1
     8    26    1
    16    19    1
     6    29    1
    17    19    1
    16    20    1
    10    26    1
     9    27    1
     6    30    1
     4    32    1
    18    19    1
    17    20    1
     9    28    1
     6    31    1
     4    33    1
    18    20    1
     7    32    1
    19    21    1
     7    33    1
    20    21    1
    19    22    1
    20    22    1
    11    32    1
    11    33    1
    11    34    1
    11    35    1
    13    36    1
    13    37    1
    13    38    1
    26    27    1
    26    28    1
    27    29    1
    28    29    1
    27    30    1
    28    30    1
    27    31    1
    26    32    1
    28    31    1
    26    33    1
    34    36    1
    35    36    1
    34    37    1
    35    37    1
    34    38    1
    35    38    1

