LIGPARGEN GENERATED GRO FILE
   38
    1UNK    C00    1   0.100   0.100   0.000
    1UNK    C01    2  -0.052   0.100   0.000
    1UNK    C02    3  -0.107   0.100   0.144
    1UNK    N03    4  -0.254   0.106   0.156
    1UNK    C04    5  -0.314  -0.011   0.090
    1UNK    C05    6  -0.297   0.114   0.300
    1UNK    C06    7  -0.237   0.235   0.377
    1UNK    C07    8  -0.282   0.372   0.325
    1UNK    C08    9  -0.451   0.115   0.318
    1UNK    O09   10  -0.487   0.122   0.457
    1UNK    C0A   11  -0.496   0.002   0.519
    1UNK    O0B   12  -0.471  -0.106   0.469
    1UNK    O0C   13  -0.546   0.023   0.643
    1UNK    C0D   14  -0.598  -0.094   0.707
    1UNK    C0E   15  -0.742  -0.112   0.664
    1UNK    H0F   16   0.138   0.105  -0.102
    1UNK    H0G   17   0.139   0.009   0.046
    1UNK    H0H   18   0.140   0.186   0.055
    1UNK    H0I   19  -0.085   0.012  -0.055
    1UNK    H0J   20  -0.089   0.189  -0.054
    1UNK    H0K   21  -0.063   0.189   0.190
    1UNK    H0M   22  -0.068   0.013   0.198
    1UNK    H0N   23  -0.287  -0.017  -0.016
    1UNK    H0O   24  -0.424  -0.005   0.087
    1UNK    H0P   25  -0.285  -0.105   0.139
    1UNK    H0Q   26  -0.258   0.025   0.351
    1UNK    H0R   27  -0.127   0.231   0.376
    1UNK    H0S   28  -0.263   0.228   0.483
    1UNK    H0T   29  -0.282   0.377   0.216
    1UNK    H0U   30  -0.216   0.450   0.363
    1UNK    H0V   31  -0.383   0.395   0.361
    1UNK    H0W   32  -0.500   0.028   0.274
    1UNK    H0X   33  -0.495   0.203   0.269
    1UNK    H0Y   34  -0.593  -0.078   0.815
    1UNK    H0Z   35  -0.538  -0.183   0.685
    1UNK    H10   36  -0.801  -0.024   0.690
    1UNK    H11   37  -0.787  -0.200   0.711
    1UNK    H12   38  -0.749  -0.123   0.555
   1.00000   1.00000   1.00000

