LIGPARGEN GENERATED GRO FILE
   42
    1UNK    C00    1   0.100   0.100   0.000
    1UNK    C01    2  -0.050   0.100   0.000
    1UNK    O02    3  -0.118   0.100   0.101
    1UNK    O03    4  -0.097   0.100  -0.127
    1UNK    C04    5  -0.240   0.112  -0.141
    1UNK    C05    6  -0.279   0.259  -0.134
    1UNK    C06    7  -0.428   0.292  -0.161
    1UNK    C07    8  -0.520   0.224  -0.055
    1UNK    C08    9  -0.670   0.257  -0.066
    1UNK    C09   10  -0.732   0.207  -0.197
    1UNK    C0A   11  -0.747   0.195   0.051
    1UNK    C0B   12  -0.443   0.444  -0.157
    1UNK    C0C   13  -0.375   0.529  -0.261
    1UNK    C0D   14  -0.525   0.529  -0.253
    1UNK    C0E   15  -0.598   0.473  -0.372
    1UNK    C0F   16  -0.592   0.651  -0.194
    1UNK    H0G   17   0.136   0.088   0.102
    1UNK    H0H   18   0.137   0.195  -0.039
    1UNK    H0I   19   0.138   0.017  -0.060
    1UNK    H0J   20  -0.291   0.050  -0.066
    1UNK    H0K   21  -0.266   0.071  -0.240
    1UNK    H0M   22  -0.216   0.313  -0.206
    1UNK    H0N   23  -0.250   0.300  -0.036
    1UNK    H0O   24  -0.452   0.254  -0.261
    1UNK    H0P   25  -0.485   0.255   0.045
    1UNK    H0Q   26  -0.507   0.116  -0.061
    1UNK    H0R   27  -0.683   0.365  -0.060
    1UNK    H0S   28  -0.750   0.099  -0.194
    1UNK    H0T   29  -0.670   0.227  -0.283
    1UNK    H0U   30  -0.829   0.257  -0.213
    1UNK    H0V   31  -0.746   0.085   0.046
    1UNK    H0W   32  -0.852   0.227   0.048
    1UNK    H0X   33  -0.705   0.225   0.147
    1UNK    H0Y   34  -0.434   0.479  -0.054
    1UNK    H0Z   35  -0.328   0.480  -0.346
    1UNK    H10   36  -0.320   0.616  -0.227
    1UNK    H11   37  -0.547   0.388  -0.417
    1UNK    H12   38  -0.607   0.550  -0.450
    1UNK    H13   39  -0.700   0.444  -0.345
    1UNK    H14   40  -0.533   0.695  -0.113
    1UNK    H15   41  -0.690   0.624  -0.153
    1UNK    H16   42  -0.607   0.728  -0.271
   1.00000   1.00000   1.00000

