LIGPARGEN GENERATED GRO FILE
   33
    1UNK    C00    1   0.100   0.100   0.000
    1UNK    C01    2  -0.052   0.100   0.000
    1UNK    C02    3  -0.107   0.100   0.143
    1UNK    C03    4  -0.262   0.100   0.153
    1UNK    C04    5  -0.323  -0.022   0.082
    1UNK    C05    6  -0.314   0.111   0.300
    1UNK    C06    7  -0.263  -0.008   0.382
    1UNK    O07    8  -0.153  -0.014   0.435
    1UNK    C08    9  -0.355  -0.126   0.401
    1UNK    O09   10  -0.468  -0.128   0.356
    1UNK    C0A   11  -0.276   0.243   0.374
    1UNK    C0B   12  -0.324   0.368   0.300
    1UNK    C0C   13  -0.335   0.247   0.517
    1UNK    H0D   14   0.138   0.100  -0.103
    1UNK    H0E   15   0.139   0.011   0.050
    1UNK    H0F   16   0.139   0.189   0.051
    1UNK    H0G   17  -0.086   0.011  -0.054
    1UNK    H0H   18  -0.089   0.188  -0.054
    1UNK    H0I   19  -0.068   0.189   0.194
    1UNK    H0J   20  -0.067   0.013   0.195
    1UNK    H0K   21  -0.298   0.188   0.098
    1UNK    H0M   22  -0.294  -0.116   0.131
    1UNK    H0N   23  -0.291  -0.029  -0.022
    1UNK    H0O   24  -0.432  -0.015   0.082
    1UNK    H0P   25  -0.423   0.107   0.298
    1UNK    H0Q   26  -0.310  -0.209   0.457
    1UNK    H0R   27  -0.167   0.250   0.385
    1UNK    H0S   28  -0.430   0.360   0.272
    1UNK    H0T   29  -0.266   0.385   0.209
    1UNK    H0U   30  -0.314   0.458   0.362
    1UNK    H0V   31  -0.444   0.243   0.514
    1UNK    H0W   32  -0.305   0.339   0.568
    1UNK    H0X   33  -0.299   0.163   0.577
   1.00000   1.00000   1.00000

