LIGPARGEN GENERATED GRO FILE
   35
    1UNK    C00    1   0.100   0.100   0.000
    1UNK    C01    2  -0.052   0.100   0.000
    1UNK    C02    3  -0.107   0.100   0.143
    1UNK    C03    4  -0.261   0.106   0.151
    1UNK    C04    5  -0.326  -0.017   0.088
    1UNK    C05    6  -0.310   0.121   0.297
    1UNK    F06    7  -0.270   0.010   0.366
    1UNK    C07    8  -0.259   0.243   0.373
    1UNK    C08    9  -0.297   0.376   0.307
    1UNK    C09   10  -0.246   0.500   0.383
    1UNK    C0A   11  -0.093   0.505   0.388
    1UNK    C0B   12  -0.299   0.626   0.315
    1UNK    H0C   13   0.138   0.100  -0.103
    1UNK    H0D   14   0.139   0.011   0.050
    1UNK    H0E   15   0.139   0.189   0.051
    1UNK    H0F   16  -0.087   0.012  -0.055
    1UNK    H0G   17  -0.088   0.189  -0.054
    1UNK    H0H   18  -0.064   0.187   0.194
    1UNK    H0I   19  -0.071   0.011   0.196
    1UNK    H0J   20  -0.295   0.193   0.093
    1UNK    H0K   21  -0.292  -0.109   0.137
    1UNK    H0M   22  -0.303  -0.025  -0.019
    1UNK    H0N   23  -0.435  -0.013   0.097
    1UNK    H0O   24  -0.420   0.121   0.299
    1UNK    H0P   25  -0.151   0.234   0.387
    1UNK    H0Q   26  -0.301   0.240   0.475
    1UNK    H0R   27  -0.406   0.381   0.299
    1UNK    H0S   28  -0.257   0.379   0.205
    1UNK    H0T   29  -0.284   0.497   0.485
    1UNK    H0U   30  -0.049   0.498   0.288
    1UNK    H0V   31  -0.052   0.424   0.449
    1UNK    H0W   32  -0.059   0.599   0.433
    1UNK    H0X   33  -0.263   0.634   0.212
    1UNK    H0Y   34  -0.267   0.716   0.369
    1UNK    H0Z   35  -0.409   0.626   0.313
   1.00000   1.00000   1.00000

