LIGPARGEN GENERATED GRO FILE
   35
    1UNK    C00    1   0.100   0.100   0.000
    1UNK    C01    2  -0.052   0.100   0.000
    1UNK    C02    3  -0.105   0.100   0.143
    1UNK    O03    4  -0.101   0.219  -0.065
    1UNK    C04    5  -0.099   0.217  -0.200
    1UNK    O05    6  -0.060   0.125  -0.270
    1UNK    O06    7  -0.149   0.335  -0.245
    1UNK    C07    8  -0.152   0.347  -0.387
    1UNK    O08    9  -0.025   0.381  -0.442
    1UNK    C09   10   0.004   0.514  -0.442
    1UNK    O0A   11  -0.070   0.602  -0.401
    1UNK    C0B   12   0.140   0.538  -0.502
    1UNK    C0C   13   0.237   0.597  -0.400
    1UNK    C0D   14   0.265   0.508  -0.279
    1UNK    C0E   15   0.328   0.374  -0.316
    1UNK    C0F   16   0.354   0.287  -0.195
    1UNK    O0G   17   0.335   0.322  -0.079
    1UNK    H0H   18   0.140   0.012   0.051
    1UNK    H0I   19   0.139   0.190   0.050
    1UNK    H0J   20   0.139   0.101  -0.102
    1UNK    H0K   21  -0.091   0.011  -0.051
    1UNK    H0M   22  -0.073   0.191   0.197
    1UNK    H0N   23  -0.068   0.013   0.198
    1UNK    H0O   24  -0.214   0.099   0.144
    1UNK    H0P   25  -0.228   0.422  -0.413
    1UNK    H0Q   26  -0.185   0.254  -0.433
    1UNK    H0R   27   0.127   0.607  -0.586
    1UNK    H0S   28   0.180   0.446  -0.545
    1UNK    H0T   29   0.197   0.693  -0.364
    1UNK    H0U   30   0.332   0.620  -0.450
    1UNK    H0V   31   0.172   0.491  -0.222
    1UNK    H0W   32   0.332   0.562  -0.211
    1UNK    H0X   33   0.423   0.389  -0.367
    1UNK    H0Y   34   0.262   0.317  -0.382
    1UNK    H0Z   35   0.394   0.187  -0.218
   1.00000   1.00000   1.00000

