LIGPARGEN GENERATED GRO FILE
   30
    1UNK    C00    1   0.100   0.100   0.000
    1UNK    C01    2  -0.052   0.100   0.000
    1UNK    C02    3  -0.109   0.100   0.142
    1UNK    C03    4  -0.262   0.107   0.140
    1UNK    C04    5  -0.320   0.107   0.278
    1UNK    C05    6  -0.470   0.107   0.299
    1UNK    C06    7  -0.566   0.101   0.185
    1UNK    C07    8  -0.711   0.102   0.233
    1UNK    C08    9  -0.387  -0.013   0.344
    1UNK    C09   10  -0.398  -0.147   0.277
    1UNK    Cl0   11  -0.364  -0.025   0.521
    1UNK    H0B   12   0.138   0.100  -0.103
    1UNK    H0C   13   0.139   0.011   0.051
    1UNK    H0D   14   0.139   0.189   0.050
    1UNK    H0E   15  -0.088   0.012  -0.054
    1UNK    H0F   16  -0.088   0.188  -0.054
    1UNK    H0G   17  -0.069   0.186   0.197
    1UNK    H0H   18  -0.077   0.010   0.195
    1UNK    H0I   19  -0.301   0.024   0.079
    1UNK    H0J   20  -0.292   0.200   0.090
    1UNK    H0K   21  -0.264   0.175   0.342
    1UNK    H0M   22  -0.505   0.177   0.375
    1UNK    H0N   23  -0.551   0.013   0.122
    1UNK    H0O   24  -0.550   0.189   0.121
    1UNK    H0P   25  -0.731   0.016   0.297
    1UNK    H0Q   26  -0.780   0.100   0.148
    1UNK    H0R   27  -0.731   0.193   0.292
    1UNK    H0S   28  -0.405  -0.141   0.168
    1UNK    H0T   29  -0.486  -0.200   0.313
    1UNK    H0U   30  -0.310  -0.207   0.300
   1.00000   1.00000   1.00000

