LIGPARGEN GENERATED GRO FILE
   45
    1UNK    C00    1   0.100   0.100   0.000
    1UNK    C01    2  -0.053   0.100   0.000
    1UNK    C02    3  -0.108   0.100   0.144
    1UNK    C03    4  -0.065  -0.023   0.220
    1UNK    O04    5  -0.003  -0.018   0.326
    1UNK    C05    6  -0.104   0.221  -0.082
    1UNK    C06    7  -0.257   0.228  -0.087
    1UNK    C07    8  -0.310   0.347  -0.167
    1UNK    C08    9  -0.465   0.351  -0.170
    1UNK    C09   10  -0.525   0.363  -0.029
    1UNK    C0A   11  -0.520   0.468  -0.255
    1UNK    C0B   12  -0.483   0.467  -0.406
    1UNK    C0C   13  -0.530   0.338  -0.474
    1UNK    C0D   14  -0.539   0.592  -0.480
    1UNK    C0E   15  -0.691   0.603  -0.481
    1UNK    C0F   16  -0.475   0.718  -0.424
    1UNK    O0G   17  -0.537   0.813  -0.377
    1UNK    H0H   18   0.140   0.011   0.050
    1UNK    H0I   19   0.140   0.188   0.052
    1UNK    H0J   20   0.139   0.100  -0.102
    1UNK    H0K   21  -0.086   0.008  -0.050
    1UNK    H0M   22  -0.217   0.098   0.145
    1UNK    H0N   23  -0.076   0.190   0.198
    1UNK    H0O   24  -0.098  -0.119   0.178
    1UNK    H0P   25  -0.065   0.214  -0.184
    1UNK    H0Q   26  -0.065   0.314  -0.039
    1UNK    H0R   27  -0.294   0.237   0.015
    1UNK    H0S   28  -0.296   0.135  -0.129
    1UNK    H0T   29  -0.271   0.340  -0.269
    1UNK    H0U   30  -0.272   0.441  -0.125
    1UNK    H0V   31  -0.500   0.256  -0.212
    1UNK    H0W   32  -0.501   0.461   0.015
    1UNK    H0X   33  -0.490   0.286   0.039
    1UNK    H0Y   34  -0.634   0.354  -0.034
    1UNK    H0Z   35  -0.485   0.561  -0.211
    1UNK    H10   36  -0.629   0.467  -0.246
    1UNK    H11   37  -0.374   0.471  -0.415
    1UNK    H12   38  -0.633   0.312  -0.446
    1UNK    H13   39  -0.466   0.253  -0.445
    1UNK    H14   40  -0.525   0.346  -0.583
    1UNK    H15   41  -0.506   0.587  -0.584
    1UNK    H16   42  -0.733   0.612  -0.380
    1UNK    H17   43  -0.737   0.516  -0.530
    1UNK    H18   44  -0.723   0.692  -0.536
    1UNK    H19   45  -0.364   0.720  -0.428
   1.00000   1.00000   1.00000

