LIGPARGEN GENERATED GRO FILE
   42
    1UNK    C00    1   0.100   0.100   0.000
    1UNK    C01    2  -0.053   0.100   0.000
    1UNK    C02    3  -0.114   0.100   0.143
    1UNK    C03    4  -0.078   0.228   0.220
    1UNK    C04    5  -0.141   0.353   0.159
    1UNK    C05    6  -0.293   0.343   0.142
    1UNK    C06    7  -0.366   0.384   0.270
    1UNK    C07    8  -0.338   0.206   0.086
    1UNK    C08    9  -0.270   0.079   0.146
    1UNK    C09   10  -0.313  -0.042   0.059
    1UNK    C0A   11  -0.327   0.055   0.290
    1UNK    C0B   12  -0.291  -0.070   0.373
    1UNK    C0C   13  -0.143  -0.084   0.410
    1UNK    C0D   14  -0.371  -0.065   0.504
    1UNK    H0E   15   0.138   0.107  -0.103
    1UNK    H0F   16   0.139   0.007   0.044
    1UNK    H0G   17   0.142   0.184   0.055
    1UNK    H0H   18  -0.083   0.010  -0.055
    1UNK    H0I   19  -0.088   0.185  -0.059
    1UNK    H0J   20  -0.066   0.016   0.193
    1UNK    H0K   21   0.031   0.241   0.226
    1UNK    H0M   22  -0.109   0.220   0.325
    1UNK    H0N   23  -0.095   0.372   0.061
    1UNK    H0O   24  -0.115   0.440   0.221
    1UNK    H0P   25  -0.322   0.417   0.067
    1UNK    H0Q   26  -0.322   0.342   0.360
    1UNK    H0R   27  -0.472   0.357   0.266
    1UNK    H0S   28  -0.360   0.493   0.282
    1UNK    H0T   29  -0.317   0.208  -0.022
    1UNK    H0U   30  -0.447   0.197   0.093
    1UNK    H0V   31  -0.297  -0.025  -0.048
    1UNK    H0W   32  -0.420  -0.062   0.071
    1UNK    H0X   33  -0.258  -0.133   0.087
    1UNK    H0Y   34  -0.437   0.056   0.281
    1UNK    H0Z   35  -0.304   0.141   0.353
    1UNK    H10   36  -0.322  -0.160   0.319
    1UNK    H11   37  -0.099   0.013   0.438
    1UNK    H12   38  -0.086  -0.128   0.328
    1UNK    H13   39  -0.129  -0.151   0.495
    1UNK    H14   40  -0.347   0.026   0.561
    1UNK    H15   41  -0.350  -0.151   0.568
    1UNK    H16   42  -0.479  -0.064   0.484
   1.00000   1.00000   1.00000

