LIGPARGEN GENERATED GRO FILE
   34
    1UNK    C00    1   0.100   0.100   0.000
    1UNK    C01    2  -0.053   0.100   0.000
    1UNK    C02    3  -0.109   0.100   0.144
    1UNK    C03    4  -0.099  -0.036   0.214
    1UNK    C04    5  -0.161  -0.145   0.127
    1UNK    C05    6  -0.147  -0.288   0.177
    1UNK    C06    7  -0.252  -0.325   0.280
    1UNK    C07    8  -0.157  -0.375   0.049
    1UNK    C08    9  -0.146  -0.279  -0.072
    1UNK    C09   10  -0.280  -0.266  -0.144
    1UNK    C0A   11  -0.091  -0.150  -0.009
    1UNK    C0B   12  -0.110  -0.017  -0.083
    1UNK    H0C   13   0.138   0.188   0.052
    1UNK    H0D   14   0.139   0.103  -0.102
    1UNK    H0E   15   0.142   0.012   0.049
    1UNK    H0F   16  -0.085   0.194  -0.048
    1UNK    H0G   17  -0.215   0.129   0.140
    1UNK    H0H   18  -0.058   0.176   0.204
    1UNK    H0I   19  -0.151  -0.031   0.311
    1UNK    H0J   20   0.006  -0.059   0.236
    1UNK    H0K   21  -0.268  -0.121   0.113
    1UNK    H0M   22  -0.048  -0.303   0.221
    1UNK    H0N   23  -0.354  -0.310   0.241
    1UNK    H0O   24  -0.242  -0.263   0.370
    1UNK    H0P   25  -0.243  -0.430   0.310
    1UNK    H0Q   26  -0.248  -0.434   0.046
    1UNK    H0R   27  -0.072  -0.445   0.048
    1UNK    H0S   28  -0.073  -0.318  -0.144
    1UNK    H0T   29  -0.359  -0.230  -0.077
    1UNK    H0U   30  -0.311  -0.363  -0.183
    1UNK    H0V   31  -0.272  -0.196  -0.228
    1UNK    H0W   32   0.016  -0.166   0.007
    1UNK    H0X   33  -0.217   0.002  -0.100
    1UNK    H0Y   34  -0.062  -0.021  -0.181
   1.00000   1.00000   1.00000

