LIGPARGEN GENERATED GRO FILE
   30
    1UNK    C00    1   0.100   0.100   0.000
    1UNK    C01    2  -0.052   0.100   0.000
    1UNK    C02    3  -0.110   0.100   0.142
    1UNK    C03    4  -0.147  -0.042   0.173
    1UNK    C04    5  -0.069  -0.170   0.133
    1UNK    C05    6  -0.121  -0.312   0.149
    1UNK    C06    7  -0.173  -0.337   0.290
    1UNK    C07    8  -0.010  -0.415   0.118
    1UNK    C08    9  -0.233  -0.327   0.042
    1UNK    C09   10  -0.279  -0.186   0.007
    1UNK    C0A   11  -0.161  -0.103   0.038
    1UNK    O0B   12  -0.104  -0.019  -0.064
    1UNK    H0C   13   0.138   0.199   0.028
    1UNK    H0D   14   0.140   0.073  -0.098
    1UNK    H0E   15   0.141   0.028   0.072
    1UNK    H0F   16  -0.088   0.187  -0.057
    1UNK    H0G   17  -0.204   0.158   0.141
    1UNK    H0H   18  -0.044   0.146   0.216
    1UNK    H0I   19  -0.226  -0.050   0.246
    1UNK    H0J   20   0.038  -0.162   0.118
    1UNK    H0K   21  -0.093  -0.328   0.364
    1UNK    H0M   22  -0.215  -0.439   0.300
    1UNK    H0N   23  -0.252  -0.267   0.318
    1UNK    H0O   24   0.072  -0.408   0.191
    1UNK    H0P   25   0.033  -0.397   0.019
    1UNK    H0Q   26  -0.049  -0.517   0.120
    1UNK    H0R   27  -0.316  -0.390   0.076
    1UNK    H0S   28  -0.193  -0.373  -0.049
    1UNK    H0T   29  -0.365  -0.157   0.069
    1UNK    H0U   30  -0.310  -0.179  -0.098
   1.00000   1.00000   1.00000

