LIGPARGEN GENERATED GRO FILE
   39
    1UNK    C00    1   0.100   0.100   0.000
    1UNK    C01    2  -0.052   0.100   0.000
    1UNK    C02    3  -0.108   0.100   0.143
    1UNK    C03    4  -0.261   0.100   0.152
    1UNK    C04    5  -0.331  -0.022   0.090
    1UNK    C05    6  -0.284  -0.159   0.145
    1UNK    C06    7  -0.306  -0.173   0.295
    1UNK    N07    8  -0.324  -0.185   0.420
    1UNK    S08    9  -0.513  -0.014   0.103
    1UNK    O09   10  -0.564  -0.128   0.030
    1UNK    O0A   11  -0.541  -0.001   0.245
    1UNK    C0B   12  -0.581   0.136   0.024
    1UNK    C0C   13  -0.564   0.143  -0.129
    1UNK    C0D   14  -0.423   0.148  -0.184
    1UNK    C0E   15  -0.733   0.136   0.059
    1UNK    C0F   16  -0.817   0.249  -0.001
    1UNK    H0G   17   0.138   0.105  -0.102
    1UNK    H0H   18   0.139   0.009   0.046
    1UNK    H0I   19   0.140   0.186   0.055
    1UNK    H0J   20  -0.087   0.012  -0.055
    1UNK    H0K   21  -0.088   0.189  -0.054
    1UNK    H0M   22  -0.071   0.190   0.194
    1UNK    H0N   23  -0.067   0.015   0.198
    1UNK    H0O   24  -0.299   0.192   0.105
    1UNK    H0P   25  -0.288   0.108   0.258
    1UNK    H0Q   26  -0.311  -0.025  -0.017
    1UNK    H0R   27  -0.178  -0.174   0.124
    1UNK    H0S   28  -0.337  -0.241   0.095
    1UNK    H0T   29  -0.533   0.222   0.071
    1UNK    H0U   30  -0.612   0.235  -0.164
    1UNK    H0V   31  -0.619   0.060  -0.177
    1UNK    H0W   32  -0.356   0.204  -0.119
    1UNK    H0X   33  -0.423   0.197  -0.282
    1UNK    H0Y   34  -0.384   0.047  -0.199
    1UNK    H0Z   35  -0.745   0.141   0.168
    1UNK    H10   36  -0.778   0.041   0.028
    1UNK    H11   37  -0.775   0.347   0.024
    1UNK    H12   38  -0.919   0.244   0.038
    1UNK    H13   39  -0.823   0.240  -0.110
   1.00000   1.00000   1.00000

