
;
; GENERATED BY LigParGen Server
; Jorgensen Lab @ Yale University 
;
[ atomtypes ]
  opls_818  H818     1.0080     0.000    A    2.50000E-01   1.25520E-01
  opls_804  C804    12.0110     0.000    A    3.45000E-01   3.47272E-01
  opls_824  H824     1.0080     0.000    A    2.50000E-01   1.25520E-01
  opls_810  C810    12.0110     0.000    A    3.45000E-01   3.47272E-01
  opls_828  H828     1.0080     0.000    A    2.50000E-01   1.25520E-01
  opls_813  H813     1.0080     0.000    A    2.50000E-01   1.25520E-01
  opls_803  C803    12.0110     0.000    A    3.45000E-01   3.47272E-01
  opls_802  C802    12.0110     0.000    A    3.50000E-01   2.76144E-01
  opls_815  H815     1.0080     0.000    A    2.50000E-01   1.25520E-01
  opls_801  C801    12.0110     0.000    A    3.50000E-01   2.76144E-01
  opls_822  H822     1.0080     0.000    A    2.50000E-01   1.25520E-01
  opls_807  C807    12.0110     0.000    A    3.50000E-01   2.76144E-01
  opls_825  H825     1.0080     0.000    A    2.50000E-01   1.25520E-01
  opls_814  H814     1.0080     0.000    A    2.50000E-01   1.25520E-01
  opls_821  H821     1.0080     0.000    A    2.50000E-01   1.25520E-01
  opls_820  H820     1.0080     0.000    A    2.50000E-01   1.25520E-01
  opls_829  H829     1.0080     0.000    A    2.50000E-01   1.25520E-01
  opls_816  H816     1.0080     0.000    A    2.50000E-01   1.25520E-01
  opls_800  C800    12.0110     0.000    A    3.50000E-01   2.76144E-01
  opls_806  C806    12.0110     0.000    A    3.50000E-01   2.76144E-01
  opls_823  H823     1.0080     0.000    A    2.50000E-01   1.25520E-01
  opls_826  H826     1.0080     0.000    A    2.50000E-01   1.25520E-01
  opls_819  H819     1.0080     0.000    A    2.50000E-01   1.25520E-01
  opls_805  C805    12.0110     0.000    A    3.50000E-01   2.76144E-01
  opls_827  H827     1.0080     0.000    A    2.50000E-01   1.25520E-01
  opls_811  O811    15.9990     0.000    A    2.90000E-01   5.85760E-01
  opls_809  C809    12.0110     0.000    A    3.50000E-01   2.76144E-01
  opls_808  C808    12.0110     0.000    A    3.50000E-01   2.76144E-01
  opls_817  H817     1.0080     0.000    A    2.50000E-01   1.25520E-01
  opls_812  H812     1.0080     0.000    A    2.50000E-01   1.25520E-01
[ moleculetype ]
; Name               nrexcl
UNK                   3
[ atoms ]
;   nr       type  resnr residue  atom   cgnr     charge       mass  
     1   opls_800      1    UNK   C00      1     -0.261    12.0110 
     2   opls_801      1    UNK   C01      1     0.0564    12.0110 
     3   opls_802      1    UNK   C02      1    -0.1718    12.0110 
     4   opls_803      1    UNK   C03      1    -0.2015    12.0110 
     5   opls_804      1    UNK   C04      1    -0.1703    12.0110 
     6   opls_805      1    UNK   C05      1    -0.0168    12.0110 
     7   opls_806      1    UNK   C06      1    -0.2256    12.0110 
     8   opls_807      1    UNK   C07      1    -0.2266    12.0110 
     9   opls_808      1    UNK   C08      1    -0.1771    12.0110 
    10   opls_809      1    UNK   C09      1    -0.1415    12.0110 
    11   opls_810      1    UNK   C0A      1     0.0376    12.0110 
    12   opls_811      1    UNK   O0B      1    -0.3341    15.9990 
    13   opls_812      1    UNK   H0C      1     0.0925     1.0080 
    14   opls_813      1    UNK   H0D      1     0.0925     1.0080 
    15   opls_814      1    UNK   H0E      1     0.0925     1.0080 
    16   opls_815      1    UNK   H0F      1     0.1186     1.0080 
    17   opls_816      1    UNK   H0G      1     0.1097     1.0080 
    18   opls_817      1    UNK   H0H      1     0.1097     1.0080 
    19   opls_818      1    UNK   H0I      1     0.1438     1.0080 
    20   opls_819      1    UNK   H0J      1     0.1492     1.0080 
    21   opls_820      1    UNK   H0K      1     0.0829     1.0080 
    22   opls_821      1    UNK   H0M      1     0.0829     1.0080 
    23   opls_822      1    UNK   H0N      1     0.0829     1.0080 
    24   opls_823      1    UNK   H0O      1     0.0856     1.0080 
    25   opls_824      1    UNK   H0P      1     0.0856     1.0080 
    26   opls_825      1    UNK   H0Q      1     0.0856     1.0080 
    27   opls_826      1    UNK   H0R      1      0.099     1.0080 
    28   opls_827      1    UNK   H0S      1      0.099     1.0080 
    29   opls_828      1    UNK   H0T      1     0.1101     1.0080 
    30   opls_829      1    UNK   H0U      1     0.1101     1.0080 
[ bonds ]
    2     1     1      0.1529 224262.400
    3     2     1      0.1529 224262.400
    4     3     1      0.1510 234304.000
    5     4     1      0.1520 217568.000
    6     5     1      0.1510 234304.000
    7     6     1      0.1529 224262.400
    8     6     1      0.1529 224262.400
    9     6     1      0.1529 224262.400
   10     9     1      0.1529 224262.400
   11     4     1      0.1520 217568.000
   12     2     1      0.1410 267776.000
   13     1     1      0.1090 284512.000
   14     1     1      0.1090 284512.000
   15     1     1      0.1090 284512.000
   16     2     1      0.1090 284512.000
   17     3     1      0.1090 284512.000
   18     3     1      0.1090 284512.000
   19     4     1      0.1088 284512.000
   20     5     1      0.1088 284512.000
   21     7     1      0.1090 284512.000
   22     7     1      0.1090 284512.000
   23     7     1      0.1090 284512.000
   24     8     1      0.1090 284512.000
   25     8     1      0.1090 284512.000
   26     8     1      0.1090 284512.000
   27     9     1      0.1090 284512.000
   28     9     1      0.1090 284512.000
   29    10     1      0.1090 284512.000
   30    10     1      0.1090 284512.000
   11     5     1      0.1520 217568.000
   11    10     1      0.1510 234304.000
   12    11     1      0.1410 267776.000

[ angles ]
;  ai    aj    ak funct            c0            c1            c2            c3 
    1     2     3     1    112.700    488.273
    2     3     4     1    112.700    488.273
    3     4     5     1    117.200    313.800
    4     5     6     1    117.200    313.800
    5     6     7     1    112.700    488.273
    5     6     8     1    112.700    488.273
    5     6     9     1    112.700    488.273
    6     9    10     1    112.700    488.273
    3     4    11     1    117.200    313.800
    1     2    12     1    109.500    418.400
    2     1    13     1    110.700    313.800
    2     1    14     1    110.700    313.800
    2     1    15     1    110.700    313.800
    1     2    16     1    110.700    313.800
    2     3    17     1    110.700    313.800
    2     3    18     1    110.700    313.800
    3     4    19     1    114.300    292.880
    4     5    20     1    117.200    313.800
    6     7    21     1    110.700    313.800
    6     7    22     1    110.700    313.800
    6     7    23     1    110.700    313.800
    6     8    24     1    110.700    313.800
    6     8    25     1    110.700    313.800
    6     8    26     1    110.700    313.800
    6     9    27     1    110.700    313.800
    6     9    28     1    110.700    313.800
    9    10    29     1    110.700    313.800
    9    10    30     1    110.700    313.800
   11     5    20     1    117.200    313.800
    7     6     9     1    112.700    488.273
   13     1    14     1    107.800    276.144
    5    11    12     1    109.500    418.400
    4    11     5     1     83.000    251.040
   24     8    26     1    107.800    276.144
   25     8    26     1    107.800    276.144
   29    10    30     1    107.800    276.144
   22     7    23     1    107.800    276.144
    6     5    11     1    117.200    313.800
   27     9    28     1    107.800    276.144
    3     2    16     1    110.700    313.800
   14     1    15     1    107.800    276.144
    4     3    18     1    110.700    313.800
    5    11    10     1    117.200    313.800
    4     5    11     1     83.000    251.040
   21     7    22     1    107.800    276.144
    2    12    11     1    109.500    502.080
    6     5    20     1    114.300    292.880
   10    11    12     1    109.500    418.400
    5     4    19     1    117.200    313.800
    7     6     8     1    112.700    488.273
    3     2    12     1    109.500    418.400
   11    10    29     1    110.700    313.800
    4    11    12     1    109.500    418.400
    5     4    11     1     83.000    251.040
    8     6     9     1    112.700    488.273
    9    10    11     1    112.700    488.273
   24     8    25     1    107.800    276.144
   21     7    23     1    107.800    276.144
   10     9    28     1    110.700    313.800
    4    11    10     1    117.200    313.800
   11     4    19     1    117.200    313.800
   17     3    18     1    107.800    276.144
   13     1    15     1    107.800    276.144
   12     2    16     1    109.500    292.880
    4     3    17     1    110.700    313.800
   10     9    27     1    110.700    313.800
   11    10    30     1    110.700    313.800

[ dihedrals ]
; IMPROPER DIHEDRAL ANGLES 
;  ai    aj    ak    al funct            c0            c1            c2            c3            c4            c5

[ dihedrals ]
; PROPER DIHEDRAL ANGLES
;  ai    aj    ak    al funct            c0            c1            c2            c3            c4            c5
   10    9    6    7        3       2.301  -1.464   0.837  -1.674  -0.000   0.000
   10    9    6    8        3       2.301  -1.464   0.837  -1.674  -0.000   0.000
   10    9    6    5        3       2.301  -1.464   0.837  -1.674  -0.000   0.000
    9    6    5    4        3       0.000   0.000   0.000  -0.000  -0.000   0.000
    9   10   11    5        3       0.000   0.000   0.000  -0.000  -0.000   0.000
    8    6    5    4        3       0.000   0.000   0.000  -0.000  -0.000   0.000
    9   10   11    4        3       0.000   0.000   0.000  -0.000  -0.000   0.000
    7    6    5    4        3       0.000   0.000   0.000  -0.000  -0.000   0.000
   10   11    4    3        3       0.000   0.000   0.000  -0.000  -0.000   0.000
    6    5    4    3        3       0.000   0.000   0.000  -0.000  -0.000   0.000
   10   11    5    6        3       0.000   0.000   0.000  -0.000  -0.000   0.000
    6    5   11    4        3       0.000   0.000   0.000  -0.000  -0.000   0.000
   10   11    4    5        3       0.000   0.000   0.000  -0.000  -0.000   0.000
   10   11    5    4        3       0.000   0.000   0.000  -0.000  -0.000   0.000
   10   11   12    2        3       1.715   2.845   1.046  -5.607  -0.000   0.000
    4    3    2    1        3       2.301  -1.464   0.837  -1.674  -0.000   0.000
   11   10    9    6        3       2.301  -1.464   0.837  -1.674  -0.000   0.000
   11    4    3    2        3       0.000   0.000   0.000  -0.000  -0.000   0.000
   11    5    6    9        3       0.000   0.000   0.000  -0.000  -0.000   0.000
   11    5    6    7        3       0.000   0.000   0.000  -0.000  -0.000   0.000
   11    5    6    8        3       0.000   0.000   0.000  -0.000  -0.000   0.000
    5    4    3    2        3       0.000   0.000   0.000  -0.000  -0.000   0.000
   11    4    3    5        3       0.000   0.000   0.000  -0.000  -0.000   0.000
    5   11   12    2        3       1.715   2.845   1.046  -5.607  -0.000   0.000
    4   11   12    2        3       1.715   2.845   1.046  -5.607  -0.000   0.000
   11   12    2    3        3       1.715   2.845   1.046  -5.607  -0.000   0.000
   11   12    2    1        3       1.715   2.845   1.046  -5.607  -0.000   0.000
   28    9    6    8        3       0.628   1.883   0.000  -2.510  -0.000   0.000
   26    8    6    9        3       0.628   1.883   0.000  -2.510  -0.000   0.000
   28    9    6    7        3       0.628   1.883   0.000  -2.510  -0.000   0.000
   22    7    6    8        3       0.628   1.883   0.000  -2.510  -0.000   0.000
   18    3    2    1        3       0.628   1.883   0.000  -2.510  -0.000   0.000
   14    1    2    3        3       0.628   1.883   0.000  -2.510  -0.000   0.000
   26    8    6    7        3       0.628   1.883   0.000  -2.510  -0.000   0.000
   25    8    6    9        3       0.628   1.883   0.000  -2.510  -0.000   0.000
   24    8    6    9        3       0.628   1.883   0.000  -2.510  -0.000   0.000
   29   10    9    6        3       0.628   1.883   0.000  -2.510  -0.000   0.000
   17    3    2    1        3       0.628   1.883   0.000  -2.510  -0.000   0.000
   27    9    6    8        3       0.628   1.883   0.000  -2.510  -0.000   0.000
   30   10    9    6        3       0.628   1.883   0.000  -2.510  -0.000   0.000
   23    7    6    9        3       0.628   1.883   0.000  -2.510  -0.000   0.000
   25    8    6    7        3       0.628   1.883   0.000  -2.510  -0.000   0.000
   15    1    2    3        3       0.628   1.883   0.000  -2.510  -0.000   0.000
   21    7    6    9        3       0.628   1.883   0.000  -2.510  -0.000   0.000
   23    7    6    8        3       0.628   1.883   0.000  -2.510  -0.000   0.000
   13    1    2    3        3       0.628   1.883   0.000  -2.510  -0.000   0.000
   22    7    6    9        3       0.628   1.883   0.000  -2.510  -0.000   0.000
   24    8    6    7        3       0.628   1.883   0.000  -2.510  -0.000   0.000
   21    7    6    8        3       0.628   1.883   0.000  -2.510  -0.000   0.000
   27    9    6    7        3       0.628   1.883   0.000  -2.510  -0.000   0.000
   28    9   10   11        3       0.628   1.883   0.000  -2.510  -0.000   0.000
   24    8    6    5        3       0.628   1.883   0.000  -2.510  -0.000   0.000
   25    8    6    5        3       0.628   1.883   0.000  -2.510  -0.000   0.000
   23    7    6    5        3       0.628   1.883   0.000  -2.510  -0.000   0.000
   22    7    6    5        3       0.628   1.883   0.000  -2.510  -0.000   0.000
   26    8    6    5        3       0.628   1.883   0.000  -2.510  -0.000   0.000
   27    9   10   11        3       0.628   1.883   0.000  -2.510  -0.000   0.000
   27    9    6    5        3       0.628   1.883   0.000  -2.510  -0.000   0.000
   16    2    3    4        3       0.628   1.883   0.000  -2.510  -0.000   0.000
   21    7    6    5        3       0.628   1.883   0.000  -2.510  -0.000   0.000
   28    9    6    5        3       0.628   1.883   0.000  -2.510  -0.000   0.000
   17    3    2   16        3       0.628   1.883   0.000  -2.510  -0.000   0.000
   16    2    1   13        3       0.628   1.883   0.000  -2.510  -0.000   0.000
   30   10    9   28        3       0.628   1.883   0.000  -2.510  -0.000   0.000
   18    3    2   16        3       0.628   1.883   0.000  -2.510  -0.000   0.000
   16    2    1   14        3       0.628   1.883   0.000  -2.510  -0.000   0.000
   29   10    9   27        3       0.628   1.883   0.000  -2.510  -0.000   0.000
   29   10    9   28        3       0.628   1.883   0.000  -2.510  -0.000   0.000
   30   10    9   27        3       0.628   1.883   0.000  -2.510  -0.000   0.000
   16    2    1   15        3       0.628   1.883   0.000  -2.510  -0.000   0.000
   13    1    2   12        3       0.979   2.937   0.000  -3.916  -0.000   0.000
   14    1    2   12        3       0.979   2.937   0.000  -3.916  -0.000   0.000
   18    3    2   12        3       0.979   2.937   0.000  -3.916  -0.000   0.000
   15    1    2   12        3       0.979   2.937   0.000  -3.916  -0.000   0.000
   17    3    2   12        3       0.979   2.937   0.000  -3.916  -0.000   0.000
   29   10   11    5        3       0.628   1.883   0.000  -2.510  -0.000   0.000
   30   10   11    4        3       0.628   1.883   0.000  -2.510  -0.000   0.000
   17    3    4    5        3       0.628   1.883   0.000  -2.510  -0.000   0.000
   29   10   11    4        3       0.628   1.883   0.000  -2.510  -0.000   0.000
   17    3    4   11        3       0.628   1.883   0.000  -2.510  -0.000   0.000
   30   10   11    5        3       0.628   1.883   0.000  -2.510  -0.000   0.000
   18    3    4    5        3       0.628   1.883   0.000  -2.510  -0.000   0.000
   18    3    4   11        3       0.628   1.883   0.000  -2.510  -0.000   0.000
   30   10   11   12        3       0.979   2.937   0.000  -3.916  -0.000   0.000
   29   10   11   12        3       0.979   2.937   0.000  -3.916  -0.000   0.000
   16    2   12   11        3       1.590   4.770   0.000  -6.360  -0.000   0.000
   20    5    6    8        3       0.628   1.883   0.000  -2.510  -0.000   0.000
   20    5    6    9        3       0.628   1.883   0.000  -2.510  -0.000   0.000
   20    5    6    7        3       0.628   1.883   0.000  -2.510  -0.000   0.000
   19    4    3    2        3       0.628   1.883   0.000  -2.510  -0.000   0.000
   19    4    3   18        3       0.628   1.883   0.000  -2.510  -0.000   0.000
   19    4    3   17        3       0.628   1.883   0.000  -2.510  -0.000   0.000
   19    4   11   10        3       0.000   0.000   0.000  -0.000  -0.000   0.000
   19    4    5    6        3       0.000   0.000   0.000  -0.000  -0.000   0.000
   20    5   11   10        3       0.000   0.000   0.000  -0.000  -0.000   0.000
   20    5    4    3        3       0.000   0.000   0.000  -0.000  -0.000   0.000
   19    4    5   11        3       0.000   0.000   0.000  -0.000  -0.000   0.000
   19    4   11    5        3       0.000   0.000   0.000  -0.000  -0.000   0.000
   20    5   11    4        3       0.000   0.000   0.000  -0.000  -0.000   0.000
   20    5    4   11        3       0.000   0.000   0.000  -0.000  -0.000   0.000
   20    5    4   19        3       0.000   0.000   0.000  -0.000  -0.000   0.000
   20    5   11   12        3       0.000   0.000   0.000  -0.000  -0.000   0.000
   19    4   11   12        3       0.000   0.000   0.000  -0.000  -0.000   0.000
   12    2    3    4        3       2.874   0.582   2.092  -5.548  -0.000   0.000
   12   11   10    9        3      -1.157  -3.471   0.000   4.628  -0.000   0.000
   12   11    5    6        3       0.000   0.000   0.000  -0.000  -0.000   0.000
   12   11    4    3        3       0.000   0.000   0.000  -0.000  -0.000   0.000
   12   11    5    4        3       0.000   0.000   0.000  -0.000  -0.000   0.000
   12   11    4    5        3       0.000   0.000   0.000  -0.000  -0.000   0.000

[ pairs ]
     1     4    1
     2     5    1
     3     6    1
     4     7    1
     4     8    1
     2    10    1
     1    11    1
     4     9    1
     3    10    1
     3    13    1
     7    10    1
     3    14    1
     8    10    1
     7    11    1
     6    12    1
     3    15    1
     1    17    1
     8    11    1
     1    18    1
     4    16    1
     9    12    1
     2    19    1
     5    17    1
     5    18    1
     3    20    1
    12    13    1
     6    19    1
    12    14    1
     5    21    1
    12    15    1
    11    16    1
     7    20    1
     5    22    1
    11    17    1
     8    20    1
     5    23    1
    13    16    1
    12    17    1
    11    18    1
    10    19    1
     9    20    1
     8    21    1
     5    24    1
    14    16    1
    12    18    1
    10    20    1
     9    21    1
     8    22    1
     5    25    1
    15    16    1
    12    19    1
     9    22    1
     8    23    1
     7    24    1
     5    26    1
    12    20    1
     9    23    1
     7    25    1
     5    27    1
    16    17    1
     9    24    1
     7    26    1
     5    28    1
     4    29    1
    16    18    1
     9    25    1
     7    27    1
     5    29    1
     4    30    1
     9    26    1
     8    27    1
     7    28    1
     6    29    1
     5    30    1
    17    19    1
     8    28    1
     6    30    1
    18    19    1
    11    27    1
    19    20    1
    11    28    1
    12    29    1
    12    30    1
    27    29    1
    28    29    1
    27    30    1
    28    30    1

