LIGPARGEN GENERATED GRO FILE
   44
    1UNK    C00    1   0.100   0.100   0.000
    1UNK    O01    2  -0.042   0.100   0.000
    1UNK    C02    3  -0.102   0.100   0.131
    1UNK    C03    4  -0.072   0.233   0.199
    1UNK    C04    5  -0.255   0.070   0.109
    1UNK    C05    6  -0.267  -0.068   0.040
    1UNK    C06    7  -0.352   0.073   0.231
    1UNK    C07    8  -0.312  -0.032   0.333
    1UNK    O08    9  -0.206  -0.026   0.395
    1UNK    C09   10  -0.376   0.209   0.302
    1UNK    C0A   11  -0.439   0.316   0.213
    1UNK    C0B   12  -0.488   0.419   0.315
    1UNK    C0C   13  -0.551   0.335   0.427
    1UNK    C0D   14  -0.699   0.305   0.395
    1UNK    C0E   15  -0.547   0.411   0.561
    1UNK    C0F   16  -0.471   0.201   0.425
    1UNK    C0G   17  -0.390   0.178   0.552
    1UNK    O0H   18  -0.433   0.110   0.645
    1UNK    H0I   19   0.134   0.064  -0.098
    1UNK    H0J   20   0.141   0.034   0.078
    1UNK    H0K   21   0.138   0.202   0.013
    1UNK    H0M   22  -0.057   0.018   0.189
    1UNK    H0N   23  -0.129   0.314   0.154
    1UNK    H0O   24   0.034   0.261   0.190
    1UNK    H0P   25  -0.091   0.228   0.307
    1UNK    H0Q   26  -0.291   0.143   0.035
    1UNK    H0R   27  -0.233  -0.149   0.106
    1UNK    H0S   28  -0.206  -0.074  -0.051
    1UNK    H0T   29  -0.370  -0.089   0.011
    1UNK    H0U   30  -0.451   0.040   0.193
    1UNK    H0V   31  -0.385  -0.112   0.351
    1UNK    H0W   32  -0.281   0.248   0.338
    1UNK    H0X   33  -0.523   0.276   0.155
    1UNK    H0Y   34  -0.367   0.360   0.144
    1UNK    H0Z   35  -0.558   0.490   0.271
    1UNK    H10   36  -0.402   0.475   0.353
    1UNK    H11   37  -0.757   0.398   0.390
    1UNK    H12   38  -0.744   0.241   0.471
    1UNK    H13   39  -0.710   0.254   0.298
    1UNK    H14   40  -0.604   0.505   0.553
    1UNK    H15   41  -0.445   0.438   0.589
    1UNK    H16   42  -0.592   0.352   0.642
    1UNK    H17   43  -0.539   0.116   0.415
    1UNK    H18   44  -0.294   0.231   0.560
   1.00000   1.00000   1.00000

