LIGPARGEN GENERATED GRO FILE
   26
    1UNK    C00    1   0.100   0.100   0.000
    1UNK    C01    2  -0.052   0.100   0.000
    1UNK    C02    3  -0.107   0.100   0.143
    1UNK    C03    4  -0.261   0.100   0.143
    1UNK    C04    5  -0.321   0.100   0.284
    1UNK    S05    6  -0.268   0.242   0.389
    1UNK    C06    7  -0.338   0.382   0.298
    1UNK    S07    8  -0.505   0.087   0.286
    1UNK    S08    9  -0.546  -0.081   0.173
    1UNK    C09   10  -0.492  -0.215   0.283
    1UNK    H0A   11   0.138   0.105  -0.103
    1UNK    H0B   12   0.139   0.009   0.047
    1UNK    H0C   13   0.140   0.186   0.055
    1UNK    H0D   14  -0.088   0.012  -0.054
    1UNK    H0E   15  -0.088   0.189  -0.053
    1UNK    H0F   16  -0.068   0.188   0.195
    1UNK    H0G   17  -0.071   0.011   0.196
    1UNK    H0H   18  -0.292   0.009   0.090
    1UNK    H0I   19  -0.298   0.184   0.084
    1UNK    H0J   20  -0.284   0.011   0.338
    1UNK    H0K   21  -0.280   0.471   0.323
    1UNK    H0M   22  -0.442   0.399   0.329
    1UNK    H0N   23  -0.334   0.368   0.190
    1UNK    H0O   24  -0.509  -0.310   0.233
    1UNK    H0P   25  -0.549  -0.213   0.376
    1UNK    H0Q   26  -0.385  -0.206   0.304
   1.00000   1.00000   1.00000

