LIGPARGEN GENERATED GRO FILE
   42
    1UNK    C00    1   0.100   0.100   0.000
    1UNK    C01    2  -0.052   0.100   0.000
    1UNK    C02    3  -0.109   0.100   0.140
    1UNK    O03    4  -0.041   0.100   0.242
    1UNK    C04    5  -0.259   0.100   0.147
    1UNK    C05    6  -0.329   0.014   0.249
    1UNK    C06    7  -0.329   0.164   0.265
    1UNK    C07    8  -0.456   0.241   0.245
    1UNK    C08    9  -0.431   0.391   0.259
    1UNK    C09   10  -0.557   0.479   0.240
    1UNK    C0A   11  -0.666   0.444   0.343
    1UNK    C0B   12  -0.524   0.632   0.245
    1UNK    C0C   13  -0.464   0.678   0.379
    1UNK    C0D   14  -0.433   0.678   0.130
    1UNK    O0E   15  -0.493   0.646   0.005
    1UNK    C0F   16  -0.411   0.687  -0.104
    1UNK    H0G   17   0.138   0.100  -0.103
    1UNK    H0H   18   0.139   0.012   0.051
    1UNK    H0I   19   0.139   0.189   0.051
    1UNK    H0J   20  -0.088   0.011  -0.052
    1UNK    H0K   21  -0.089   0.189  -0.052
    1UNK    H0M   22  -0.307   0.107   0.050
    1UNK    H0N   23  -0.269  -0.043   0.320
    1UNK    H0O   24  -0.421  -0.035   0.220
    1UNK    H0P   25  -0.269   0.203   0.346
    1UNK    H0Q   26  -0.527   0.207   0.322
    1UNK    H0R   27  -0.501   0.219   0.148
    1UNK    H0S   28  -0.355   0.419   0.184
    1UNK    H0T   29  -0.387   0.410   0.357
    1UNK    H0U   30  -0.599   0.457   0.142
    1UNK    H0V   31  -0.630   0.454   0.446
    1UNK    H0W   32  -0.701   0.342   0.330
    1UNK    H0X   33  -0.753   0.510   0.331
    1UNK    H0Y   34  -0.620   0.685   0.232
    1UNK    H0Z   35  -0.368   0.630   0.399
    1UNK    H10   36  -0.532   0.658   0.462
    1UNK    H11   37  -0.446   0.787   0.377
    1UNK    H12   38  -0.334   0.631   0.137
    1UNK    H13   39  -0.419   0.787   0.136
    1UNK    H14   40  -0.462   0.660  -0.197
    1UNK    H15   41  -0.315   0.635  -0.100
    1UNK    H16   42  -0.396   0.795  -0.102
   1.00000   1.00000   1.00000

