
;
; GENERATED BY LigParGen Server
; Jorgensen Lab @ Yale University 
;
[ atomtypes ]
  opls_818  H818     1.0080     0.000    A    2.50000E-01   1.25520E-01
  opls_804  C804    12.0110     0.000    A    3.45000E-01   3.47272E-01
  opls_824  H824     1.0080     0.000    A    2.50000E-01   1.25520E-01
  opls_805  C805    12.0110     0.000    A    3.45000E-01   3.47272E-01
  opls_836  H836     1.0080     0.000    A    2.50000E-01   1.25520E-01
  opls_834  H834     1.0080     0.000    A    2.50000E-01   1.25520E-01
  opls_828  H828     1.0080     0.000    A    2.50000E-01   1.25520E-01
  opls_812  C812    12.0110     0.000    A    3.50000E-01   2.76144E-01
  opls_803  O803    15.9990     0.000    A    2.96000E-01   8.78640E-01
  opls_811  C811    12.0110     0.000    A    3.50000E-01   2.76144E-01
  opls_827  H827     1.0080     0.000    A    2.50000E-01   1.25520E-01
  opls_801  C801    12.0110     0.000    A    3.50000E-01   2.76144E-01
  opls_838  H838     1.0080     0.000    A    2.50000E-01   1.25520E-01
  opls_822  H822     1.0080     0.000    A    2.50000E-01   1.25520E-01
  opls_807  C807    12.0110     0.000    A    3.50000E-01   2.76144E-01
  opls_825  H825     1.0080     0.000    A    2.50000E-01   1.25520E-01
  opls_826  H826     1.0080     0.000    A    2.50000E-01   1.25520E-01
  opls_830  H830     1.0080     0.000    A    2.50000E-01   1.25520E-01
  opls_814  O814    15.9990     0.000    A    2.90000E-01   5.85760E-01
  opls_821  H821     1.0080     0.000    A    2.50000E-01   1.25520E-01
  opls_820  H820     1.0080     0.000    A    2.50000E-01   1.25520E-01
  opls_837  H837     1.0080     0.000    A    2.50000E-01   1.25520E-01
  opls_829  H829     1.0080     0.000    A    2.50000E-01   1.25520E-01
  opls_831  H831     1.0080     0.000    A    2.50000E-01   1.25520E-01
  opls_832  H832     1.0080     0.000    A    2.50000E-01   1.25520E-01
  opls_816  H816     1.0080     0.000    A    2.50000E-01   1.25520E-01
  opls_800  C800    12.0110     0.000    A    3.50000E-01   2.76144E-01
  opls_815  C815    12.0110     0.000    A    3.50000E-01   2.76144E-01
  opls_802  C802    12.0110     0.000    A    3.55000E-01   2.92880E-01
  opls_823  H823     1.0080     0.000    A    2.50000E-01   1.25520E-01
  opls_813  C813    12.0110     0.000    A    3.50000E-01   2.76144E-01
  opls_806  C806    12.0110     0.000    A    3.45000E-01   3.47272E-01
  opls_835  H835     1.0080     0.000    A    2.50000E-01   1.25520E-01
  opls_841  H841     1.0080     0.000    A    2.50000E-01   1.25520E-01
  opls_819  H819     1.0080     0.000    A    2.50000E-01   1.25520E-01
  opls_810  C810    12.0110     0.000    A    3.50000E-01   2.76144E-01
  opls_833  H833     1.0080     0.000    A    2.50000E-01   1.25520E-01
  opls_839  H839     1.0080     0.000    A    2.50000E-01   1.25520E-01
  opls_809  C809    12.0110     0.000    A    3.50000E-01   2.76144E-01
  opls_808  C808    12.0110     0.000    A    3.50000E-01   2.76144E-01
  opls_817  H817     1.0080     0.000    A    2.50000E-01   1.25520E-01
  opls_840  H840     1.0080     0.000    A    2.50000E-01   1.25520E-01
[ moleculetype ]
; Name               nrexcl
UNK                   3
[ atoms ]
;   nr       type  resnr residue  atom   cgnr     charge       mass  
     1   opls_800      1    UNK   C00      1    -0.2337    12.0110 
     2   opls_801      1    UNK   C01      1    -0.2299    12.0110 
     3   opls_802      1    UNK   C02      1     0.4048    12.0110 
     4   opls_803      1    UNK   O03      1    -0.4496    15.9990 
     5   opls_804      1    UNK   C04      1    -0.2693    12.0110 
     6   opls_805      1    UNK   C05      1    -0.2107    12.0110 
     7   opls_806      1    UNK   C06      1    -0.1491    12.0110 
     8   opls_807      1    UNK   C07      1    -0.1515    12.0110 
     9   opls_808      1    UNK   C08      1    -0.1712    12.0110 
    10   opls_809      1    UNK   C09      1    -0.1032    12.0110 
    11   opls_810      1    UNK   C0A      1    -0.2367    12.0110 
    12   opls_811      1    UNK   C0B      1    -0.1083    12.0110 
    13   opls_812      1    UNK   C0C      1     -0.236    12.0110 
    14   opls_813      1    UNK   C0D      1     0.0067    12.0110 
    15   opls_814      1    UNK   O0E      1    -0.3816    15.9990 
    16   opls_815      1    UNK   C0F      1    -0.0521    12.0110 
    17   opls_816      1    UNK   H0G      1     0.0915     1.0080 
    18   opls_817      1    UNK   H0H      1     0.0915     1.0080 
    19   opls_818      1    UNK   H0I      1     0.0915     1.0080 
    20   opls_819      1    UNK   H0J      1     0.1203     1.0080 
    21   opls_820      1    UNK   H0K      1     0.1203     1.0080 
    22   opls_821      1    UNK   H0M      1     0.1456     1.0080 
    23   opls_822      1    UNK   H0N      1     0.1344     1.0080 
    24   opls_823      1    UNK   H0O      1     0.1344     1.0080 
    25   opls_824      1    UNK   H0P      1     0.1533     1.0080 
    26   opls_825      1    UNK   H0Q      1     0.0967     1.0080 
    27   opls_826      1    UNK   H0R      1     0.0967     1.0080 
    28   opls_827      1    UNK   H0S      1     0.0905     1.0080 
    29   opls_828      1    UNK   H0T      1     0.0905     1.0080 
    30   opls_829      1    UNK   H0U      1     0.1142     1.0080 
    31   opls_830      1    UNK   H0V      1     0.0811     1.0080 
    32   opls_831      1    UNK   H0W      1     0.0811     1.0080 
    33   opls_832      1    UNK   H0X      2     0.0811     1.0080 
    34   opls_833      1    UNK   H0Y      2     0.1082     1.0080 
    35   opls_834      1    UNK   H0Z      2      0.085     1.0080 
    36   opls_835      1    UNK   H10      2      0.085     1.0080 
    37   opls_836      1    UNK   H11      2      0.085     1.0080 
    38   opls_837      1    UNK   H12      2     0.0759     1.0080 
    39   opls_838      1    UNK   H13      2     0.0759     1.0080 
    40   opls_839      1    UNK   H14      2     0.0806     1.0080 
    41   opls_840      1    UNK   H15      2     0.0806     1.0080 
    42   opls_841      1    UNK   H16      2     0.0806     1.0080 
[ bonds ]
    2     1     1      0.1529 224262.400
    3     2     1      0.1522 265265.600
    4     3     1      0.1229 476976.000
    5     3     1      0.1522 265265.600
    6     5     1      0.1520 217568.000
    7     5     1      0.1520 217568.000
    8     7     1      0.1510 234304.000
    9     8     1      0.1529 224262.400
   10     9     1      0.1529 224262.400
   11    10     1      0.1529 224262.400
   12    10     1      0.1529 224262.400
   13    12     1      0.1529 224262.400
   14    12     1      0.1529 224262.400
   15    14     1      0.1410 267776.000
   16    15     1      0.1410 267776.000
   17     1     1      0.1090 284512.000
   18     1     1      0.1090 284512.000
   19     1     1      0.1090 284512.000
   20     2     1      0.1090 284512.000
   21     2     1      0.1090 284512.000
   22     5     1      0.1088 284512.000
   23     6     1      0.1088 284512.000
   24     6     1      0.1088 284512.000
   25     7     1      0.1088 284512.000
   26     8     1      0.1090 284512.000
   27     8     1      0.1090 284512.000
   28     9     1      0.1090 284512.000
   29     9     1      0.1090 284512.000
   30    10     1      0.1090 284512.000
   31    11     1      0.1090 284512.000
   32    11     1      0.1090 284512.000
   33    11     1      0.1090 284512.000
   34    12     1      0.1090 284512.000
   35    13     1      0.1090 284512.000
   36    13     1      0.1090 284512.000
   37    13     1      0.1090 284512.000
   38    14     1      0.1090 284512.000
   39    14     1      0.1090 284512.000
   40    16     1      0.1090 284512.000
   41    16     1      0.1090 284512.000
   42    16     1      0.1090 284512.000
    7     6     1      0.1520 217568.000

[ angles ]
;  ai    aj    ak funct            c0            c1            c2            c3 
    1     2     3     1    111.100    527.184
    2     3     4     1    120.400    669.440
    2     3     5     1    116.000    585.760
    3     5     6     1    111.100    527.184
    3     5     7     1    111.100    527.184
    5     7     8     1    117.200    313.800
    7     8     9     1    112.700    488.273
    8     9    10     1    112.700    488.273
    9    10    11     1    112.700    488.273
    9    10    12     1    112.700    488.273
   10    12    13     1    112.700    488.273
   10    12    14     1    112.700    488.273
   12    14    15     1    109.500    418.400
   14    15    16     1    109.500    502.080
    2     1    17     1    110.700    313.800
    2     1    18     1    110.700    313.800
    2     1    19     1    110.700    313.800
    1     2    20     1    110.700    313.800
    1     2    21     1    110.700    313.800
    3     5    22     1    109.500    292.880
    5     6    23     1    117.200    313.800
    5     6    24     1    117.200    313.800
    5     7    25     1    117.200    313.800
    7     8    26     1    110.700    313.800
    7     8    27     1    110.700    313.800
    8     9    28     1    110.700    313.800
    8     9    29     1    110.700    313.800
    9    10    30     1    110.700    313.800
   10    11    31     1    110.700    313.800
   10    11    32     1    110.700    313.800
   10    11    33     1    110.700    313.800
   10    12    34     1    110.700    313.800
   12    13    35     1    110.700    313.800
   12    13    36     1    110.700    313.800
   12    13    37     1    110.700    313.800
   12    14    38     1    110.700    313.800
   12    14    39     1    110.700    313.800
   15    16    40     1    109.500    292.880
   15    16    41     1    109.500    292.880
   15    16    42     1    109.500    292.880
   11    10    12     1    112.700    488.273
    6     7    25     1    117.200    313.800
   12    10    30     1    110.700    313.800
   14    12    34     1    110.700    313.800
    7     6    24     1    117.200    313.800
   13    12    14     1    112.700    488.273
   13    12    34     1    110.700    313.800
   10     9    28     1    110.700    313.800
   10     9    29     1    110.700    313.800
    6     5    22     1    117.200    313.800
   40    16    41     1    107.800    276.144
    7     6    23     1    117.200    313.800
    5     6     7     1     83.000    251.040
    3     2    20     1    109.500    292.880
   31    11    32     1    107.800    276.144
    6     7     8     1    117.200    313.800
    4     3     5     1    120.400    669.440
   38    14    39     1    107.800    276.144
   32    11    33     1    107.800    276.144
   41    16    42     1    107.800    276.144
   35    13    37     1    107.800    276.144
   31    11    33     1    107.800    276.144
   17     1    19     1    107.800    276.144
    8     7    25     1    114.300    292.880
   35    13    36     1    107.800    276.144
    6     5     7     1     83.000    251.040
   40    16    42     1    107.800    276.144
   36    13    37     1    107.800    276.144
   28     9    29     1    107.800    276.144
   23     6    24     1    114.300    292.880
   20     2    21     1    107.800    276.144
   17     1    18     1    107.800    276.144
    9     8    26     1    110.700    313.800
    5     7     6     1     83.000    251.040
   18     1    19     1    107.800    276.144
   26     8    27     1    107.800    276.144
    7     5    22     1    117.200    313.800
    3     2    21     1    109.500    292.880
   15    14    38     1    109.500    292.880
    9     8    27     1    110.700    313.800
   11    10    30     1    110.700    313.800
   15    14    39     1    109.500    292.880

[ dihedrals ]
; IMPROPER DIHEDRAL ANGLES 
;  ai    aj    ak    al funct            c0            c1            c2            c3            c4            c5
     5     3     2     4    4        180.000     43.932     2  

[ dihedrals ]
; PROPER DIHEDRAL ANGLES
;  ai    aj    ak    al funct            c0            c1            c2            c3            c4            c5
   14   12   10   11        3       2.301  -1.464   0.837  -1.674  -0.000   0.000
   14   12   10    9        3       2.301  -1.464   0.837  -1.674  -0.000   0.000
   12   10    9    8        3       2.301  -1.464   0.837  -1.674  -0.000   0.000
   11   10    9    8        3       2.301  -1.464   0.837  -1.674  -0.000   0.000
   13   12   10    9        3       2.301  -1.464   0.837  -1.674  -0.000   0.000
   13   12   10   11        3       2.301  -1.464   0.837  -1.674  -0.000   0.000
   10    9    8    7        3       2.301  -1.464   0.837  -1.674  -0.000   0.000
    9    8    7    6        3       0.000   0.000   0.000  -0.000  -0.000   0.000
    9    8    7    5        3       0.000   0.000   0.000  -0.000  -0.000   0.000
    8    7    5    3        3       0.000   0.000   0.000  -0.000  -0.000   0.000
    8    7    6    5        3       0.000   0.000   0.000  -0.000  -0.000   0.000
    8    7    5    6        3       0.000   0.000   0.000  -0.000  -0.000   0.000
   16   15   14   12        3       1.715   2.845   1.046  -5.607  -0.000   0.000
    5    3    2    1        3       0.000   0.000   0.000  -0.000  -0.000   0.000
    6    5    3    2        3       0.000   0.000   0.000  -0.000  -0.000   0.000
    7    5    3    2        3       0.000   0.000   0.000  -0.000  -0.000   0.000
    7    5    3    6        3       0.000   0.000   0.000  -0.000  -0.000   0.000
    6    5    3    4        3       0.000   0.000   0.000  -0.000  -0.000   0.000
    7    5    3    4        3       0.000   0.000   0.000  -0.000  -0.000   0.000
   21    2    3    5        3       0.575   1.726   0.000  -2.301  -0.000   0.000
   20    2    3    5        3       0.575   1.726   0.000  -2.301  -0.000   0.000
   21    2    3    4        3       0.000   0.000   0.000  -0.000  -0.000   0.000
   20    2    3    4        3       0.000   0.000   0.000  -0.000  -0.000   0.000
   18    1    2    3        3      -0.209  -0.628   0.000   0.837  -0.000   0.000
   19    1    2    3        3      -0.209  -0.628   0.000   0.837  -0.000   0.000
   17    1    2    3        3      -0.209  -0.628   0.000   0.837  -0.000   0.000
   35   13   12   14        3       0.628   1.883   0.000  -2.510  -0.000   0.000
   36   13   12   10        3       0.628   1.883   0.000  -2.510  -0.000   0.000
   26    8    9   10        3       0.628   1.883   0.000  -2.510  -0.000   0.000
   39   14   12   13        3       0.628   1.883   0.000  -2.510  -0.000   0.000
   30   10   12   14        3       0.628   1.883   0.000  -2.510  -0.000   0.000
   37   13   12   14        3       0.628   1.883   0.000  -2.510  -0.000   0.000
   37   13   12   10        3       0.628   1.883   0.000  -2.510  -0.000   0.000
   34   12   10   11        3       0.628   1.883   0.000  -2.510  -0.000   0.000
   36   13   12   14        3       0.628   1.883   0.000  -2.510  -0.000   0.000
   32   11   10   12        3       0.628   1.883   0.000  -2.510  -0.000   0.000
   29    9   10   12        3       0.628   1.883   0.000  -2.510  -0.000   0.000
   39   14   12   10        3       0.628   1.883   0.000  -2.510  -0.000   0.000
   32   11   10    9        3       0.628   1.883   0.000  -2.510  -0.000   0.000
   30   10   12   13        3       0.628   1.883   0.000  -2.510  -0.000   0.000
   27    8    9   10        3       0.628   1.883   0.000  -2.510  -0.000   0.000
   28    9   10   12        3       0.628   1.883   0.000  -2.510  -0.000   0.000
   29    9   10   11        3       0.628   1.883   0.000  -2.510  -0.000   0.000
   33   11   10   12        3       0.628   1.883   0.000  -2.510  -0.000   0.000
   38   14   12   13        3       0.628   1.883   0.000  -2.510  -0.000   0.000
   34   12   10    9        3       0.628   1.883   0.000  -2.510  -0.000   0.000
   33   11   10    9        3       0.628   1.883   0.000  -2.510  -0.000   0.000
   28    9   10   11        3       0.628   1.883   0.000  -2.510  -0.000   0.000
   38   14   12   10        3       0.628   1.883   0.000  -2.510  -0.000   0.000
   35   13   12   10        3       0.628   1.883   0.000  -2.510  -0.000   0.000
   31   11   10   12        3       0.628   1.883   0.000  -2.510  -0.000   0.000
   30   10    9    8        3       0.628   1.883   0.000  -2.510  -0.000   0.000
   31   11   10    9        3       0.628   1.883   0.000  -2.510  -0.000   0.000
   29    9    8    7        3       0.628   1.883   0.000  -2.510  -0.000   0.000
   28    9    8    7        3       0.628   1.883   0.000  -2.510  -0.000   0.000
   30   10    9   28        3       0.628   1.883   0.000  -2.510  -0.000   0.000
   30   10    9   29        3       0.628   1.883   0.000  -2.510  -0.000   0.000
   20    2    1   17        3       0.628   1.883   0.000  -2.510  -0.000   0.000
   39   14   12   34        3       0.628   1.883   0.000  -2.510  -0.000   0.000
   33   11   10   30        3       0.628   1.883   0.000  -2.510  -0.000   0.000
   21    2    1   19        3       0.628   1.883   0.000  -2.510  -0.000   0.000
   28    9    8   26        3       0.628   1.883   0.000  -2.510  -0.000   0.000
   29    9    8   27        3       0.628   1.883   0.000  -2.510  -0.000   0.000
   31   11   10   30        3       0.628   1.883   0.000  -2.510  -0.000   0.000
   36   13   12   34        3       0.628   1.883   0.000  -2.510  -0.000   0.000
   28    9    8   27        3       0.628   1.883   0.000  -2.510  -0.000   0.000
   21    2    1   18        3       0.628   1.883   0.000  -2.510  -0.000   0.000
   20    2    1   19        3       0.628   1.883   0.000  -2.510  -0.000   0.000
   32   11   10   30        3       0.628   1.883   0.000  -2.510  -0.000   0.000
   20    2    1   18        3       0.628   1.883   0.000  -2.510  -0.000   0.000
   21    2    1   17        3       0.628   1.883   0.000  -2.510  -0.000   0.000
   38   14   12   34        3       0.628   1.883   0.000  -2.510  -0.000   0.000
   37   13   12   34        3       0.628   1.883   0.000  -2.510  -0.000   0.000
   29    9    8   26        3       0.628   1.883   0.000  -2.510  -0.000   0.000
   34   12   10   30        3       0.628   1.883   0.000  -2.510  -0.000   0.000
   35   13   12   34        3       0.628   1.883   0.000  -2.510  -0.000   0.000
   34   12   14   15        3       0.979   2.937   0.000  -3.916  -0.000   0.000
   27    8    7    6        3       0.628   1.883   0.000  -2.510  -0.000   0.000
   26    8    7    6        3       0.628   1.883   0.000  -2.510  -0.000   0.000
   27    8    7    5        3       0.628   1.883   0.000  -2.510  -0.000   0.000
   26    8    7    5        3       0.628   1.883   0.000  -2.510  -0.000   0.000
   27    8    7   25        3       0.628   1.883   0.000  -2.510  -0.000   0.000
   26    8    7   25        3       0.628   1.883   0.000  -2.510  -0.000   0.000
   42   16   15   14        3       1.590   4.770   0.000  -6.360  -0.000   0.000
   39   14   15   16        3       1.590   4.770   0.000  -6.360  -0.000   0.000
   41   16   15   14        3       1.590   4.770   0.000  -6.360  -0.000   0.000
   40   16   15   14        3       1.590   4.770   0.000  -6.360  -0.000   0.000
   38   14   15   16        3       1.590   4.770   0.000  -6.360  -0.000   0.000
   22    5    3    2        3       0.575   1.726   0.000  -2.301  -0.000   0.000
   22    5    3    4        3       0.000   0.000   0.000  -0.000  -0.000   0.000
   25    7    8    9        3       0.628   1.883   0.000  -2.510  -0.000   0.000
   24    6    5    3        3       0.000   0.000   0.000  -0.000  -0.000   0.000
   25    7    5    3        3       0.000   0.000   0.000  -0.000  -0.000   0.000
   23    6    5    3        3       0.000   0.000   0.000  -0.000  -0.000   0.000
   22    5    7    8        3       0.000   0.000   0.000  -0.000  -0.000   0.000
   24    6    7    8        3       0.000   0.000   0.000  -0.000  -0.000   0.000
   23    6    7    8        3       0.000   0.000   0.000  -0.000  -0.000   0.000
   23    6    7    5        3       0.000   0.000   0.000  -0.000  -0.000   0.000
   25    7    5    6        3       0.000   0.000   0.000  -0.000  -0.000   0.000
   24    6    5    7        3       0.000   0.000   0.000  -0.000  -0.000   0.000
   23    6    5    7        3       0.000   0.000   0.000  -0.000  -0.000   0.000
   22    5    6    7        3       0.000   0.000   0.000  -0.000  -0.000   0.000
   22    5    7    6        3       0.000   0.000   0.000  -0.000  -0.000   0.000
   24    6    7    5        3       0.000   0.000   0.000  -0.000  -0.000   0.000
   25    7    6    5        3       0.000   0.000   0.000  -0.000  -0.000   0.000
   25    7    5   22        3       0.000   0.000   0.000  -0.000  -0.000   0.000
   25    7    6   23        3       0.000   0.000   0.000  -0.000  -0.000   0.000
   23    6    5   22        3       0.000   0.000   0.000  -0.000  -0.000   0.000
   24    6    5   22        3       0.000   0.000   0.000  -0.000  -0.000   0.000
   25    7    6   24        3       0.000   0.000   0.000  -0.000  -0.000   0.000
    4    3    2    1        3       0.000   0.000   0.000  -0.000  -0.000   0.000
   15   14   12   10        3       2.874   0.582   2.092  -5.548  -0.000   0.000
   15   14   12   13        3       2.874   0.582   2.092  -5.548  -0.000   0.000

[ pairs ]
     1     4    1
     1     5    1
     2     6    1
     2     7    1
     4     6    1
     4     7    1
     3     8    1
     5     9    1
     6     9    1
     7    10    1
     8    11    1
     8    12    1
     3    17    1
     3    18    1
     9    13    1
     3    19    1
     9    14    1
    11    13    1
     4    20    1
     2    22    1
    11    14    1
    10    15    1
     5    20    1
     4    21    1
     5    21    1
     4    22    1
     3    23    1
     3    24    1
    13    15    1
    12    16    1
     3    25    1
     8    22    1
     8    23    1
     5    26    1
     8    24    1
     6    26    1
     5    27    1
     6    27    1
     9    25    1
     7    28    1
    10    26    1
     7    29    1
    17    20    1
    10    27    1
    18    20    1
    17    21    1
     8    30    1
    19    20    1
    18    21    1
    11    28    1
    19    21    1
    12    28    1
    11    29    1
     9    31    1
    12    29    1
     9    32    1
     9    33    1
    13    30    1
    12    31    1
     9    34    1
    14    30    1
    12    32    1
    22    23    1
    12    33    1
    11    34    1
    10    35    1
    22    24    1
    10    36    1
    22    25    1
    10    37    1
    23    25    1
    10    38    1
    24    25    1
    15    34    1
    14    35    1
    10    39    1
    14    36    1
    25    26    1
    14    37    1
    13    38    1
    25    27    1
    13    39    1
    26    28    1
    16    38    1
    14    40    1
    27    28    1
    26    29    1
    16    39    1
    14    41    1
    27    29    1
    14    42    1
    28    30    1
    29    30    1
    30    31    1
    30    32    1
    30    33    1
    30    34    1
    34    35    1
    34    36    1
    34    37    1
    34    38    1
    34    39    1

