
;
; GENERATED BY LigParGen Server
; Jorgensen Lab @ Yale University 
;
[ atomtypes ]
  opls_818  H818     1.0080     0.000    A    2.50000E-01   1.25520E-01
  opls_824  H824     1.0080     0.000    A    2.50000E-01   1.25520E-01
  opls_805  O805    15.9990     0.000    A    2.96000E-01   8.78640E-01
  opls_828  H828     1.0080     0.000    A    2.50000E-01   1.25520E-01
  opls_813  H813     1.0080     0.000    A    2.50000E-01   1.25520E-01
  opls_806  O806    15.9990     0.000    A    2.90000E-01   5.85760E-01
  opls_811  C811    12.0110     0.000    A    3.50000E-01   2.76144E-01
  opls_815  H815     1.0080     0.000    A    2.50000E-01   1.25520E-01
  opls_809  C809    12.0110     0.000    A    3.50000E-01   2.76144E-01
  opls_830  H830     1.0080     0.000    A    2.50000E-01   1.25520E-01
  opls_822  H822     1.0080     0.000    A    2.50000E-01   1.25520E-01
  opls_803  C803    12.0110     0.000    A    3.50000E-01   2.76144E-01
  opls_825  H825     1.0080     0.000    A    2.50000E-01   1.25520E-01
  opls_814  H814     1.0080     0.000    A    2.50000E-01   1.25520E-01
  opls_821  H821     1.0080     0.000    A    2.50000E-01   1.25520E-01
  opls_820  H820     1.0080     0.000    A    2.50000E-01   1.25520E-01
  opls_829  H829     1.0080     0.000    A    2.50000E-01   1.25520E-01
  opls_831  H831     1.0080     0.000    A    2.50000E-01   1.25520E-01
  opls_804  C804    12.0110     0.000    A    3.55000E-01   2.92880E-01
  opls_816  H816     1.0080     0.000    A    2.50000E-01   1.25520E-01
  opls_800  C800    12.0110     0.000    A    3.50000E-01   2.76144E-01
  opls_802  C802    12.0110     0.000    A    3.50000E-01   2.76144E-01
  opls_823  H823     1.0080     0.000    A    2.50000E-01   1.25520E-01
  opls_826  H826     1.0080     0.000    A    2.50000E-01   1.25520E-01
  opls_819  H819     1.0080     0.000    A    2.50000E-01   1.25520E-01
  opls_810  C810    12.0110     0.000    A    3.50000E-01   2.76144E-01
  opls_827  H827     1.0080     0.000    A    2.50000E-01   1.25520E-01
  opls_801  C801    12.0110     0.000    A    3.50000E-01   2.76144E-01
  opls_808  C808    12.0110     0.000    A    3.50000E-01   2.76144E-01
  opls_817  H817     1.0080     0.000    A    2.50000E-01   1.25520E-01
  opls_812  H812     1.0080     0.000    A    2.50000E-01   1.25520E-01
  opls_807  C807    12.0110     0.000    A    3.50000E-01   2.76144E-01
[ moleculetype ]
; Name               nrexcl
UNK                   3
[ atoms ]
;   nr       type  resnr residue  atom   cgnr     charge       mass  
     1   opls_800      1    UNK   C00      1    -0.2388    12.0110 
     2   opls_801      1    UNK   C01      1    -0.1794    12.0110 
     3   opls_802      1    UNK   C02      1    -0.1701    12.0110 
     4   opls_803      1    UNK   C03      1     -0.191    12.0110 
     5   opls_804      1    UNK   C04      1      0.441    12.0110 
     6   opls_805      1    UNK   O05      1    -0.4449    15.9990 
     7   opls_806      1    UNK   O06      1    -0.3609    15.9990 
     8   opls_807      1    UNK   C07      1    -0.0008    12.0110 
     9   opls_808      1    UNK   C08      1    -0.1959    12.0110 
    10   opls_809      1    UNK   C09      1    -0.1117    12.0110 
    11   opls_810      1    UNK   C0A      1    -0.2385    12.0110 
    12   opls_811      1    UNK   C0B      1    -0.2347    12.0110 
    13   opls_812      1    UNK   H0C      1     0.0837     1.0080 
    14   opls_813      1    UNK   H0D      1     0.0837     1.0080 
    15   opls_814      1    UNK   H0E      1     0.0837     1.0080 
    16   opls_815      1    UNK   H0F      1     0.0902     1.0080 
    17   opls_816      1    UNK   H0G      1     0.0902     1.0080 
    18   opls_817      1    UNK   H0H      1     0.1044     1.0080 
    19   opls_818      1    UNK   H0I      1     0.1044     1.0080 
    20   opls_819      1    UNK   H0J      1     0.1272     1.0080 
    21   opls_820      1    UNK   H0K      1     0.1272     1.0080 
    22   opls_821      1    UNK   H0M      1     0.1122     1.0080 
    23   opls_822      1    UNK   H0N      1     0.1122     1.0080 
    24   opls_823      1    UNK   H0O      1     0.1035     1.0080 
    25   opls_824      1    UNK   H0P      1     0.1035     1.0080 
    26   opls_825      1    UNK   H0Q      1     0.0942     1.0080 
    27   opls_826      1    UNK   H0R      1     0.0847     1.0080 
    28   opls_827      1    UNK   H0S      1     0.0847     1.0080 
    29   opls_828      1    UNK   H0T      1     0.0847     1.0080 
    30   opls_829      1    UNK   H0U      1     0.0837     1.0080 
    31   opls_830      1    UNK   H0V      1     0.0837     1.0080 
    32   opls_831      1    UNK   H0W      1     0.0837     1.0080 
[ bonds ]
    2     1     1      0.1529 224262.400
    3     2     1      0.1529 224262.400
    4     3     1      0.1529 224262.400
    5     4     1      0.1522 265265.600
    6     5     1      0.1229 476976.000
    7     5     1      0.1327 179075.200
    8     7     1      0.1410 267776.000
    9     8     1      0.1529 224262.400
   10     9     1      0.1529 224262.400
   11    10     1      0.1529 224262.400
   12    10     1      0.1529 224262.400
   13     1     1      0.1090 284512.000
   14     1     1      0.1090 284512.000
   15     1     1      0.1090 284512.000
   16     2     1      0.1090 284512.000
   17     2     1      0.1090 284512.000
   18     3     1      0.1090 284512.000
   19     3     1      0.1090 284512.000
   20     4     1      0.1090 284512.000
   21     4     1      0.1090 284512.000
   22     8     1      0.1090 284512.000
   23     8     1      0.1090 284512.000
   24     9     1      0.1090 284512.000
   25     9     1      0.1090 284512.000
   26    10     1      0.1090 284512.000
   27    11     1      0.1090 284512.000
   28    11     1      0.1090 284512.000
   29    11     1      0.1090 284512.000
   30    12     1      0.1090 284512.000
   31    12     1      0.1090 284512.000
   32    12     1      0.1090 284512.000

[ angles ]
;  ai    aj    ak funct            c0            c1            c2            c3 
    1     2     3     1    112.700    488.273
    2     3     4     1    112.700    488.273
    3     4     5     1    111.100    527.184
    4     5     6     1    120.400    669.440
    4     5     7     1    111.400    677.808
    5     7     8     1    116.900    694.544
    7     8     9     1    109.500    418.400
    8     9    10     1    112.700    488.273
    9    10    11     1    112.700    488.273
    9    10    12     1    112.700    488.273
    2     1    13     1    110.700    313.800
    2     1    14     1    110.700    313.800
    2     1    15     1    110.700    313.800
    1     2    16     1    110.700    313.800
    1     2    17     1    110.700    313.800
    2     3    18     1    110.700    313.800
    2     3    19     1    110.700    313.800
    3     4    20     1    110.700    313.800
    3     4    21     1    110.700    313.800
    7     8    22     1    109.500    292.880
    7     8    23     1    109.500    292.880
    8     9    24     1    110.700    313.800
    8     9    25     1    110.700    313.800
    9    10    26     1    110.700    313.800
   10    11    27     1    110.700    313.800
   10    11    28     1    110.700    313.800
   10    11    29     1    110.700    313.800
   10    12    30     1    110.700    313.800
   10    12    31     1    110.700    313.800
   10    12    32     1    110.700    313.800
   13     1    14     1    107.800    276.144
   11    10    12     1    112.700    488.273
   31    12    32     1    107.800    276.144
    3     2    17     1    110.700    313.800
    9     8    23     1    110.700    313.800
   28    11    29     1    107.800    276.144
   30    12    31     1    107.800    276.144
    4     3    19     1    110.700    313.800
   30    12    32     1    107.800    276.144
    3     2    16     1    110.700    313.800
   18     3    19     1    107.800    276.144
    4     3    18     1    110.700    313.800
   22     8    23     1    107.800    276.144
   24     9    25     1    107.800    276.144
   16     2    17     1    107.800    276.144
    6     5     7     1    123.400    694.544
   14     1    15     1    107.800    276.144
   10     9    25     1    110.700    313.800
    9     8    22     1    110.700    313.800
   12    10    26     1    110.700    313.800
   11    10    26     1    110.700    313.800
    5     4    20     1    109.500    292.880
   27    11    28     1    107.800    276.144
   10     9    24     1    110.700    313.800
    5     4    21     1    109.500    292.880
   27    11    29     1    107.800    276.144
   13     1    15     1    107.800    276.144
   20     4    21     1    107.800    276.144

[ dihedrals ]
; IMPROPER DIHEDRAL ANGLES 
;  ai    aj    ak    al funct            c0            c1            c2            c3            c4            c5
     7     5     4     6    4        180.000     43.932     2  

[ dihedrals ]
; PROPER DIHEDRAL ANGLES
;  ai    aj    ak    al funct            c0            c1            c2            c3            c4            c5
    5    4    3    2        3      -4.960   6.286   1.310  -2.636  -0.000   0.000
    4    3    2    1        3       2.301  -1.464   0.837  -1.674  -0.000   0.000
   11   10    9    8        3       2.301  -1.464   0.837  -1.674  -0.000   0.000
   12   10    9    8        3       2.301  -1.464   0.837  -1.674  -0.000   0.000
   10    9    8    7        3       2.874   0.582   2.092  -5.548  -0.000   0.000
    9    8    7    5        3      -2.197   5.201   0.527  -3.531  -0.000   0.000
    8    7    5    4        3      31.206  -9.768  -21.439  -0.000  -0.000   0.000
    8    7    5    6        3      21.439   0.000  -21.439  -0.000  -0.000   0.000
   20    4    5    6        3       0.000   0.000   0.000  -0.000  -0.000   0.000
   21    4    5    6        3       0.000   0.000   0.000  -0.000  -0.000   0.000
   21    4    5    7        3       0.276   0.828   0.000  -1.105  -0.000   0.000
   20    4    5    7        3       0.276   0.828   0.000  -1.105  -0.000   0.000
   18    3    4    5        3      -0.209  -0.628   0.000   0.837  -0.000   0.000
   19    3    4    5        3      -0.209  -0.628   0.000   0.837  -0.000   0.000
   22    8    9   10        3       0.628   1.883   0.000  -2.510  -0.000   0.000
   15    1    2    3        3       0.628   1.883   0.000  -2.510  -0.000   0.000
   21    4    3    2        3       0.628   1.883   0.000  -2.510  -0.000   0.000
   25    9   10   11        3       0.628   1.883   0.000  -2.510  -0.000   0.000
   26   10    9    8        3       0.628   1.883   0.000  -2.510  -0.000   0.000
   24    9   10   12        3       0.628   1.883   0.000  -2.510  -0.000   0.000
   32   12   10   11        3       0.628   1.883   0.000  -2.510  -0.000   0.000
   31   12   10   11        3       0.628   1.883   0.000  -2.510  -0.000   0.000
   29   11   10   12        3       0.628   1.883   0.000  -2.510  -0.000   0.000
   30   12   10   11        3       0.628   1.883   0.000  -2.510  -0.000   0.000
   14    1    2    3        3       0.628   1.883   0.000  -2.510  -0.000   0.000
   25    9   10   12        3       0.628   1.883   0.000  -2.510  -0.000   0.000
   32   12   10    9        3       0.628   1.883   0.000  -2.510  -0.000   0.000
   28   11   10    9        3       0.628   1.883   0.000  -2.510  -0.000   0.000
   20    4    3    2        3       0.628   1.883   0.000  -2.510  -0.000   0.000
   29   11   10    9        3       0.628   1.883   0.000  -2.510  -0.000   0.000
   23    8    9   10        3       0.628   1.883   0.000  -2.510  -0.000   0.000
   24    9   10   11        3       0.628   1.883   0.000  -2.510  -0.000   0.000
   31   12   10    9        3       0.628   1.883   0.000  -2.510  -0.000   0.000
   13    1    2    3        3       0.628   1.883   0.000  -2.510  -0.000   0.000
   19    3    2    1        3       0.628   1.883   0.000  -2.510  -0.000   0.000
   27   11   10    9        3       0.628   1.883   0.000  -2.510  -0.000   0.000
   17    2    3    4        3       0.628   1.883   0.000  -2.510  -0.000   0.000
   30   12   10    9        3       0.628   1.883   0.000  -2.510  -0.000   0.000
   18    3    2    1        3       0.628   1.883   0.000  -2.510  -0.000   0.000
   27   11   10   12        3       0.628   1.883   0.000  -2.510  -0.000   0.000
   28   11   10   12        3       0.628   1.883   0.000  -2.510  -0.000   0.000
   16    2    3    4        3       0.628   1.883   0.000  -2.510  -0.000   0.000
   19    3    2   16        3       0.628   1.883   0.000  -2.510  -0.000   0.000
   30   12   10   26        3       0.628   1.883   0.000  -2.510  -0.000   0.000
   20    4    3   19        3       0.628   1.883   0.000  -2.510  -0.000   0.000
   17    2    1   15        3       0.628   1.883   0.000  -2.510  -0.000   0.000
   18    3    2   16        3       0.628   1.883   0.000  -2.510  -0.000   0.000
   27   11   10   26        3       0.628   1.883   0.000  -2.510  -0.000   0.000
   29   11   10   26        3       0.628   1.883   0.000  -2.510  -0.000   0.000
   16    2    1   15        3       0.628   1.883   0.000  -2.510  -0.000   0.000
   17    2    1   14        3       0.628   1.883   0.000  -2.510  -0.000   0.000
   17    2    1   13        3       0.628   1.883   0.000  -2.510  -0.000   0.000
   26   10    9   25        3       0.628   1.883   0.000  -2.510  -0.000   0.000
   16    2    1   14        3       0.628   1.883   0.000  -2.510  -0.000   0.000
   24    9    8   23        3       0.628   1.883   0.000  -2.510  -0.000   0.000
   18    3    2   17        3       0.628   1.883   0.000  -2.510  -0.000   0.000
   28   11   10   26        3       0.628   1.883   0.000  -2.510  -0.000   0.000
   32   12   10   26        3       0.628   1.883   0.000  -2.510  -0.000   0.000
   25    9    8   23        3       0.628   1.883   0.000  -2.510  -0.000   0.000
   31   12   10   26        3       0.628   1.883   0.000  -2.510  -0.000   0.000
   24    9    8   22        3       0.628   1.883   0.000  -2.510  -0.000   0.000
   26   10    9   24        3       0.628   1.883   0.000  -2.510  -0.000   0.000
   21    4    3   19        3       0.628   1.883   0.000  -2.510  -0.000   0.000
   16    2    1   13        3       0.628   1.883   0.000  -2.510  -0.000   0.000
   25    9    8   22        3       0.628   1.883   0.000  -2.510  -0.000   0.000
   19    3    2   17        3       0.628   1.883   0.000  -2.510  -0.000   0.000
   21    4    3   18        3       0.628   1.883   0.000  -2.510  -0.000   0.000
   20    4    3   18        3       0.628   1.883   0.000  -2.510  -0.000   0.000
   25    9    8    7        3       0.979   2.937   0.000  -3.916  -0.000   0.000
   24    9    8    7        3       0.979   2.937   0.000  -3.916  -0.000   0.000
   22    8    7    5        3       0.414   1.243   0.000  -1.657  -0.000   0.000
   23    8    7    5        3       0.414   1.243   0.000  -1.657  -0.000   0.000
    6    5    4    3        3       0.000   0.000   0.000  -0.000  -0.000   0.000
    7    5    4    3        3      -1.157  -3.471   0.000   4.628  -0.000   0.000

[ pairs ]
     1     4    1
     2     5    1
     3     6    1
     3     7    1
     4     8    1
     6     8    1
     5     9    1
     3    13    1
     7    10    1
     3    14    1
     3    15    1
     8    11    1
     1    18    1
     8    12    1
     4    16    1
     1    19    1
     4    17    1
     2    20    1
     5    18    1
     2    21    1
     5    19    1
     6    20    1
     7    20    1
     6    21    1
     5    22    1
     7    21    1
     5    23    1
    13    16    1
    14    16    1
    13    17    1
    15    16    1
    14    17    1
     7    24    1
    15    17    1
    10    22    1
     7    25    1
    10    23    1
    16    18    1
     8    26    1
    17    18    1
    16    19    1
    11    24    1
    17    19    1
    12    24    1
    11    25    1
     9    27    1
    12    25    1
     9    28    1
    18    20    1
     9    29    1
    19    20    1
    18    21    1
    12    27    1
     9    30    1
    19    21    1
    12    28    1
     9    31    1
    12    29    1
    11    30    1
     9    32    1
    11    31    1
    11    32    1
    22    24    1
    23    24    1
    22    25    1
    23    25    1
    24    26    1
    25    26    1
    26    27    1
    26    28    1
    26    29    1
    26    30    1
    26    31    1
    26    32    1

