LIGPARGEN GENERATED GRO FILE
   44
    1UNK    C00    1   0.100   0.100   0.000
    1UNK    C01    2  -0.054   0.100   0.000
    1UNK    C02    3  -0.112   0.100   0.142
    1UNK    O03    4  -0.081   0.225   0.211
    1UNK    C04    5  -0.059   0.225   0.347
    1UNK    O05    6  -0.078   0.323   0.416
    1UNK    O06    7  -0.027   0.102   0.397
    1UNK    C07    8  -0.122   0.043   0.491
    1UNK    C08    9  -0.051  -0.042   0.596
    1UNK    C09   10   0.043   0.041   0.683
    1UNK    O0A   11   0.097  -0.045   0.784
    1UNK    C0B   12   0.190   0.024   0.866
    1UNK    C0C   13  -0.222  -0.043   0.408
    1UNK    C0D   14  -0.138  -0.123   0.309
    1UNK    N0E   15  -0.069  -0.189   0.227
    1UNK    C0F   16  -0.304   0.059   0.319
    1UNK    C0G   17  -0.271   0.066   0.163
    1UNK    N0H   18  -0.338  -0.053   0.099
    1UNK    C0I   19  -0.485  -0.055   0.119
    1UNK    C0J   20  -0.317  -0.069  -0.045
    1UNK    H0K   21   0.137   0.074  -0.100
    1UNK    H0M   22   0.140   0.024   0.069
    1UNK    H0N   23   0.141   0.197   0.028
    1UNK    H0O   24  -0.078   0.007  -0.050
    1UNK    H0P   25  -0.091   0.183  -0.060
    1UNK    H0Q   26  -0.048   0.028   0.189
    1UNK    H0R   27  -0.177   0.123   0.544
    1UNK    H0S   28   0.008  -0.122   0.549
    1UNK    H0T   29  -0.125  -0.091   0.660
    1UNK    H0U   30  -0.012   0.122   0.731
    1UNK    H0V   31   0.124   0.083   0.623
    1UNK    H0W   32   0.228  -0.045   0.941
    1UNK    H0X   33   0.142   0.108   0.916
    1UNK    H0Y   34   0.275   0.060   0.805
    1UNK    H0Z   35  -0.287  -0.105   0.469
    1UNK    H10   36  -0.297   0.161   0.359
    1UNK    H11   37  -0.410   0.039   0.338
    1UNK    H12   38  -0.323   0.155   0.125
    1UNK    H13   39  -0.513  -0.072   0.222
    1UNK    H14   40  -0.531  -0.138   0.065
    1UNK    H15   41  -0.531   0.038   0.083
    1UNK    H16   42  -0.219  -0.114  -0.066
    1UNK    H17   43  -0.331   0.025  -0.100
    1UNK    H18   44  -0.386  -0.143  -0.088
   1.00000   1.00000   1.00000

