
;
; GENERATED BY LigParGen Server
; Jorgensen Lab @ Yale University 
;
[ atomtypes ]
  opls_814  N814    14.0070     0.000    A    3.20000E-01   7.11280E-01
  opls_803  O803    15.9990     0.000    A    2.90000E-01   5.85760E-01
  opls_824  H824     1.0080     0.000    A    2.50000E-01   1.25520E-01
  opls_815  C815    12.0110     0.000    A    3.50000E-01   2.76144E-01
  opls_810  O810    15.9990     0.000    A    2.90000E-01   5.85760E-01
  opls_818  C818    12.0110     0.000    A    3.50000E-01   2.76144E-01
  opls_843  H843     1.0080     0.000    A    2.50000E-01   1.25520E-01
  opls_836  H836     1.0080     0.000    A    2.50000E-01   1.25520E-01
  opls_834  H834     1.0080     0.000    A    2.50000E-01   1.25520E-01
  opls_828  H828     1.0080     0.000    A    2.50000E-01   1.25520E-01
  opls_812  C812    12.0110     0.000    A    3.50000E-01   2.76144E-01
  opls_806  O806    15.9990     0.000    A    2.90000E-01   5.85760E-01
  opls_802  C802    12.0110     0.000    A    3.50000E-01   2.76144E-01
  opls_827  H827     1.0080     0.000    A    2.50000E-01   1.25520E-01
  opls_809  C809    12.0110     0.000    A    3.50000E-01   2.76144E-01
  opls_838  H838     1.0080     0.000    A    2.50000E-01   1.25520E-01
  opls_822  H822     1.0080     0.000    A    2.50000E-01   1.25520E-01
  opls_807  C807    12.0110     0.000    A    3.50000E-01   2.76144E-01
  opls_830  H830     1.0080     0.000    A    2.50000E-01   1.25520E-01
  opls_821  H821     1.0080     0.000    A    2.50000E-01   1.25520E-01
  opls_842  H842     1.0080     0.000    A    2.50000E-01   1.25520E-01
  opls_820  H820     1.0080     0.000    A    2.50000E-01   1.25520E-01
  opls_817  N817    14.0070     0.000    A    3.30000E-01   7.11280E-01
  opls_837  H837     1.0080     0.000    A    2.50000E-01   1.25520E-01
  opls_829  H829     1.0080     0.000    A    2.50000E-01   1.25520E-01
  opls_831  H831     1.0080     0.000    A    2.50000E-01   1.25520E-01
  opls_804  C804    12.0110     0.000    A    3.55000E-01   2.92880E-01
  opls_832  H832     1.0080     0.000    A    2.50000E-01   1.25520E-01
  opls_800  C800    12.0110     0.000    A    3.50000E-01   2.76144E-01
  opls_805  O805    15.9990     0.000    A    2.96000E-01   8.78640E-01
  opls_811  C811    12.0110     0.000    A    3.50000E-01   2.76144E-01
  opls_823  H823     1.0080     0.000    A    2.50000E-01   1.25520E-01
  opls_819  C819    12.0110     0.000    A    3.50000E-01   2.76144E-01
  opls_826  H826     1.0080     0.000    A    2.50000E-01   1.25520E-01
  opls_835  H835     1.0080     0.000    A    2.50000E-01   1.25520E-01
  opls_841  H841     1.0080     0.000    A    2.50000E-01   1.25520E-01
  opls_825  H825     1.0080     0.000    A    2.50000E-01   1.25520E-01
  opls_816  C816    12.0110     0.000    A    3.50000E-01   2.76144E-01
  opls_833  H833     1.0080     0.000    A    2.50000E-01   1.25520E-01
  opls_839  H839     1.0080     0.000    A    2.50000E-01   1.25520E-01
  opls_801  C801    12.0110     0.000    A    3.50000E-01   2.76144E-01
  opls_808  C808    12.0110     0.000    A    3.50000E-01   2.76144E-01
  opls_840  H840     1.0080     0.000    A    2.50000E-01   1.25520E-01
  opls_813  C813    12.0110     0.000    A    3.30000E-01   2.76144E-01
[ moleculetype ]
; Name               nrexcl
UNK                   3
[ atoms ]
;   nr       type  resnr residue  atom   cgnr     charge       mass  
     1   opls_800      1    UNK   C00      1    -0.2461    12.0110 
     2   opls_801      1    UNK   C01      1     -0.174    12.0110 
     3   opls_802      1    UNK   C02      1     0.0796    12.0110 
     4   opls_803      1    UNK   O03      1    -0.3497    15.9990 
     5   opls_804      1    UNK   C04      1     0.6006    12.0110 
     6   opls_805      1    UNK   O05      1    -0.4072    15.9990 
     7   opls_806      1    UNK   O06      1    -0.4057    15.9990 
     8   opls_807      1    UNK   C07      1     0.1008    12.0110 
     9   opls_808      1    UNK   C08      1    -0.1944    12.0110 
    10   opls_809      1    UNK   C09      1     0.0067    12.0110 
    11   opls_810      1    UNK   O0A      1    -0.3849    15.9990 
    12   opls_811      1    UNK   C0B      1    -0.0513    12.0110 
    13   opls_812      1    UNK   C0C      1     0.0063    12.0110 
    14   opls_813      1    UNK   C0D      1     0.1651    12.0110 
    15   opls_814      1    UNK   N0E      1    -0.3905    14.0070 
    16   opls_815      1    UNK   C0F      1       -0.2    12.0110 
    17   opls_816      1    UNK   C0G      1     0.0927    12.0110 
    18   opls_817      1    UNK   N0H      1    -0.5875    14.0070 
    19   opls_818      1    UNK   C0I      1    -0.0485    12.0110 
    20   opls_819      1    UNK   C0J      1    -0.0527    12.0110 
    21   opls_820      1    UNK   H0K      1     0.0916     1.0080 
    22   opls_821      1    UNK   H0M      1     0.0916     1.0080 
    23   opls_822      1    UNK   H0N      1     0.0916     1.0080 
    24   opls_823      1    UNK   H0O      1     0.1123     1.0080 
    25   opls_824      1    UNK   H0P      1     0.1123     1.0080 
    26   opls_825      1    UNK   H0Q      1     0.1376     1.0080 
    27   opls_826      1    UNK   H0R      1     0.1297     1.0080 
    28   opls_827      1    UNK   H0S      1     0.1277     1.0080 
    29   opls_828      1    UNK   H0T      1     0.1277     1.0080 
    30   opls_829      1    UNK   H0U      1     0.0894     1.0080 
    31   opls_830      1    UNK   H0V      1     0.0894     1.0080 
    32   opls_831      1    UNK   H0W      1     0.0841     1.0080 
    33   opls_832      1    UNK   H0X      2     0.0841     1.0080 
    34   opls_833      1    UNK   H0Y      2     0.0841     1.0080 
    35   opls_834      1    UNK   H0Z      2     0.1676     1.0080 
    36   opls_835      1    UNK   H10      2     0.1063     1.0080 
    37   opls_836      1    UNK   H11      2     0.1063     1.0080 
    38   opls_837      1    UNK   H12      2     0.0895     1.0080 
    39   opls_838      1    UNK   H13      2     0.0848     1.0080 
    40   opls_839      1    UNK   H14      2     0.0848     1.0080 
    41   opls_840      1    UNK   H15      2     0.0848     1.0080 
    42   opls_841      1    UNK   H16      2     0.0878     1.0080 
    43   opls_842      1    UNK   H17      2     0.0878     1.0080 
    44   opls_843      1    UNK   H18      2     0.0878     1.0080 
[ bonds ]
    2     1     1      0.1529 224262.400
    3     2     1      0.1529 224262.400
    4     3     1      0.1410 267776.000
    5     4     1      0.1327 179075.200
    6     5     1      0.1229 476976.000
    7     5     1      0.1327 179075.200
    8     7     1      0.1410 267776.000
    9     8     1      0.1529 224262.400
   10     9     1      0.1529 224262.400
   11    10     1      0.1410 267776.000
   12    11     1      0.1410 267776.000
   13     8     1      0.1529 224262.400
   14    13     1      0.1470 326352.000
   15    14     1      0.1157 543920.000
   16    13     1      0.1529 224262.400
   17     3     1      0.1529 224262.400
   18    17     1      0.1448 319657.600
   19    18     1      0.1448 319657.600
   20    18     1      0.1448 319657.600
   21     1     1      0.1090 284512.000
   22     1     1      0.1090 284512.000
   23     1     1      0.1090 284512.000
   24     2     1      0.1090 284512.000
   25     2     1      0.1090 284512.000
   26     3     1      0.1090 284512.000
   27     8     1      0.1090 284512.000
   28     9     1      0.1090 284512.000
   29     9     1      0.1090 284512.000
   30    10     1      0.1090 284512.000
   31    10     1      0.1090 284512.000
   32    12     1      0.1090 284512.000
   33    12     1      0.1090 284512.000
   34    12     1      0.1090 284512.000
   35    13     1      0.1090 284512.000
   36    16     1      0.1090 284512.000
   37    16     1      0.1090 284512.000
   38    17     1      0.1090 284512.000
   39    19     1      0.1090 284512.000
   40    19     1      0.1090 284512.000
   41    19     1      0.1090 284512.000
   42    20     1      0.1090 284512.000
   43    20     1      0.1090 284512.000
   44    20     1      0.1090 284512.000
   17    16     1      0.1529 224262.400

[ angles ]
;  ai    aj    ak funct            c0            c1            c2            c3 
    1     2     3     1    112.700    488.273
    2     3     4     1    109.500    418.400
    3     4     5     1    116.900    694.544
    4     5     6     1    123.400    694.544
    4     5     7     1    118.180    584.923
    5     7     8     1    116.900    694.544
    7     8     9     1    109.500    418.400
    8     9    10     1    112.700    488.273
    9    10    11     1    109.500    418.400
   10    11    12     1    109.500    502.080
    7     8    13     1    109.500    418.400
    8    13    14     1    112.700    488.273
   13    14    15     1    180.000   1255.200
    8    13    16     1    112.700    488.273
    2     3    17     1    112.700    488.273
    3    17    18     1    109.470    470.282
   17    18    19     1    107.200    433.462
   17    18    20     1    107.200    433.462
    2     1    21     1    110.700    313.800
    2     1    22     1    110.700    313.800
    2     1    23     1    110.700    313.800
    1     2    24     1    110.700    313.800
    1     2    25     1    110.700    313.800
    2     3    26     1    110.700    313.800
    7     8    27     1    109.500    292.880
    8     9    28     1    110.700    313.800
    8     9    29     1    110.700    313.800
    9    10    30     1    110.700    313.800
    9    10    31     1    110.700    313.800
   11    12    32     1    109.500    292.880
   11    12    33     1    109.500    292.880
   11    12    34     1    109.500    292.880
    8    13    35     1    110.700    313.800
   13    16    36     1    110.700    313.800
   13    16    37     1    110.700    313.800
    3    17    38     1    110.700    313.800
   18    19    39     1    109.500    292.880
   18    19    40     1    109.500    292.880
   18    19    41     1    109.500    292.880
   18    20    42     1    109.500    292.880
   18    20    43     1    109.500    292.880
   18    20    44     1    109.500    292.880
    3    17    16     1    112.700    488.273
   21     1    23     1    107.800    276.144
   43    20    44     1    107.800    276.144
   17    16    36     1    110.700    313.800
   40    19    41     1    107.800    276.144
   39    19    41     1    107.800    276.144
   10     9    28     1    110.700    313.800
    3     2    25     1    110.700    313.800
   10     9    29     1    110.700    313.800
   16    17    18     1    109.470    470.282
   14    13    35     1    108.500    292.880
   16    17    38     1    110.700    313.800
   36    16    37     1    107.800    276.144
   22     1    23     1    107.800    276.144
   33    12    34     1    107.800    276.144
   32    12    33     1    107.800    276.144
    9     8    13     1    112.700    488.273
   24     2    25     1    107.800    276.144
   17    16    37     1    110.700    313.800
    9     8    27     1    110.700    313.800
   16    13    35     1    110.700    313.800
   18    17    38     1    109.500    292.880
   30    10    31     1    107.800    276.144
    6     5     7     1    123.400    694.544
   21     1    22     1    107.800    276.144
   13    16    17     1    112.700    488.273
   42    20    44     1    107.800    276.144
   11    10    31     1    109.500    292.880
   14    13    16     1    112.700    488.273
   17     3    26     1    110.700    313.800
   19    18    20     1    107.200    433.462
   13     8    27     1    110.700    313.800
    3     2    24     1    110.700    313.800
   42    20    43     1    107.800    276.144
    4     3    17     1    109.500    418.400
   39    19    40     1    107.800    276.144
    4     3    26     1    109.500    292.880
   32    12    34     1    107.800    276.144
   11    10    30     1    109.500    292.880
   28     9    29     1    107.800    276.144

[ dihedrals ]
; IMPROPER DIHEDRAL ANGLES 
;  ai    aj    ak    al funct            c0            c1            c2            c3            c4            c5
     7     5     4     6    4        180.000     43.932     2  

[ dihedrals ]
; PROPER DIHEDRAL ANGLES
;  ai    aj    ak    al funct            c0            c1            c2            c3            c4            c5
    5    4    3    2        3      -2.197   5.201   0.527  -3.531  -0.000   0.000
   16   13    8    9        3       2.301  -1.464   0.837  -1.674  -0.000   0.000
   13   16   17    3        3       2.301  -1.464   0.837  -1.674  -0.000   0.000
   17   16   13    8        3       2.301  -1.464   0.837  -1.674  -0.000   0.000
   13    8    9   10        3       2.301  -1.464   0.837  -1.674  -0.000   0.000
   16   17    3    2        3       2.301  -1.464   0.837  -1.674  -0.000   0.000
   17    3    2    1        3       2.301  -1.464   0.837  -1.674  -0.000   0.000
   17   16   13   14        3      -2.720   0.000   2.720  -0.000  -0.000   0.000
   16   13    8    7        3       2.874   0.582   2.092  -5.548  -0.000   0.000
   16   17    3    4        3       2.874   0.582   2.092  -5.548  -0.000   0.000
   10    9    8    7        3       2.874   0.582   2.092  -5.548  -0.000   0.000
   16   13   14   15        3       0.000   0.000   0.000  -0.000  -0.000   0.000
    9    8    7    5        3      -2.197   5.201   0.527  -3.531  -0.000   0.000
   13    8    7    5        3      -2.197   5.201   0.527  -3.531  -0.000   0.000
   17    3    4    5        3      -2.197   5.201   0.527  -3.531  -0.000   0.000
   20   18   17    3        3       1.789   3.492   0.536  -5.816  -0.000   0.000
   19   18   17   16        3       1.789   3.492   0.536  -5.816  -0.000   0.000
   19   18   17    3        3       1.789   3.492   0.536  -5.816  -0.000   0.000
   20   18   17   16        3       1.789   3.492   0.536  -5.816  -0.000   0.000
    8    7    5    6        3      21.439   0.000  -21.439  -0.000  -0.000   0.000
    8    7    5    4        3      31.206  -9.768  -21.439  -0.000  -0.000   0.000
   12   11   10    9        3       1.715   2.845   1.046  -5.607  -0.000   0.000
   14   13    8    9        3      -2.720   0.000   2.720  -0.000  -0.000   0.000
   14   13    8    7        3       2.874   0.582   2.092  -5.548  -0.000   0.000
   37   16   13    8        3       0.628   1.883   0.000  -2.510  -0.000   0.000
   24    2    3   17        3       0.628   1.883   0.000  -2.510  -0.000   0.000
   25    2    3   17        3       0.628   1.883   0.000  -2.510  -0.000   0.000
   23    1    2    3        3       0.628   1.883   0.000  -2.510  -0.000   0.000
   36   16   13    8        3       0.628   1.883   0.000  -2.510  -0.000   0.000
   38   17    3    2        3       0.628   1.883   0.000  -2.510  -0.000   0.000
   36   16   17    3        3       0.628   1.883   0.000  -2.510  -0.000   0.000
   26    3    2    1        3       0.628   1.883   0.000  -2.510  -0.000   0.000
   38   17   16   13        3       0.628   1.883   0.000  -2.510  -0.000   0.000
   27    8    9   10        3       0.628   1.883   0.000  -2.510  -0.000   0.000
   29    9    8   13        3       0.628   1.883   0.000  -2.510  -0.000   0.000
   26    3   17   16        3       0.628   1.883   0.000  -2.510  -0.000   0.000
   28    9    8   13        3       0.628   1.883   0.000  -2.510  -0.000   0.000
   30   10    9    8        3       0.628   1.883   0.000  -2.510  -0.000   0.000
   35   13    8    9        3       0.628   1.883   0.000  -2.510  -0.000   0.000
   37   16   17    3        3       0.628   1.883   0.000  -2.510  -0.000   0.000
   27    8   13   16        3       0.628   1.883   0.000  -2.510  -0.000   0.000
   35   13   16   17        3       0.628   1.883   0.000  -2.510  -0.000   0.000
   22    1    2    3        3       0.628   1.883   0.000  -2.510  -0.000   0.000
   21    1    2    3        3       0.628   1.883   0.000  -2.510  -0.000   0.000
   31   10    9    8        3       0.628   1.883   0.000  -2.510  -0.000   0.000
   27    8   13   14        3       0.766   2.297   0.000  -3.063  -0.000   0.000
   37   16   13   14        3       0.766   2.297   0.000  -3.063  -0.000   0.000
   36   16   13   14        3       0.766   2.297   0.000  -3.063  -0.000   0.000
   24    2    1   22        3       0.628   1.883   0.000  -2.510  -0.000   0.000
   31   10    9   29        3       0.628   1.883   0.000  -2.510  -0.000   0.000
   25    2    1   21        3       0.628   1.883   0.000  -2.510  -0.000   0.000
   38   17   16   36        3       0.628   1.883   0.000  -2.510  -0.000   0.000
   24    2    1   21        3       0.628   1.883   0.000  -2.510  -0.000   0.000
   24    2    1   23        3       0.628   1.883   0.000  -2.510  -0.000   0.000
   31   10    9   28        3       0.628   1.883   0.000  -2.510  -0.000   0.000
   35   13    8   27        3       0.628   1.883   0.000  -2.510  -0.000   0.000
   36   16   13   35        3       0.628   1.883   0.000  -2.510  -0.000   0.000
   26    3    2   24        3       0.628   1.883   0.000  -2.510  -0.000   0.000
   29    9    8   27        3       0.628   1.883   0.000  -2.510  -0.000   0.000
   38   17   16   37        3       0.628   1.883   0.000  -2.510  -0.000   0.000
   38   17    3   26        3       0.628   1.883   0.000  -2.510  -0.000   0.000
   30   10    9   29        3       0.628   1.883   0.000  -2.510  -0.000   0.000
   25    2    1   22        3       0.628   1.883   0.000  -2.510  -0.000   0.000
   28    9    8   27        3       0.628   1.883   0.000  -2.510  -0.000   0.000
   26    3    2   25        3       0.628   1.883   0.000  -2.510  -0.000   0.000
   25    2    1   23        3       0.628   1.883   0.000  -2.510  -0.000   0.000
   37   16   13   35        3       0.628   1.883   0.000  -2.510  -0.000   0.000
   30   10    9   28        3       0.628   1.883   0.000  -2.510  -0.000   0.000
   37   16   17   18        3      -4.096   5.088   2.966  -3.958  -0.000   0.000
   36   16   17   18        3      -4.096   5.088   2.966  -3.958  -0.000   0.000
   26    3   17   18        3      -4.096   5.088   2.966  -3.958  -0.000   0.000
   28    9    8    7        3       0.979   2.937   0.000  -3.916  -0.000   0.000
   24    2    3    4        3       0.979   2.937   0.000  -3.916  -0.000   0.000
   38   17    3    4        3       0.979   2.937   0.000  -3.916  -0.000   0.000
   29    9   10   11        3       0.979   2.937   0.000  -3.916  -0.000   0.000
   29    9    8    7        3       0.979   2.937   0.000  -3.916  -0.000   0.000
   28    9   10   11        3       0.979   2.937   0.000  -3.916  -0.000   0.000
   25    2    3    4        3       0.979   2.937   0.000  -3.916  -0.000   0.000
   35   13    8    7        3       0.979   2.937   0.000  -3.916  -0.000   0.000
   35   13   14   15        3       0.000   0.000   0.000  -0.000  -0.000   0.000
   39   19   18   17        3       1.172   3.515   0.000  -4.686  -0.000   0.000
   40   19   18   20        3       1.172   3.515   0.000  -4.686  -0.000   0.000
   41   19   18   20        3       1.172   3.515   0.000  -4.686  -0.000   0.000
   43   20   18   19        3       1.172   3.515   0.000  -4.686  -0.000   0.000
   38   17   18   20        3       1.172   3.515   0.000  -4.686  -0.000   0.000
   38   17   18   19        3       1.172   3.515   0.000  -4.686  -0.000   0.000
   43   20   18   17        3       1.172   3.515   0.000  -4.686  -0.000   0.000
   44   20   18   19        3       1.172   3.515   0.000  -4.686  -0.000   0.000
   44   20   18   17        3       1.172   3.515   0.000  -4.686  -0.000   0.000
   40   19   18   17        3       1.172   3.515   0.000  -4.686  -0.000   0.000
   39   19   18   20        3       1.172   3.515   0.000  -4.686  -0.000   0.000
   41   19   18   17        3       1.172   3.515   0.000  -4.686  -0.000   0.000
   42   20   18   17        3       1.172   3.515   0.000  -4.686  -0.000   0.000
   42   20   18   19        3       1.172   3.515   0.000  -4.686  -0.000   0.000
   27    8    7    5        3       0.414   1.243   0.000  -1.657  -0.000   0.000
   26    3    4    5        3       0.414   1.243   0.000  -1.657  -0.000   0.000
   31   10   11   12        3       1.590   4.770   0.000  -6.360  -0.000   0.000
   30   10   11   12        3       1.590   4.770   0.000  -6.360  -0.000   0.000
   34   12   11   10        3       1.590   4.770   0.000  -6.360  -0.000   0.000
   33   12   11   10        3       1.590   4.770   0.000  -6.360  -0.000   0.000
   32   12   11   10        3       1.590   4.770   0.000  -6.360  -0.000   0.000
   18   17   16   13        3       3.335  -1.552   2.820  -4.602  -0.000   0.000
   18   17    3    2        3       3.335  -1.552   2.820  -4.602  -0.000   0.000
   18   17    3    4        3      16.736  -16.736   0.000  -0.000  -0.000   0.000
   15   14   13    8        3       0.000   0.000   0.000  -0.000  -0.000   0.000
    6    5    4    3        3      21.439   0.000  -21.439  -0.000  -0.000   0.000
    7    5    4    3        3      31.206  -9.768  -21.439  -0.000  -0.000   0.000
   11   10    9    8        3       2.874   0.582   2.092  -5.548  -0.000   0.000
    4    3    2    1        3       2.874   0.582   2.092  -5.548  -0.000   0.000

[ pairs ]
     1     4    1
     2     5    1
     3     6    1
     3     7    1
     4     8    1
     6     8    1
     5     9    1
     3    13    1
     7    10    1
     5    13    1
     2    16    1
     1    17    1
     8    11    1
     4    16    1
     2    18    1
     9    12    1
     7    14    1
     5    17    1
     4    18    1
     3    19    1
    10    13    1
     9    14    1
     8    15    1
     7    16    1
     3    20    1
     3    21    1
     9    16    1
     8    17    1
     3    22    1
     3    23    1
     1    26    1
     4    24    1
     4    25    1
    15    16    1
    14    17    1
    13    18    1
     5    26    1
     5    27    1
    16    19    1
     7    28    1
    16    20    1
     7    29    1
    10    27    1
     8    30    1
    11    28    1
     8    31    1
     3    36    1
    11    29    1
     3    37    1
     2    38    1
    17    24    1
    14    27    1
    13    28    1
    17    25    1
    16    26    1
    13    29    1
    12    30    1
    10    32    1
     7    35    1
     4    38    1
    16    27    1
    12    31    1
    10    33    1
    18    26    1
    10    34    1
     9    35    1
     8    36    1
    21    24    1
     8    37    1
    22    24    1
    21    25    1
    23    24    1
    22    25    1
    23    25    1
    24    26    1
    15    35    1
    14    36    1
    25    26    1
    14    37    1
    13    38    1
    17    35    1
    18    36    1
    27    28    1
    18    37    1
    27    29    1
    17    39    1
    19    38    1
    17    40    1
    28    30    1
    20    38    1
    17    41    1
    29    30    1
    28    31    1
    20    39    1
    17    42    1
    29    31    1
    20    40    1
    17    43    1
    20    41    1
    19    42    1
    17    44    1
    27    35    1
    19    43    1
    19    44    1
    26    38    1
    35    36    1
    35    37    1
    36    38    1
    37    38    1

