LIGPARGEN GENERATED GRO FILE
   29
    1UNK    C00    1   0.100   0.100   0.000
    1UNK    O01    2  -0.043   0.100   0.000
    1UNK    C02    3  -0.098   0.100   0.124
    1UNK    O03    4  -0.034   0.094   0.228
    1UNK    C04    5  -0.253   0.102   0.119
    1UNK    C05    6  -0.295  -0.045   0.114
    1UNK    C06    7  -0.305   0.166   0.250
    1UNK    C07    8  -0.270   0.315   0.261
    1UNK    C08    9  -0.317   0.395   0.141
    1UNK    C09   10  -0.274   0.329   0.012
    1UNK    O0A   11  -0.224   0.395  -0.079
    1UNK    C0B   12  -0.305   0.181  -0.004
    1UNK    C0C   13  -0.456   0.167  -0.032
    1UNK    H0D   14   0.134   0.108  -0.104
    1UNK    H0E   15   0.138   0.006   0.042
    1UNK    H0F   16   0.139   0.186   0.056
    1UNK    H0G   17  -0.249  -0.103   0.195
    1UNK    H0H   18  -0.264  -0.092   0.020
    1UNK    H0I   19  -0.404  -0.057   0.124
    1UNK    H0J   20  -0.265   0.114   0.338
    1UNK    H0K   21  -0.414   0.155   0.256
    1UNK    H0M   22  -0.162   0.326   0.272
    1UNK    H0N   23  -0.315   0.356   0.353
    1UNK    H0O   24  -0.275   0.496   0.146
    1UNK    H0P   25  -0.426   0.404   0.141
    1UNK    H0Q   26  -0.254   0.147  -0.095
    1UNK    H0R   27  -0.516   0.195   0.055
    1UNK    H0S   28  -0.481   0.064  -0.059
    1UNK    H0T   29  -0.486   0.232  -0.114
   1.00000   1.00000   1.00000

