LIGPARGEN GENERATED GRO FILE
   39
    1UNK    C00    1   0.100   0.100   0.000
    1UNK    C01    2  -0.054   0.100   0.000
    1UNK    C02    3  -0.110   0.100   0.144
    1UNK    C03    4  -0.066  -0.020   0.227
    1UNK    Cl0    5  -0.143  -0.014   0.388
    1UNK    C05    6  -0.102   0.222  -0.083
    1UNK    C06    7  -0.255   0.231  -0.097
    1UNK    C07    8  -0.302   0.357  -0.174
    1UNK    C08    9  -0.256   0.354  -0.321
    1UNK    C09   10  -0.298   0.475  -0.405
    1UNK    C0A   11  -0.446   0.474  -0.441
    1UNK    C0B   12  -0.538   0.537  -0.337
    1UNK    C0C   13  -0.507   0.508  -0.191
    1UNK    C0D   14  -0.455   0.370  -0.160
    1UNK    H0E   15   0.140   0.008   0.044
    1UNK    H0F   16   0.139   0.185   0.056
    1UNK    H0G   17   0.139   0.106  -0.102
    1UNK    H0H   18  -0.087   0.009  -0.051
    1UNK    H0I   19  -0.220   0.099   0.139
    1UNK    H0J   20  -0.081   0.193   0.194
    1UNK    H0K   21   0.042  -0.021   0.243
    1UNK    H0M   22  -0.096  -0.114   0.179
    1UNK    H0N   23  -0.057   0.214  -0.182
    1UNK    H0O   24  -0.064   0.314  -0.037
    1UNK    H0P   25  -0.299   0.236   0.003
    1UNK    H0Q   26  -0.294   0.141  -0.145
    1UNK    H0R   27  -0.256   0.444  -0.126
    1UNK    H0S   28  -0.290   0.262  -0.369
    1UNK    H0T   29  -0.146   0.351  -0.324
    1UNK    H0U   30  -0.241   0.470  -0.499
    1UNK    H0V   31  -0.269   0.569  -0.356
    1UNK    H0W   32  -0.478   0.371  -0.463
    1UNK    H0X   33  -0.459   0.530  -0.535
    1UNK    H0Y   34  -0.640   0.504  -0.359
    1UNK    H0Z   35  -0.538   0.646  -0.351
    1UNK    H10   36  -0.600   0.524  -0.134
    1UNK    H11   37  -0.436   0.583  -0.153
    1UNK    H12   38  -0.507   0.295  -0.221
    1UNK    H13   39  -0.483   0.349  -0.056
   1.00000   1.00000   1.00000

