
;
; GENERATED BY LigParGen Server
; Jorgensen Lab @ Yale University 
;
[ atomtypes ]
  opls_818  H818     1.0080     0.000    A    2.50000E-01   1.25520E-01
  opls_824  H824     1.0080     0.000    A    2.50000E-01   1.25520E-01
  opls_805  C805    12.0110     0.000    A    3.50000E-01   2.76144E-01
  opls_833  H833     1.0080     0.000    A    2.50000E-01   1.25520E-01
  opls_836  H836     1.0080     0.000    A    2.50000E-01   1.25520E-01
  opls_834  H834     1.0080     0.000    A    2.50000E-01   1.25520E-01
  opls_828  H828     1.0080     0.000    A    2.50000E-01   1.25520E-01
  opls_812  C812    12.0110     0.000    A    3.50000E-01   2.76144E-01
  opls_802  C802    12.0110     0.000    A    3.50000E-01   2.76144E-01
  opls_815  H815     1.0080     0.000    A    2.50000E-01   1.25520E-01
  opls_809  C809    12.0110     0.000    A    3.50000E-01   2.76144E-01
  opls_806  C806    12.0110     0.000    A    3.50000E-01   2.76144E-01
  opls_822  H822     1.0080     0.000    A    2.50000E-01   1.25520E-01
  opls_803  C803    12.0110     0.000    A    3.50000E-01   2.76144E-01
  opls_838  H838     1.0080     0.000    A    2.50000E-01   1.25520E-01
  opls_825  H825     1.0080     0.000    A    2.50000E-01   1.25520E-01
  opls_814  H814     1.0080     0.000    A    2.50000E-01   1.25520E-01
  opls_821  H821     1.0080     0.000    A    2.50000E-01   1.25520E-01
  opls_820  H820     1.0080     0.000    A    2.50000E-01   1.25520E-01
  opls_837  H837     1.0080     0.000    A    2.50000E-01   1.25520E-01
  opls_829  H829     1.0080     0.000    A    2.50000E-01   1.25520E-01
  opls_831  H831     1.0080     0.000    A    2.50000E-01   1.25520E-01
  opls_832  H832     1.0080     0.000    A    2.50000E-01   1.25520E-01
  opls_816  H816     1.0080     0.000    A    2.50000E-01   1.25520E-01
  opls_800  C800    12.0110     0.000    A    3.50000E-01   2.76144E-01
  opls_811  C811    12.0110     0.000    A    3.50000E-01   2.76144E-01
  opls_823  H823     1.0080     0.000    A    2.50000E-01   1.25520E-01
  opls_813  C813    12.0110     0.000    A    3.50000E-01   2.76144E-01
  opls_804 Cl804    35.4500     0.000    A    3.40000E-01   1.25520E+00
  opls_826  H826     1.0080     0.000    A    2.50000E-01   1.25520E-01
  opls_835  H835     1.0080     0.000    A    2.50000E-01   1.25520E-01
  opls_819  H819     1.0080     0.000    A    2.50000E-01   1.25520E-01
  opls_810  C810    12.0110     0.000    A    3.50000E-01   2.76144E-01
  opls_827  H827     1.0080     0.000    A    2.50000E-01   1.25520E-01
  opls_801  C801    12.0110     0.000    A    3.50000E-01   2.76144E-01
  opls_808  C808    12.0110     0.000    A    3.50000E-01   2.76144E-01
  opls_817  H817     1.0080     0.000    A    2.50000E-01   1.25520E-01
  opls_830  H830     1.0080     0.000    A    2.50000E-01   1.25520E-01
  opls_807  C807    12.0110     0.000    A    3.50000E-01   2.76144E-01
[ moleculetype ]
; Name               nrexcl
UNK                   3
[ atoms ]
;   nr       type  resnr residue  atom   cgnr     charge       mass  
     1   opls_800      1    UNK   C00      1    -0.2406    12.0110 
     2   opls_801      1    UNK   C01      1     -0.113    12.0110 
     3   opls_802      1    UNK   C02      1    -0.1877    12.0110 
     4   opls_803      1    UNK   C03      1     0.0195    12.0110 
     5   opls_804      1    UNK   Cl0      1     -0.293    35.4500 
     6   opls_805      1    UNK   C05      1    -0.1731    12.0110 
     7   opls_806      1    UNK   C06      1     -0.179    12.0110 
     8   opls_807      1    UNK   C07      1    -0.1083    12.0110 
     9   opls_808      1    UNK   C08      1    -0.1681    12.0110 
    10   opls_809      1    UNK   C09      1    -0.1686    12.0110 
    11   opls_810      1    UNK   C0A      1    -0.1687    12.0110 
    12   opls_811      1    UNK   C0B      1    -0.1716    12.0110 
    13   opls_812      1    UNK   C0C      1    -0.1693    12.0110 
    14   opls_813      1    UNK   C0D      1    -0.1654    12.0110 
    15   opls_814      1    UNK   H0E      1     0.0838     1.0080 
    16   opls_815      1    UNK   H0F      1     0.0838     1.0080 
    17   opls_816      1    UNK   H0G      1     0.0838     1.0080 
    18   opls_817      1    UNK   H0H      1     0.0979     1.0080 
    19   opls_818      1    UNK   H0I      1     0.1076     1.0080 
    20   opls_819      1    UNK   H0J      1     0.1076     1.0080 
    21   opls_820      1    UNK   H0K      1     0.1167     1.0080 
    22   opls_821      1    UNK   H0M      1     0.1167     1.0080 
    23   opls_822      1    UNK   H0N      1     0.0919     1.0080 
    24   opls_823      1    UNK   H0O      1     0.0919     1.0080 
    25   opls_824      1    UNK   H0P      1     0.0903     1.0080 
    26   opls_825      1    UNK   H0Q      1     0.0903     1.0080 
    27   opls_826      1    UNK   H0R      1     0.0965     1.0080 
    28   opls_827      1    UNK   H0S      1     0.0857     1.0080 
    29   opls_828      1    UNK   H0T      1     0.0857     1.0080 
    30   opls_829      1    UNK   H0U      1     0.0877     1.0080 
    31   opls_830      1    UNK   H0V      1     0.0877     1.0080 
    32   opls_831      1    UNK   H0W      1     0.0849     1.0080 
    33   opls_832      1    UNK   H0X      2     0.0849     1.0080 
    34   opls_833      1    UNK   H0Y      2      0.082     1.0080 
    35   opls_834      1    UNK   H0Z      2      0.082     1.0080 
    36   opls_835      1    UNK   H10      2     0.0849     1.0080 
    37   opls_836      1    UNK   H11      2     0.0849     1.0080 
    38   opls_837      1    UNK   H12      2     0.0888     1.0080 
    39   opls_838      1    UNK   H13      2     0.0888     1.0080 
[ bonds ]
    2     1     1      0.1529 224262.400
    3     2     1      0.1529 224262.400
    4     3     1      0.1529 224262.400
    5     4     1      0.1781 205016.000
    6     2     1      0.1529 224262.400
    7     6     1      0.1529 224262.400
    8     7     1      0.1529 224262.400
    9     8     1      0.1529 224262.400
   10     9     1      0.1529 224262.400
   11    10     1      0.1529 224262.400
   12    11     1      0.1529 224262.400
   13    12     1      0.1529 224262.400
   14     8     1      0.1529 224262.400
   15     1     1      0.1090 284512.000
   16     1     1      0.1090 284512.000
   17     1     1      0.1090 284512.000
   18     2     1      0.1090 284512.000
   19     3     1      0.1090 284512.000
   20     3     1      0.1090 284512.000
   21     4     1      0.1090 284512.000
   22     4     1      0.1090 284512.000
   23     6     1      0.1090 284512.000
   24     6     1      0.1090 284512.000
   25     7     1      0.1090 284512.000
   26     7     1      0.1090 284512.000
   27     8     1      0.1090 284512.000
   28     9     1      0.1090 284512.000
   29     9     1      0.1090 284512.000
   30    10     1      0.1090 284512.000
   31    10     1      0.1090 284512.000
   32    11     1      0.1090 284512.000
   33    11     1      0.1090 284512.000
   34    12     1      0.1090 284512.000
   35    12     1      0.1090 284512.000
   36    13     1      0.1090 284512.000
   37    13     1      0.1090 284512.000
   38    14     1      0.1090 284512.000
   39    14     1      0.1090 284512.000
   14    13     1      0.1529 224262.400

[ angles ]
;  ai    aj    ak funct            c0            c1            c2            c3 
    1     2     3     1    112.700    488.273
    2     3     4     1    112.700    488.273
    3     4     5     1    109.800    577.392
    1     2     6     1    112.700    488.273
    2     6     7     1    112.700    488.273
    6     7     8     1    112.700    488.273
    7     8     9     1    112.700    488.273
    8     9    10     1    112.700    488.273
    9    10    11     1    112.700    488.273
   10    11    12     1    112.700    488.273
   11    12    13     1    112.700    488.273
    7     8    14     1    112.700    488.273
    2     1    15     1    110.700    313.800
    2     1    16     1    110.700    313.800
    2     1    17     1    110.700    313.800
    1     2    18     1    110.700    313.800
    2     3    19     1    110.700    313.800
    2     3    20     1    110.700    313.800
    3     4    21     1    110.700    313.800
    3     4    22     1    110.700    313.800
    2     6    23     1    110.700    313.800
    2     6    24     1    110.700    313.800
    6     7    25     1    110.700    313.800
    6     7    26     1    110.700    313.800
    7     8    27     1    110.700    313.800
    8     9    28     1    110.700    313.800
    8     9    29     1    110.700    313.800
    9    10    30     1    110.700    313.800
    9    10    31     1    110.700    313.800
   10    11    32     1    110.700    313.800
   10    11    33     1    110.700    313.800
   11    12    34     1    110.700    313.800
   11    12    35     1    110.700    313.800
   12    13    36     1    110.700    313.800
   12    13    37     1    110.700    313.800
    8    14    38     1    110.700    313.800
    8    14    39     1    110.700    313.800
   25     7    26     1    107.800    276.144
   34    12    35     1    107.800    276.144
    8    14    13     1    112.700    488.273
    7     6    24     1    110.700    313.800
   12    11    32     1    110.700    313.800
   13    14    38     1    110.700    313.800
    3     2    18     1    110.700    313.800
   23     6    24     1    107.800    276.144
   14    13    37     1    110.700    313.800
   10     9    29     1    110.700    313.800
   12    11    33     1    110.700    313.800
    4     3    19     1    110.700    313.800
    8     7    26     1    110.700    313.800
   21     4    22     1    107.800    276.144
   38    14    39     1    107.800    276.144
   32    11    33     1    107.800    276.144
    9     8    27     1    110.700    313.800
    5     4    22     1    107.600    426.768
   30    10    31     1    107.800    276.144
    8     7    25     1    110.700    313.800
   15     1    16     1    107.800    276.144
    6     2    18     1    110.700    313.800
    3     2     6     1    112.700    488.273
   13    12    34     1    110.700    313.800
   11    10    31     1    110.700    313.800
    9     8    14     1    112.700    488.273
   19     3    20     1    107.800    276.144
   15     1    17     1    107.800    276.144
   16     1    17     1    107.800    276.144
   13    12    35     1    110.700    313.800
   14    13    36     1    110.700    313.800
   10     9    28     1    110.700    313.800
    5     4    21     1    107.600    426.768
   14     8    27     1    110.700    313.800
    4     3    20     1    110.700    313.800
    7     6    23     1    110.700    313.800
   13    14    39     1    110.700    313.800
   12    13    14     1    112.700    488.273
   36    13    37     1    107.800    276.144
   11    10    30     1    110.700    313.800
   28     9    29     1    107.800    276.144

[ dihedrals ]
; IMPROPER DIHEDRAL ANGLES 
;  ai    aj    ak    al funct            c0            c1            c2            c3            c4            c5

[ dihedrals ]
; PROPER DIHEDRAL ANGLES
;  ai    aj    ak    al funct            c0            c1            c2            c3            c4            c5
    4    3    2    1        3       2.301  -1.464   0.837  -1.674  -0.000   0.000
   14   13   12   11        3       2.301  -1.464   0.837  -1.674  -0.000   0.000
   13   14    8    7        3       2.301  -1.464   0.837  -1.674  -0.000   0.000
   12   13   14    8        3       2.301  -1.464   0.837  -1.674  -0.000   0.000
    7    6    2    3        3       2.301  -1.464   0.837  -1.674  -0.000   0.000
   14    8    7    6        3       2.301  -1.464   0.837  -1.674  -0.000   0.000
   13   14    8    9        3       2.301  -1.464   0.837  -1.674  -0.000   0.000
   13   12   11   10        3       2.301  -1.464   0.837  -1.674  -0.000   0.000
    6    2    3    4        3       2.301  -1.464   0.837  -1.674  -0.000   0.000
   11   10    9    8        3       2.301  -1.464   0.837  -1.674  -0.000   0.000
   10    9    8    7        3       2.301  -1.464   0.837  -1.674  -0.000   0.000
    9    8    7    6        3       2.301  -1.464   0.837  -1.674  -0.000   0.000
    8    7    6    2        3       2.301  -1.464   0.837  -1.674  -0.000   0.000
    7    6    2    1        3       2.301  -1.464   0.837  -1.674  -0.000   0.000
   12   11   10    9        3       2.301  -1.464   0.837  -1.674  -0.000   0.000
   14    8    9   10        3       2.301  -1.464   0.837  -1.674  -0.000   0.000
    5    4    3    2        3       0.837   2.510   0.000  -3.347  -0.000   0.000
   39   14   13   12        3       0.628   1.883   0.000  -2.510  -0.000   0.000
   28    9    8    7        3       0.628   1.883   0.000  -2.510  -0.000   0.000
   37   13   14    8        3       0.628   1.883   0.000  -2.510  -0.000   0.000
   21    4    3    2        3       0.628   1.883   0.000  -2.510  -0.000   0.000
   39   14    8    7        3       0.628   1.883   0.000  -2.510  -0.000   0.000
   37   13   12   11        3       0.628   1.883   0.000  -2.510  -0.000   0.000
   15    1    2    6        3       0.628   1.883   0.000  -2.510  -0.000   0.000
   22    4    3    2        3       0.628   1.883   0.000  -2.510  -0.000   0.000
   29    9   10   11        3       0.628   1.883   0.000  -2.510  -0.000   0.000
   30   10   11   12        3       0.628   1.883   0.000  -2.510  -0.000   0.000
   34   12   13   14        3       0.628   1.883   0.000  -2.510  -0.000   0.000
   27    8    9   10        3       0.628   1.883   0.000  -2.510  -0.000   0.000
   35   12   13   14        3       0.628   1.883   0.000  -2.510  -0.000   0.000
   27    8    7    6        3       0.628   1.883   0.000  -2.510  -0.000   0.000
   28    9    8   14        3       0.628   1.883   0.000  -2.510  -0.000   0.000
   25    7    8   14        3       0.628   1.883   0.000  -2.510  -0.000   0.000
   34   12   11   10        3       0.628   1.883   0.000  -2.510  -0.000   0.000
   33   11   10    9        3       0.628   1.883   0.000  -2.510  -0.000   0.000
   23    6    2    3        3       0.628   1.883   0.000  -2.510  -0.000   0.000
   24    6    7    8        3       0.628   1.883   0.000  -2.510  -0.000   0.000
   26    7    6    2        3       0.628   1.883   0.000  -2.510  -0.000   0.000
   28    9   10   11        3       0.628   1.883   0.000  -2.510  -0.000   0.000
   25    7    8    9        3       0.628   1.883   0.000  -2.510  -0.000   0.000
   16    1    2    3        3       0.628   1.883   0.000  -2.510  -0.000   0.000
   29    9    8   14        3       0.628   1.883   0.000  -2.510  -0.000   0.000
   39   14    8    9        3       0.628   1.883   0.000  -2.510  -0.000   0.000
   33   11   12   13        3       0.628   1.883   0.000  -2.510  -0.000   0.000
   36   13   14    8        3       0.628   1.883   0.000  -2.510  -0.000   0.000
   24    6    2    1        3       0.628   1.883   0.000  -2.510  -0.000   0.000
   30   10    9    8        3       0.628   1.883   0.000  -2.510  -0.000   0.000
   18    2    3    4        3       0.628   1.883   0.000  -2.510  -0.000   0.000
   18    2    6    7        3       0.628   1.883   0.000  -2.510  -0.000   0.000
   26    7    8   14        3       0.628   1.883   0.000  -2.510  -0.000   0.000
   31   10    9    8        3       0.628   1.883   0.000  -2.510  -0.000   0.000
   24    6    2    3        3       0.628   1.883   0.000  -2.510  -0.000   0.000
   26    7    8    9        3       0.628   1.883   0.000  -2.510  -0.000   0.000
   38   14   13   12        3       0.628   1.883   0.000  -2.510  -0.000   0.000
   32   11   10    9        3       0.628   1.883   0.000  -2.510  -0.000   0.000
   17    1    2    6        3       0.628   1.883   0.000  -2.510  -0.000   0.000
   38   14    8    7        3       0.628   1.883   0.000  -2.510  -0.000   0.000
   19    3    2    6        3       0.628   1.883   0.000  -2.510  -0.000   0.000
   17    1    2    3        3       0.628   1.883   0.000  -2.510  -0.000   0.000
   20    3    2    1        3       0.628   1.883   0.000  -2.510  -0.000   0.000
   25    7    6    2        3       0.628   1.883   0.000  -2.510  -0.000   0.000
   36   13   12   11        3       0.628   1.883   0.000  -2.510  -0.000   0.000
   29    9    8    7        3       0.628   1.883   0.000  -2.510  -0.000   0.000
   23    6    2    1        3       0.628   1.883   0.000  -2.510  -0.000   0.000
   35   12   11   10        3       0.628   1.883   0.000  -2.510  -0.000   0.000
   27    8   14   13        3       0.628   1.883   0.000  -2.510  -0.000   0.000
   38   14    8    9        3       0.628   1.883   0.000  -2.510  -0.000   0.000
   32   11   12   13        3       0.628   1.883   0.000  -2.510  -0.000   0.000
   31   10   11   12        3       0.628   1.883   0.000  -2.510  -0.000   0.000
   23    6    7    8        3       0.628   1.883   0.000  -2.510  -0.000   0.000
   15    1    2    3        3       0.628   1.883   0.000  -2.510  -0.000   0.000
   20    3    2    6        3       0.628   1.883   0.000  -2.510  -0.000   0.000
   16    1    2    6        3       0.628   1.883   0.000  -2.510  -0.000   0.000
   19    3    2    1        3       0.628   1.883   0.000  -2.510  -0.000   0.000
   20    3    4    5        3       0.837   2.510   0.000  -3.347  -0.000   0.000
   19    3    4    5        3       0.837   2.510   0.000  -3.347  -0.000   0.000
   27    8    7   25        3       0.628   1.883   0.000  -2.510  -0.000   0.000
   39   14   13   37        3       0.628   1.883   0.000  -2.510  -0.000   0.000
   31   10    9   29        3       0.628   1.883   0.000  -2.510  -0.000   0.000
   22    4    3   19        3       0.628   1.883   0.000  -2.510  -0.000   0.000
   21    4    3   20        3       0.628   1.883   0.000  -2.510  -0.000   0.000
   33   11   10   30        3       0.628   1.883   0.000  -2.510  -0.000   0.000
   19    3    2   18        3       0.628   1.883   0.000  -2.510  -0.000   0.000
   37   13   12   34        3       0.628   1.883   0.000  -2.510  -0.000   0.000
   38   14   13   37        3       0.628   1.883   0.000  -2.510  -0.000   0.000
   23    6    2   18        3       0.628   1.883   0.000  -2.510  -0.000   0.000
   36   13   12   35        3       0.628   1.883   0.000  -2.510  -0.000   0.000
   35   12   11   32        3       0.628   1.883   0.000  -2.510  -0.000   0.000
   21    4    3   19        3       0.628   1.883   0.000  -2.510  -0.000   0.000
   20    3    2   18        3       0.628   1.883   0.000  -2.510  -0.000   0.000
   38   14    8   27        3       0.628   1.883   0.000  -2.510  -0.000   0.000
   18    2    1   17        3       0.628   1.883   0.000  -2.510  -0.000   0.000
   28    9    8   27        3       0.628   1.883   0.000  -2.510  -0.000   0.000
   32   11   10   31        3       0.628   1.883   0.000  -2.510  -0.000   0.000
   26    7    6   24        3       0.628   1.883   0.000  -2.510  -0.000   0.000
   36   13   12   34        3       0.628   1.883   0.000  -2.510  -0.000   0.000
   27    8    7   26        3       0.628   1.883   0.000  -2.510  -0.000   0.000
   30   10    9   29        3       0.628   1.883   0.000  -2.510  -0.000   0.000
   35   12   11   33        3       0.628   1.883   0.000  -2.510  -0.000   0.000
   30   10    9   28        3       0.628   1.883   0.000  -2.510  -0.000   0.000
   18    2    1   15        3       0.628   1.883   0.000  -2.510  -0.000   0.000
   34   12   11   32        3       0.628   1.883   0.000  -2.510  -0.000   0.000
   38   14   13   36        3       0.628   1.883   0.000  -2.510  -0.000   0.000
   24    6    2   18        3       0.628   1.883   0.000  -2.510  -0.000   0.000
   22    4    3   20        3       0.628   1.883   0.000  -2.510  -0.000   0.000
   25    7    6   23        3       0.628   1.883   0.000  -2.510  -0.000   0.000
   32   11   10   30        3       0.628   1.883   0.000  -2.510  -0.000   0.000
   26    7    6   23        3       0.628   1.883   0.000  -2.510  -0.000   0.000
   25    7    6   24        3       0.628   1.883   0.000  -2.510  -0.000   0.000
   31   10    9   28        3       0.628   1.883   0.000  -2.510  -0.000   0.000
   33   11   10   31        3       0.628   1.883   0.000  -2.510  -0.000   0.000
   39   14   13   36        3       0.628   1.883   0.000  -2.510  -0.000   0.000
   29    9    8   27        3       0.628   1.883   0.000  -2.510  -0.000   0.000
   34   12   11   33        3       0.628   1.883   0.000  -2.510  -0.000   0.000
   39   14    8   27        3       0.628   1.883   0.000  -2.510  -0.000   0.000
   37   13   12   35        3       0.628   1.883   0.000  -2.510  -0.000   0.000
   18    2    1   16        3       0.628   1.883   0.000  -2.510  -0.000   0.000

[ pairs ]
     1     4    1
     2     5    1
     1     7    1
     4     6    1
     3     7    1
     2     8    1
     6     9    1
     7    10    1
     3    15    1
     8    11    1
     3    16    1
     8    12    1
     7    13    1
     6    14    1
     3    17    1
     1    19    1
     9    12    1
     6    15    1
     1    20    1
     9    13    1
     6    16    1
     4    18    1
    10    13    1
     6    17    1
     2    21    1
    10    14    1
     5    19    1
     2    22    1
     1    23    1
    11    14    1
     7    18    1
     6    19    1
     5    20    1
     1    24    1
     6    20    1
     3    23    1
     3    24    1
     2    25    1
     2    26    1
     8    23    1
     8    24    1
    15    18    1
     6    27    1
    16    18    1
     9    25    1
    17    18    1
     9    26    1
     7    28    1
     7    29    1
    18    19    1
    10    27    1
    18    20    1
     8    30    1
    14    25    1
    11    28    1
     8    31    1
    19    21    1
    14    26    1
    13    27    1
    11    29    1
    20    21    1
    19    22    1
    18    23    1
     9    32    1
    20    22    1
    18    24    1
    14    28    1
    12    30    1
     9    33    1
    14    29    1
    12    31    1
    10    34    1
     8    36    1
    13    32    1
    10    35    1
     8    37    1
     7    38    1
    13    33    1
     7    39    1
    11    36    1
     9    38    1
    23    25    1
    14    34    1
    11    37    1
     9    39    1
    24    25    1
    23    26    1
    14    35    1
    24    26    1
    12    38    1
    12    39    1
    25    27    1
    26    27    1
    27    28    1
    27    29    1
    28    30    1
    29    30    1
    28    31    1
    29    31    1
    30    32    1
    31    32    1
    30    33    1
    31    33    1
    27    38    1
    32    34    1
    27    39    1
    33    34    1
    32    35    1
    33    35    1
    34    36    1
    35    36    1
    34    37    1
    35    37    1
    36    38    1
    37    38    1
    36    39    1
    37    39    1

