LIGPARGEN GENERATED GRO FILE
   41
    1UNK    C00    1   0.100   0.100   0.000
    1UNK    C01    2  -0.051   0.100   0.000
    1UNK    C02    3  -0.107   0.100   0.143
    1UNK    C03    4  -0.263   0.087   0.154
    1UNK    C04    5  -0.303   0.082   0.304
    1UNK    C05    6  -0.296  -0.067   0.347
    1UNK    C06    7  -0.410  -0.174   0.393
    1UNK    C07    8  -0.495  -0.116   0.272
    1UNK    C08    9  -0.590  -0.032   0.365
    1UNK    C09   10  -0.551  -0.083   0.131
    1UNK    C0A   11  -0.663  -0.177   0.089
    1UNK    C0B   12  -0.443  -0.063   0.026
    1UNK    C0C   13  -0.310  -0.045   0.094
    1UNK    C0D   14  -0.326  -0.134   0.214
    1UNK    C0E   15  -0.229  -0.254   0.199
    1UNK    H0F   16   0.138   0.100  -0.102
    1UNK    H0G   17   0.140   0.012   0.051
    1UNK    H0H   18   0.139   0.189   0.051
    1UNK    H0I   19  -0.083   0.011  -0.056
    1UNK    H0J   20  -0.089   0.187  -0.054
    1UNK    H0K   21  -0.077   0.194   0.192
    1UNK    H0M   22  -0.060   0.019   0.201
    1UNK    H0N   23  -0.307   0.173   0.103
    1UNK    H0O   24  -0.404   0.124   0.314
    1UNK    H0P   25  -0.238   0.144   0.366
    1UNK    H0Q   26  -0.198  -0.087   0.392
    1UNK    H0R   27  -0.442  -0.164   0.497
    1UNK    H0S   28  -0.391  -0.282   0.384
    1UNK    H0T   29  -0.684  -0.087   0.379
    1UNK    H0U   30  -0.615   0.066   0.325
    1UNK    H0V   31  -0.552  -0.010   0.466
    1UNK    H0W   32  -0.599   0.016   0.135
    1UNK    H0X   33  -0.625  -0.279   0.073
    1UNK    H0Y   34  -0.709  -0.142  -0.003
    1UNK    H0Z   35  -0.741  -0.182   0.166
    1UNK    H10   36  -0.466   0.021  -0.041
    1UNK    H11   37  -0.439  -0.153  -0.037
    1UNK    H12   38  -0.236  -0.084   0.023
    1UNK    H13   39  -0.129  -0.218   0.173
    1UNK    H14   40  -0.262  -0.322   0.120
    1UNK    H15   41  -0.215  -0.311   0.292
   1.00000   1.00000   1.00000

