
;
; GENERATED BY LigParGen Server
; Jorgensen Lab @ Yale University 
;
[ atomtypes ]
  opls_818  H818     1.0080     0.000    A    2.50000E-01   1.25520E-01
  opls_805  C805    12.0110     0.000    A    3.45000E-01   3.47272E-01
  opls_814  C814    12.0110     0.000    A    3.50000E-01   2.76144E-01
  opls_824  H824     1.0080     0.000    A    2.50000E-01   1.25520E-01
  opls_804  C804    12.0110     0.000    A    3.50000E-01   2.76144E-01
  opls_833  H833     1.0080     0.000    A    2.50000E-01   1.25520E-01
  opls_836  H836     1.0080     0.000    A    2.50000E-01   1.25520E-01
  opls_834  H834     1.0080     0.000    A    2.50000E-01   1.25520E-01
  opls_828  H828     1.0080     0.000    A    2.50000E-01   1.25520E-01
  opls_807  C807    12.0110     0.000    A    3.45000E-01   3.47272E-01
  opls_802  C802    12.0110     0.000    A    3.50000E-01   2.76144E-01
  opls_815  H815     1.0080     0.000    A    2.50000E-01   1.25520E-01
  opls_801  C801    12.0110     0.000    A    3.50000E-01   2.76144E-01
  opls_838  H838     1.0080     0.000    A    2.50000E-01   1.25520E-01
  opls_822  H822     1.0080     0.000    A    2.50000E-01   1.25520E-01
  opls_803  C803    12.0110     0.000    A    3.50000E-01   2.76144E-01
  opls_825  H825     1.0080     0.000    A    2.50000E-01   1.25520E-01
  opls_826  H826     1.0080     0.000    A    2.50000E-01   1.25520E-01
  opls_830  H830     1.0080     0.000    A    2.50000E-01   1.25520E-01
  opls_821  H821     1.0080     0.000    A    2.50000E-01   1.25520E-01
  opls_820  H820     1.0080     0.000    A    2.50000E-01   1.25520E-01
  opls_837  H837     1.0080     0.000    A    2.50000E-01   1.25520E-01
  opls_829  H829     1.0080     0.000    A    2.50000E-01   1.25520E-01
  opls_831  H831     1.0080     0.000    A    2.50000E-01   1.25520E-01
  opls_832  H832     1.0080     0.000    A    2.50000E-01   1.25520E-01
  opls_809  C809    12.0110     0.000    A    3.50000E-01   2.76144E-01
  opls_816  H816     1.0080     0.000    A    2.50000E-01   1.25520E-01
  opls_800  C800    12.0110     0.000    A    3.50000E-01   2.76144E-01
  opls_813  C813    12.0110     0.000    A    3.45000E-01   3.47272E-01
  opls_811  C811    12.0110     0.000    A    3.50000E-01   2.76144E-01
  opls_823  H823     1.0080     0.000    A    2.50000E-01   1.25520E-01
  opls_806  C806    12.0110     0.000    A    3.45000E-01   3.47272E-01
  opls_835  H835     1.0080     0.000    A    2.50000E-01   1.25520E-01
  opls_819  H819     1.0080     0.000    A    2.50000E-01   1.25520E-01
  opls_810  C810    12.0110     0.000    A    3.50000E-01   2.76144E-01
  opls_827  H827     1.0080     0.000    A    2.50000E-01   1.25520E-01
  opls_839  H839     1.0080     0.000    A    2.50000E-01   1.25520E-01
  opls_812  C812    12.0110     0.000    A    3.50000E-01   2.76144E-01
  opls_808  C808    12.0110     0.000    A    3.50000E-01   2.76144E-01
  opls_817  H817     1.0080     0.000    A    2.50000E-01   1.25520E-01
  opls_840  H840     1.0080     0.000    A    2.50000E-01   1.25520E-01
[ moleculetype ]
; Name               nrexcl
UNK                   3
[ atoms ]
;   nr       type  resnr residue  atom   cgnr     charge       mass  
     1   opls_800      1    UNK   C00      1    -0.2396    12.0110 
     2   opls_801      1    UNK   C01      1    -0.1778    12.0110 
     3   opls_802      1    UNK   C02      1    -0.1754    12.0110 
     4   opls_803      1    UNK   C03      1    -0.0961    12.0110 
     5   opls_804      1    UNK   C04      1    -0.1394    12.0110 
     6   opls_805      1    UNK   C05      1    -0.1659    12.0110 
     7   opls_806      1    UNK   C06      1    -0.0802    12.0110 
     8   opls_807      1    UNK   C07      1    -0.0706    12.0110 
     9   opls_808      1    UNK   C08      1    -0.2435    12.0110 
    10   opls_809      1    UNK   C09      1    -0.0459    12.0110 
    11   opls_810      1    UNK   C0A      1    -0.2358    12.0110 
    12   opls_811      1    UNK   C0B      1    -0.1554    12.0110 
    13   opls_812      1    UNK   C0C      1    -0.1213    12.0110 
    14   opls_813      1    UNK   C0D      1    -0.1507    12.0110 
    15   opls_814      1    UNK   C0E      1    -0.1926    12.0110 
    16   opls_815      1    UNK   H0F      1     0.0801     1.0080 
    17   opls_816      1    UNK   H0G      1     0.0801     1.0080 
    18   opls_817      1    UNK   H0H      1     0.0801     1.0080 
    19   opls_818      1    UNK   H0I      1     0.0886     1.0080 
    20   opls_819      1    UNK   H0J      1     0.0886     1.0080 
    21   opls_820      1    UNK   H0K      1     0.0881     1.0080 
    22   opls_821      1    UNK   H0M      1     0.0881     1.0080 
    23   opls_822      1    UNK   H0N      1      0.104     1.0080 
    24   opls_823      1    UNK   H0O      1     0.0934     1.0080 
    25   opls_824      1    UNK   H0P      1     0.0934     1.0080 
    26   opls_825      1    UNK   H0Q      1     0.1029     1.0080 
    27   opls_826      1    UNK   H0R      1     0.0964     1.0080 
    28   opls_827      1    UNK   H0S      1     0.0964     1.0080 
    29   opls_828      1    UNK   H0T      1     0.0806     1.0080 
    30   opls_829      1    UNK   H0U      1     0.0806     1.0080 
    31   opls_830      1    UNK   H0V      1     0.0806     1.0080 
    32   opls_831      1    UNK   H0W      1     0.0973     1.0080 
    33   opls_832      1    UNK   H0X      2     0.0815     1.0080 
    34   opls_833      1    UNK   H0Y      2     0.0815     1.0080 
    35   opls_834      1    UNK   H0Z      2     0.0815     1.0080 
    36   opls_835      1    UNK   H10      2     0.0898     1.0080 
    37   opls_836      1    UNK   H11      2     0.0898     1.0080 
    38   opls_837      1    UNK   H12      2     0.1062     1.0080 
    39   opls_838      1    UNK   H13      2     0.0802     1.0080 
    40   opls_839      1    UNK   H14      2     0.0802     1.0080 
    41   opls_840      1    UNK   H15      2     0.0802     1.0080 
[ bonds ]
    2     1     1      0.1529 224262.400
    3     2     1      0.1529 224262.400
    4     3     1      0.1529 224262.400
    5     4     1      0.1529 224262.400
    6     5     1      0.1510 234304.000
    7     6     1      0.1520 217568.000
    8     7     1      0.1520 217568.000
    9     8     1      0.1510 234304.000
   10     8     1      0.1510 234304.000
   11    10     1      0.1529 224262.400
   12    10     1      0.1529 224262.400
   13     4     1      0.1529 224262.400
   14     6     1      0.1520 217568.000
   15    14     1      0.1510 234304.000
   16     1     1      0.1090 284512.000
   17     1     1      0.1090 284512.000
   18     1     1      0.1090 284512.000
   19     2     1      0.1090 284512.000
   20     2     1      0.1090 284512.000
   21     3     1      0.1090 284512.000
   22     3     1      0.1090 284512.000
   23     4     1      0.1090 284512.000
   24     5     1      0.1090 284512.000
   25     5     1      0.1090 284512.000
   26     6     1      0.1088 284512.000
   27     7     1      0.1088 284512.000
   28     7     1      0.1088 284512.000
   29     9     1      0.1090 284512.000
   30     9     1      0.1090 284512.000
   31     9     1      0.1090 284512.000
   32    10     1      0.1090 284512.000
   33    11     1      0.1090 284512.000
   34    11     1      0.1090 284512.000
   35    11     1      0.1090 284512.000
   36    12     1      0.1090 284512.000
   37    12     1      0.1090 284512.000
   38    13     1      0.1090 284512.000
   39    15     1      0.1090 284512.000
   40    15     1      0.1090 284512.000
   41    15     1      0.1090 284512.000
   14     8     1      0.1520 217568.000
   13    12     1      0.1529 224262.400
   14    13     1      0.1510 234304.000

[ angles ]
;  ai    aj    ak funct            c0            c1            c2            c3 
    1     2     3     1    112.700    488.273
    2     3     4     1    112.700    488.273
    3     4     5     1    112.700    488.273
    4     5     6     1    112.700    488.273
    5     6     7     1    117.200    313.800
    6     7     8     1     83.000    251.040
    7     8     9     1    117.200    313.800
    7     8    10     1    117.200    313.800
    8    10    11     1    112.700    488.273
    8    10    12     1    112.700    488.273
    3     4    13     1    112.700    488.273
    5     6    14     1    117.200    313.800
    6    14    15     1    117.200    313.800
    2     1    16     1    110.700    313.800
    2     1    17     1    110.700    313.800
    2     1    18     1    110.700    313.800
    1     2    19     1    110.700    313.800
    1     2    20     1    110.700    313.800
    2     3    21     1    110.700    313.800
    2     3    22     1    110.700    313.800
    3     4    23     1    110.700    313.800
    4     5    24     1    110.700    313.800
    4     5    25     1    110.700    313.800
    5     6    26     1    114.300    292.880
    6     7    27     1    117.200    313.800
    6     7    28     1    117.200    313.800
    8     9    29     1    110.700    313.800
    8     9    30     1    110.700    313.800
    8     9    31     1    110.700    313.800
    8    10    32     1    110.700    313.800
   10    11    33     1    110.700    313.800
   10    11    34     1    110.700    313.800
   10    11    35     1    110.700    313.800
   10    12    36     1    110.700    313.800
   10    12    37     1    110.700    313.800
    4    13    38     1    110.700    313.800
   14    15    39     1    110.700    313.800
   14    15    40     1    110.700    313.800
   14    15    41     1    110.700    313.800
    7     6    14     1     83.000    251.040
   29     9    30     1    107.800    276.144
   39    15    41     1    107.800    276.144
   33    11    34     1    107.800    276.144
   13    12    37     1    110.700    313.800
   11    10    12     1    112.700    488.273
   13    14    15     1    114.300    292.880
   13    12    36     1    110.700    313.800
   21     3    22     1    107.800    276.144
    5     4    13     1    112.700    488.273
   36    12    37     1    107.800    276.144
   39    15    40     1    107.800    276.144
   19     2    20     1    107.800    276.144
   16     1    17     1    107.800    276.144
    4    13    12     1    112.700    488.273
   12    13    38     1    110.700    313.800
   12    10    32     1    110.700    313.800
    8     7    27     1    117.200    313.800
    7     8    14     1     83.000    251.040
   13     4    23     1    110.700    313.800
    4     3    22     1    110.700    313.800
   29     9    31     1    107.800    276.144
   10    12    13     1    112.700    488.273
   33    11    35     1    107.800    276.144
    8     7    28     1    117.200    313.800
   24     5    25     1    107.800    276.144
    6    14     8     1     83.000    251.040
    9     8    10     1    114.300    292.880
    8    14    13     1    117.200    313.800
    3     2    20     1    110.700    313.800
   27     7    28     1    114.300    292.880
   30     9    31     1    107.800    276.144
   16     1    18     1    107.800    276.144
    8    14    15     1    117.200    313.800
   34    11    35     1    107.800    276.144
   14    13    38     1    110.700    313.800
    4     3    21     1    110.700    313.800
    9     8    14     1    117.200    313.800
    6     5    24     1    110.700    313.800
   11    10    32     1    110.700    313.800
    5     4    23     1    110.700    313.800
    7     6    26     1    117.200    313.800
    4    13    14     1    112.700    488.273
   40    15    41     1    107.800    276.144
   12    13    14     1    112.700    488.273
    3     2    19     1    110.700    313.800
    6    14    13     1    117.200    313.800
   17     1    18     1    107.800    276.144
   14     6    26     1    117.200    313.800
    6     5    25     1    110.700    313.800
   10     8    14     1    117.200    313.800

[ dihedrals ]
; IMPROPER DIHEDRAL ANGLES 
;  ai    aj    ak    al funct            c0            c1            c2            c3            c4            c5

[ dihedrals ]
; PROPER DIHEDRAL ANGLES
;  ai    aj    ak    al funct            c0            c1            c2            c3            c4            c5
    4    3    2    1        3       2.301  -1.464   0.837  -1.674  -0.000   0.000
    5    4    3    2        3       2.301  -1.464   0.837  -1.674  -0.000   0.000
   13   12   10   11        3       2.301  -1.464   0.837  -1.674  -0.000   0.000
   10   12   13    4        3       2.301  -1.464   0.837  -1.674  -0.000   0.000
   12   13    4    5        3       2.301  -1.464   0.837  -1.674  -0.000   0.000
   12   13    4    3        3       2.301  -1.464   0.837  -1.674  -0.000   0.000
   13    4    3    2        3       2.301  -1.464   0.837  -1.674  -0.000   0.000
   13    4    5    6        3       2.301  -1.464   0.837  -1.674  -0.000   0.000
   13   12   10    8        3       2.301  -1.464   0.837  -1.674  -0.000   0.000
   11   10    8    9        3       2.301  -1.464   0.837  -1.674  -0.000   0.000
   12   10    8    9        3       2.301  -1.464   0.837  -1.674  -0.000   0.000
   12   10    8    7        3       0.000   0.000   0.000  -0.000  -0.000   0.000
   12   13   14    8        3       0.000   0.000   0.000  -0.000  -0.000   0.000
   12   13   14    6        3       0.000   0.000   0.000  -0.000  -0.000   0.000
   11   10    8    7        3       0.000   0.000   0.000  -0.000  -0.000   0.000
   15   14   13   12        3       2.301  -1.464   0.837  -1.674  -0.000   0.000
   15   14   13    4        3       2.301  -1.464   0.837  -1.674  -0.000   0.000
   15   14    6    5        3       0.000   0.000   0.000  -0.000  -0.000   0.000
   13   14    8    9        3       0.000   0.000   0.000  -0.000  -0.000   0.000
   15   14    8   10        3       0.000   0.000   0.000  -0.000  -0.000   0.000
   13   14    6    5        3       0.000   0.000   0.000  -0.000  -0.000   0.000
   15   14    8    9        3       0.000   0.000   0.000  -0.000  -0.000   0.000
   13   14    8   10        3       0.000   0.000   0.000  -0.000  -0.000   0.000
   15   14    8    7        3       0.000   0.000   0.000  -0.000  -0.000   0.000
    9    8    7    6        3       0.000   0.000   0.000  -0.000  -0.000   0.000
   10    8   14    6        3       0.000   0.000   0.000  -0.000  -0.000   0.000
   15   14    6    7        3       0.000   0.000   0.000  -0.000  -0.000   0.000
    9    8   14    6        3       0.000   0.000   0.000  -0.000  -0.000   0.000
   13   14    6    7        3       0.000   0.000   0.000  -0.000  -0.000   0.000
   10    8    7    6        3       0.000   0.000   0.000  -0.000  -0.000   0.000
   13   14    8    7        3       0.000   0.000   0.000  -0.000  -0.000   0.000
   14   13    4    3        3       2.301  -1.464   0.837  -1.674  -0.000   0.000
    6    5    4    3        3       2.301  -1.464   0.837  -1.674  -0.000   0.000
   14   13   12   10        3       2.301  -1.464   0.837  -1.674  -0.000   0.000
   14   13    4    5        3       2.301  -1.464   0.837  -1.674  -0.000   0.000
    7    6    5    4        3       0.000   0.000   0.000  -0.000  -0.000   0.000
   14    8   10   12        3       0.000   0.000   0.000  -0.000  -0.000   0.000
    6   14   13    4        3       0.000   0.000   0.000  -0.000  -0.000   0.000
   14    8   10   11        3       0.000   0.000   0.000  -0.000  -0.000   0.000
    8   14   13    4        3       0.000   0.000   0.000  -0.000  -0.000   0.000
   14    6    5    4        3       0.000   0.000   0.000  -0.000  -0.000   0.000
    8    7    6    5        3       0.000   0.000   0.000  -0.000  -0.000   0.000
    8   14    6    5        3       0.000   0.000   0.000  -0.000  -0.000   0.000
   33   11   10   12        3       0.628   1.883   0.000  -2.510  -0.000   0.000
   38   13   12   10        3       0.628   1.883   0.000  -2.510  -0.000   0.000
   35   11   10   12        3       0.628   1.883   0.000  -2.510  -0.000   0.000
   17    1    2    3        3       0.628   1.883   0.000  -2.510  -0.000   0.000
   32   10   12   13        3       0.628   1.883   0.000  -2.510  -0.000   0.000
   37   12   10   11        3       0.628   1.883   0.000  -2.510  -0.000   0.000
   38   13    4    5        3       0.628   1.883   0.000  -2.510  -0.000   0.000
   20    2    3    4        3       0.628   1.883   0.000  -2.510  -0.000   0.000
   38   13    4    3        3       0.628   1.883   0.000  -2.510  -0.000   0.000
   24    5    4    3        3       0.628   1.883   0.000  -2.510  -0.000   0.000
   21    3    4    5        3       0.628   1.883   0.000  -2.510  -0.000   0.000
   23    4    3    2        3       0.628   1.883   0.000  -2.510  -0.000   0.000
   21    3    4   13        3       0.628   1.883   0.000  -2.510  -0.000   0.000
   25    5    4   13        3       0.628   1.883   0.000  -2.510  -0.000   0.000
   18    1    2    3        3       0.628   1.883   0.000  -2.510  -0.000   0.000
   36   12   13    4        3       0.628   1.883   0.000  -2.510  -0.000   0.000
   24    5    4   13        3       0.628   1.883   0.000  -2.510  -0.000   0.000
   36   12   10   11        3       0.628   1.883   0.000  -2.510  -0.000   0.000
   37   12   13    4        3       0.628   1.883   0.000  -2.510  -0.000   0.000
   19    2    3    4        3       0.628   1.883   0.000  -2.510  -0.000   0.000
   22    3    2    1        3       0.628   1.883   0.000  -2.510  -0.000   0.000
   16    1    2    3        3       0.628   1.883   0.000  -2.510  -0.000   0.000
   22    3    4    5        3       0.628   1.883   0.000  -2.510  -0.000   0.000
   21    3    2    1        3       0.628   1.883   0.000  -2.510  -0.000   0.000
   23    4   13   12        3       0.628   1.883   0.000  -2.510  -0.000   0.000
   22    3    4   13        3       0.628   1.883   0.000  -2.510  -0.000   0.000
   25    5    4    3        3       0.628   1.883   0.000  -2.510  -0.000   0.000
   34   11   10   12        3       0.628   1.883   0.000  -2.510  -0.000   0.000
   36   12   13   14        3       0.628   1.883   0.000  -2.510  -0.000   0.000
   36   12   10    8        3       0.628   1.883   0.000  -2.510  -0.000   0.000
   34   11   10    8        3       0.628   1.883   0.000  -2.510  -0.000   0.000
   35   11   10    8        3       0.628   1.883   0.000  -2.510  -0.000   0.000
   33   11   10    8        3       0.628   1.883   0.000  -2.510  -0.000   0.000
   37   12   13   14        3       0.628   1.883   0.000  -2.510  -0.000   0.000
   23    4   13   14        3       0.628   1.883   0.000  -2.510  -0.000   0.000
   23    4    5    6        3       0.628   1.883   0.000  -2.510  -0.000   0.000
   37   12   10    8        3       0.628   1.883   0.000  -2.510  -0.000   0.000
   21    3    2   19        3       0.628   1.883   0.000  -2.510  -0.000   0.000
   20    2    1   17        3       0.628   1.883   0.000  -2.510  -0.000   0.000
   19    2    1   18        3       0.628   1.883   0.000  -2.510  -0.000   0.000
   22    3    2   20        3       0.628   1.883   0.000  -2.510  -0.000   0.000
   19    2    1   17        3       0.628   1.883   0.000  -2.510  -0.000   0.000
   22    3    2   19        3       0.628   1.883   0.000  -2.510  -0.000   0.000
   21    3    2   20        3       0.628   1.883   0.000  -2.510  -0.000   0.000
   37   12   10   32        3       0.628   1.883   0.000  -2.510  -0.000   0.000
   38   13    4   23        3       0.628   1.883   0.000  -2.510  -0.000   0.000
   38   13   12   36        3       0.628   1.883   0.000  -2.510  -0.000   0.000
   35   11   10   32        3       0.628   1.883   0.000  -2.510  -0.000   0.000
   38   13   12   37        3       0.628   1.883   0.000  -2.510  -0.000   0.000
   23    4    3   21        3       0.628   1.883   0.000  -2.510  -0.000   0.000
   20    2    1   16        3       0.628   1.883   0.000  -2.510  -0.000   0.000
   20    2    1   18        3       0.628   1.883   0.000  -2.510  -0.000   0.000
   34   11   10   32        3       0.628   1.883   0.000  -2.510  -0.000   0.000
   25    5    4   23        3       0.628   1.883   0.000  -2.510  -0.000   0.000
   19    2    1   16        3       0.628   1.883   0.000  -2.510  -0.000   0.000
   24    5    4   23        3       0.628   1.883   0.000  -2.510  -0.000   0.000
   23    4    3   22        3       0.628   1.883   0.000  -2.510  -0.000   0.000
   33   11   10   32        3       0.628   1.883   0.000  -2.510  -0.000   0.000
   36   12   10   32        3       0.628   1.883   0.000  -2.510  -0.000   0.000
   32   10    8    9        3       0.628   1.883   0.000  -2.510  -0.000   0.000
   31    9    8   10        3       0.628   1.883   0.000  -2.510  -0.000   0.000
   30    9    8   10        3       0.628   1.883   0.000  -2.510  -0.000   0.000
   38   13   14   15        3       0.628   1.883   0.000  -2.510  -0.000   0.000
   39   15   14   13        3       0.628   1.883   0.000  -2.510  -0.000   0.000
   40   15   14   13        3       0.628   1.883   0.000  -2.510  -0.000   0.000
   41   15   14   13        3       0.628   1.883   0.000  -2.510  -0.000   0.000
   29    9    8   10        3       0.628   1.883   0.000  -2.510  -0.000   0.000
   29    9    8   14        3       0.628   1.883   0.000  -2.510  -0.000   0.000
   41   15   14    6        3       0.628   1.883   0.000  -2.510  -0.000   0.000
   32   10    8   14        3       0.628   1.883   0.000  -2.510  -0.000   0.000
   24    5    6   14        3       0.628   1.883   0.000  -2.510  -0.000   0.000
   39   15   14    8        3       0.628   1.883   0.000  -2.510  -0.000   0.000
   25    5    6    7        3       0.628   1.883   0.000  -2.510  -0.000   0.000
   41   15   14    8        3       0.628   1.883   0.000  -2.510  -0.000   0.000
   31    9    8    7        3       0.628   1.883   0.000  -2.510  -0.000   0.000
   40   15   14    8        3       0.628   1.883   0.000  -2.510  -0.000   0.000
   30    9    8    7        3       0.628   1.883   0.000  -2.510  -0.000   0.000
   38   13   14    6        3       0.628   1.883   0.000  -2.510  -0.000   0.000
   24    5    6    7        3       0.628   1.883   0.000  -2.510  -0.000   0.000
   29    9    8    7        3       0.628   1.883   0.000  -2.510  -0.000   0.000
   39   15   14    6        3       0.628   1.883   0.000  -2.510  -0.000   0.000
   40   15   14    6        3       0.628   1.883   0.000  -2.510  -0.000   0.000
   30    9    8   14        3       0.628   1.883   0.000  -2.510  -0.000   0.000
   32   10    8    7        3       0.628   1.883   0.000  -2.510  -0.000   0.000
   25    5    6   14        3       0.628   1.883   0.000  -2.510  -0.000   0.000
   31    9    8   14        3       0.628   1.883   0.000  -2.510  -0.000   0.000
   38   13   14    8        3       0.628   1.883   0.000  -2.510  -0.000   0.000
   26    6    5    4        3       0.628   1.883   0.000  -2.510  -0.000   0.000
   26    6    5   24        3       0.628   1.883   0.000  -2.510  -0.000   0.000
   26    6    5   25        3       0.628   1.883   0.000  -2.510  -0.000   0.000
   27    7    8   10        3       0.000   0.000   0.000  -0.000  -0.000   0.000
   26    6   14   15        3       0.000   0.000   0.000  -0.000  -0.000   0.000
   28    7    8   10        3       0.000   0.000   0.000  -0.000  -0.000   0.000
   28    7    6    5        3       0.000   0.000   0.000  -0.000  -0.000   0.000
   27    7    8    9        3       0.000   0.000   0.000  -0.000  -0.000   0.000
   27    7    6    5        3       0.000   0.000   0.000  -0.000  -0.000   0.000
   28    7    8    9        3       0.000   0.000   0.000  -0.000  -0.000   0.000
   26    6   14   13        3       0.000   0.000   0.000  -0.000  -0.000   0.000
   26    6   14    8        3       0.000   0.000   0.000  -0.000  -0.000   0.000
   28    7    8   14        3       0.000   0.000   0.000  -0.000  -0.000   0.000
   27    7    8   14        3       0.000   0.000   0.000  -0.000  -0.000   0.000
   26    6    7    8        3       0.000   0.000   0.000  -0.000  -0.000   0.000
   27    7    6   14        3       0.000   0.000   0.000  -0.000  -0.000   0.000
   28    7    6   14        3       0.000   0.000   0.000  -0.000  -0.000   0.000
   28    7    6   26        3       0.000   0.000   0.000  -0.000  -0.000   0.000
   27    7    6   26        3       0.000   0.000   0.000  -0.000  -0.000   0.000

[ pairs ]
     1     4    1
     2     5    1
     3     6    1
     4     7    1
     4     8    1
     5     8    1
     4    10    1
     6     9    1
     3    12    1
     2    13    1
     6    10    1
     5    12    1
     3    14    1
     7    11    1
     6    12    1
     7    12    1
     4    15    1
     3    16    1
     9    11    1
     7    13    1
     5    15    1
     3    17    1
     9    12    1
     3    18    1
     9    13    1
     7    15    1
     1    21    1
     4    19    1
     1    22    1
    11    13    1
     9    15    1
     4    20    1
    11    14    1
    10    15    1
     2    23    1
     5    21    1
    12    15    1
     5    22    1
     3    24    1
     3    25    1
     6    23    1
     4    26    1
     7    24    1
     7    25    1
     5    27    1
     5    28    1
    13    21    1
     8    26    1
    16    19    1
    13    22    1
    12    23    1
    17    19    1
    16    20    1
     9    27    1
     7    29    1
    18    19    1
    17    20    1
    14    23    1
    13    24    1
    10    27    1
     9    28    1
     7    30    1
    18    20    1
    14    24    1
    13    25    1
    10    28    1
     7    31    1
    14    25    1
    13    26    1
    10    29    1
     7    32    1
    19    21    1
    10    30    1
     4    36    1
    20    21    1
    19    22    1
    15    26    1
    14    27    1
    10    31    1
     9    32    1
     8    33    1
     4    37    1
     3    38    1
    20    22    1
    14    28    1
     8    34    1
    14    29    1
     8    35    1
     5    38    1
    21    23    1
    14    30    1
     8    36    1
     6    38    1
    22    23    1
    14    31    1
    13    32    1
    12    33    1
     8    37    1
     6    39    1
    14    32    1
    12    34    1
     8    38    1
     6    40    1
    23    24    1
    12    35    1
    11    36    1
     8    39    1
     6    41    1
    23    25    1
    11    37    1
    10    38    1
     8    40    1
     8    41    1
    24    26    1
    14    36    1
    25    26    1
    14    37    1
    13    39    1
    26    27    1
    15    38    1
    13    40    1
    26    28    1
    13    41    1
    23    38    1
    32    33    1
    32    34    1
    32    35    1
    32    36    1
    32    37    1
    36    38    1
    37    38    1

