LIGPARGEN GENERATED GRO FILE
   24
    1UNK    C00    1   0.100   0.100   0.000
    1UNK    C01    2  -0.052   0.100   0.000
    1UNK    C02    3  -0.113   0.100   0.141
    1UNK    C03    4  -0.076   0.223   0.219
    1UNK    C04    5  -0.127   0.240   0.359
    1UNK    C05    6   0.023   0.223   0.337
    1UNK    C06    7   0.084   0.094   0.384
    1UNK    C07    8   0.112   0.344   0.346
    1UNK    O08    9   0.188   0.374   0.255
    1UNK    C09   10   0.108   0.420   0.470
    1UNK    N0A   11   0.104   0.480   0.570
    1UNK    H0B   12   0.138   0.095  -0.103
    1UNK    H0C   13   0.139   0.014   0.055
    1UNK    H0D   14   0.140   0.191   0.046
    1UNK    H0E   15  -0.087   0.011  -0.054
    1UNK    H0F   16  -0.088   0.187  -0.056
    1UNK    H0G   17  -0.084   0.008   0.192
    1UNK    H0H   18  -0.222   0.097   0.130
    1UNK    H0I   19  -0.081   0.312   0.156
    1UNK    H0J   20  -0.182   0.158   0.404
    1UNK    H0K   21  -0.166   0.337   0.387
    1UNK    H0M   22   0.013   0.011   0.386
    1UNK    H0N   23   0.122   0.106   0.487
    1UNK    H0O   24   0.169   0.066   0.320
   1.00000   1.00000   1.00000

