LIGPARGEN GENERATED GRO FILE
   37
    1UNK    C00    1   0.100   0.100   0.000
    1UNK    C01    2  -0.050   0.100   0.000
    1UNK    C02    3  -0.114   0.100   0.135
    1UNK    C03    4  -0.133   0.221   0.044
    1UNK    C04    5  -0.281   0.254   0.009
    1UNK    C05    6  -0.338   0.142  -0.083
    1UNK    C06    7  -0.361   0.261   0.142
    1UNK    O07    8  -0.430   0.166   0.178
    1UNK    C08    9  -0.342   0.384   0.235
    1UNK    C09   10  -0.209   0.385   0.312
    1UNK    C0A   11  -0.453   0.380   0.343
    1UNK    C0B   12  -0.355   0.513   0.152
    1UNK    C0C   13  -0.266   0.511   0.026
    1UNK    C0D   14  -0.299   0.391  -0.066
    1UNK    C0E   15  -0.443   0.415  -0.109
    1UNK    N0F   16  -0.562   0.436  -0.145
    1UNK    H0G   17   0.137  -0.003   0.011
    1UNK    H0H   18   0.141   0.159   0.083
    1UNK    H0I   19   0.140   0.140  -0.094
    1UNK    H0J   20  -0.089   0.034  -0.077
    1UNK    H0K   21  -0.052   0.112   0.224
    1UNK    H0M   22  -0.194   0.028   0.150
    1UNK    H0N   23  -0.074   0.309   0.064
    1UNK    H0O   24  -0.329   0.043  -0.037
    1UNK    H0P   25  -0.283   0.139  -0.178
    1UNK    H0Q   26  -0.444   0.156  -0.105
    1UNK    H0R   27  -0.194   0.292   0.368
    1UNK    H0S   28  -0.206   0.468   0.383
    1UNK    H0T   29  -0.122   0.398   0.247
    1UNK    H0U   30  -0.446   0.289   0.404
    1UNK    H0V   31  -0.553   0.382   0.298
    1UNK    H0W   32  -0.445   0.466   0.412
    1UNK    H0X   33  -0.329   0.600   0.213
    1UNK    H0Y   34  -0.460   0.527   0.123
    1UNK    H0Z   35  -0.160   0.511   0.054
    1UNK    H10   36  -0.283   0.604  -0.029
    1UNK    H11   37  -0.234   0.394  -0.154
   1.00000   1.00000   1.00000

