LIGPARGEN GENERATED GRO FILE
   25
    1UNK    C00    1   0.100   0.100   0.000
    1UNK    C01    2  -0.053   0.100   0.000
    1UNK    C02    3  -0.104   0.100   0.144
    1UNK    C03    4  -0.106   0.220  -0.082
    1UNK    C04    5  -0.259   0.223  -0.091
    1UNK    C05    6  -0.309   0.339  -0.178
    1UNK    C06    7  -0.462   0.348  -0.193
    1UNK    Cl0    8  -0.529   0.201  -0.269
    1UNK    Cl1    9  -0.541   0.373  -0.034
    1UNK    C09   10  -0.505   0.465  -0.280
    1UNK    O0A   11  -0.428   0.544  -0.334
    1UNK    H0B   12   0.139   0.014   0.055
    1UNK    H0C   13   0.140   0.191   0.047
    1UNK    H0D   14   0.139   0.095  -0.102
    1UNK    H0E   15  -0.087   0.007  -0.048
    1UNK    H0F   16  -0.081   0.195   0.194
    1UNK    H0G   17  -0.058   0.019   0.202
    1UNK    H0H   18  -0.212   0.084   0.148
    1UNK    H0I   19  -0.064   0.215  -0.183
    1UNK    H0J   20  -0.070   0.314  -0.037
    1UNK    H0K   21  -0.301   0.232   0.009
    1UNK    H0M   22  -0.293   0.127  -0.133
    1UNK    H0N   23  -0.263   0.330  -0.278
    1UNK    H0O   24  -0.271   0.433  -0.136
    1UNK    H0P   25  -0.614   0.476  -0.293
   1.00000   1.00000   1.00000

