LIGPARGEN GENERATED GRO FILE
   23
    1UNK    C00    1   0.100   0.100   0.000
    1UNK    C01    2  -0.052   0.100   0.000
    1UNK    C02    3  -0.109   0.100   0.142
    1UNK    C03    4  -0.262   0.100   0.139
    1UNK    C04    5  -0.322   0.100   0.280
    1UNK    C05    6  -0.473   0.100   0.274
    1UNK    O06    7  -0.540   0.100   0.172
    1UNK    O07    8  -0.523   0.100   0.401
    1UNK    C08    9  -0.666   0.100   0.406
    1UNK    H09   10   0.138   0.100  -0.103
    1UNK    H0A   11   0.139   0.011   0.050
    1UNK    H0B   12   0.139   0.189   0.051
    1UNK    H0C   13  -0.088   0.012  -0.054
    1UNK    H0D   14  -0.088   0.188  -0.054
    1UNK    H0E   15  -0.073   0.188   0.196
    1UNK    H0F   16  -0.073   0.012   0.196
    1UNK    H0G   17  -0.297   0.012   0.084
    1UNK    H0H   18  -0.297   0.188   0.084
    1UNK    H0I   19  -0.289   0.190   0.334
    1UNK    H0J   20  -0.289   0.011   0.334
    1UNK    H0K   21  -0.696   0.100   0.511
    1UNK    H0M   22  -0.706   0.010   0.358
    1UNK    H0N   23  -0.706   0.190   0.358
   1.00000   1.00000   1.00000

