
;
; GENERATED BY LigParGen Server
; Jorgensen Lab @ Yale University 
;
[ atomtypes ]
  opls_818  H818     1.0080     0.000    A    2.50000E-01   1.25520E-01
  opls_813  H813     1.0080     0.000    A    2.50000E-01   1.25520E-01
  opls_802  C802    12.0110     0.000    A    3.50000E-01   2.76144E-01
  opls_815  H815     1.0080     0.000    A    2.50000E-01   1.25520E-01
  opls_801  C801    12.0110     0.000    A    3.50000E-01   2.76144E-01
  opls_822  H822     1.0080     0.000    A    2.50000E-01   1.25520E-01
  opls_803  C803    12.0110     0.000    A    3.50000E-01   2.76144E-01
  opls_814  H814     1.0080     0.000    A    2.50000E-01   1.25520E-01
  opls_807  O807    15.9990     0.000    A    2.90000E-01   5.85760E-01
  opls_821  H821     1.0080     0.000    A    2.50000E-01   1.25520E-01
  opls_820  H820     1.0080     0.000    A    2.50000E-01   1.25520E-01
  opls_811  H811     1.0080     0.000    A    2.50000E-01   1.25520E-01
  opls_810  H810     1.0080     0.000    A    2.50000E-01   1.25520E-01
  opls_805  C805    12.0110     0.000    A    3.55000E-01   2.92880E-01
  opls_816  H816     1.0080     0.000    A    2.50000E-01   1.25520E-01
  opls_800  C800    12.0110     0.000    A    3.50000E-01   2.76144E-01
  opls_819  H819     1.0080     0.000    A    2.50000E-01   1.25520E-01
  opls_804  C804    12.0110     0.000    A    3.50000E-01   2.76144E-01
  opls_808  C808    12.0110     0.000    A    3.50000E-01   2.76144E-01
  opls_806  O806    15.9990     0.000    A    2.96000E-01   8.78640E-01
  opls_817  H817     1.0080     0.000    A    2.50000E-01   1.25520E-01
  opls_812  H812     1.0080     0.000    A    2.50000E-01   1.25520E-01
  opls_809  H809     1.0080     0.000    A    2.50000E-01   1.25520E-01
[ moleculetype ]
; Name               nrexcl
UNK                   3
[ atoms ]
;   nr       type  resnr residue  atom   cgnr     charge       mass  
     1   opls_800      1    UNK   C00      1     -0.239    12.0110 
     2   opls_801      1    UNK   C01      1    -0.1787    12.0110 
     3   opls_802      1    UNK   C02      1    -0.1772    12.0110 
     4   opls_803      1    UNK   C03      1    -0.1775    12.0110 
     5   opls_804      1    UNK   C04      1      -0.19    12.0110 
     6   opls_805      1    UNK   C05      1     0.4337    12.0110 
     7   opls_806      1    UNK   O06      1    -0.4459    15.9990 
     8   opls_807      1    UNK   O07      1    -0.3584    15.9990 
     9   opls_808      1    UNK   C08      1    -0.0582    12.0110 
    10   opls_809      1    UNK   H09      1     0.0818     1.0080 
    11   opls_810      1    UNK   H0A      1     0.0818     1.0080 
    12   opls_811      1    UNK   H0B      1     0.0818     1.0080 
    13   opls_812      1    UNK   H0C      1     0.0915     1.0080 
    14   opls_813      1    UNK   H0D      1     0.0915     1.0080 
    15   opls_814      1    UNK   H0E      1     0.0898     1.0080 
    16   opls_815      1    UNK   H0F      1     0.0898     1.0080 
    17   opls_816      1    UNK   H0G      1     0.1071     1.0080 
    18   opls_817      1    UNK   H0H      1     0.1071     1.0080 
    19   opls_818      1    UNK   H0I      1     0.1319     1.0080 
    20   opls_819      1    UNK   H0J      1     0.1319     1.0080 
    21   opls_820      1    UNK   H0K      1     0.1017     1.0080 
    22   opls_821      1    UNK   H0M      1     0.1017     1.0080 
    23   opls_822      1    UNK   H0N      1     0.1017     1.0080 
[ bonds ]
    2     1     1      0.1529 224262.400
    3     2     1      0.1529 224262.400
    4     3     1      0.1529 224262.400
    5     4     1      0.1529 224262.400
    6     5     1      0.1522 265265.600
    7     6     1      0.1229 476976.000
    8     6     1      0.1327 179075.200
    9     8     1      0.1410 267776.000
   10     1     1      0.1090 284512.000
   11     1     1      0.1090 284512.000
   12     1     1      0.1090 284512.000
   13     2     1      0.1090 284512.000
   14     2     1      0.1090 284512.000
   15     3     1      0.1090 284512.000
   16     3     1      0.1090 284512.000
   17     4     1      0.1090 284512.000
   18     4     1      0.1090 284512.000
   19     5     1      0.1090 284512.000
   20     5     1      0.1090 284512.000
   21     9     1      0.1090 284512.000
   22     9     1      0.1090 284512.000
   23     9     1      0.1090 284512.000

[ angles ]
;  ai    aj    ak funct            c0            c1            c2            c3 
    1     2     3     1    112.700    488.273
    2     3     4     1    112.700    488.273
    3     4     5     1    112.700    488.273
    4     5     6     1    111.100    527.184
    5     6     7     1    120.400    669.440
    5     6     8     1    111.400    677.808
    6     8     9     1    116.900    694.544
    2     1    10     1    110.700    313.800
    2     1    11     1    110.700    313.800
    2     1    12     1    110.700    313.800
    1     2    13     1    110.700    313.800
    1     2    14     1    110.700    313.800
    2     3    15     1    110.700    313.800
    2     3    16     1    110.700    313.800
    3     4    17     1    110.700    313.800
    3     4    18     1    110.700    313.800
    4     5    19     1    110.700    313.800
    4     5    20     1    110.700    313.800
    8     9    21     1    109.500    292.880
    8     9    22     1    109.500    292.880
    8     9    23     1    109.500    292.880
   21     9    23     1    107.800    276.144
    3     2    14     1    110.700    313.800
   13     2    14     1    107.800    276.144
    6     5    19     1    109.500    292.880
   17     4    18     1    107.800    276.144
   22     9    23     1    107.800    276.144
   15     3    16     1    107.800    276.144
   21     9    22     1    107.800    276.144
   19     5    20     1    107.800    276.144
   11     1    12     1    107.800    276.144
    6     5    20     1    109.500    292.880
    7     6     8     1    123.400    694.544
   10     1    12     1    107.800    276.144
   10     1    11     1    107.800    276.144
    3     2    13     1    110.700    313.800
    4     3    16     1    110.700    313.800
    5     4    18     1    110.700    313.800
    4     3    15     1    110.700    313.800
    5     4    17     1    110.700    313.800

[ dihedrals ]
; IMPROPER DIHEDRAL ANGLES 
;  ai    aj    ak    al funct            c0            c1            c2            c3            c4            c5
     8     6     5     7    4        180.000     43.932     2  

[ dihedrals ]
; PROPER DIHEDRAL ANGLES
;  ai    aj    ak    al funct            c0            c1            c2            c3            c4            c5
    6    5    4    3        3      -4.960   6.286   1.310  -2.636  -0.000   0.000
    4    3    2    1        3       2.301  -1.464   0.837  -1.674  -0.000   0.000
    5    4    3    2        3       2.301  -1.464   0.837  -1.674  -0.000   0.000
    9    8    6    5        3      31.206  -9.768  -21.439  -0.000  -0.000   0.000
    9    8    6    7        3      21.439   0.000  -21.439  -0.000  -0.000   0.000
   20    5    6    7        3       0.000   0.000   0.000  -0.000  -0.000   0.000
   19    5    6    7        3       0.000   0.000   0.000  -0.000  -0.000   0.000
   20    5    6    8        3       0.276   0.828   0.000  -1.105  -0.000   0.000
   19    5    6    8        3       0.276   0.828   0.000  -1.105  -0.000   0.000
   18    4    5    6        3      -0.209  -0.628   0.000   0.837  -0.000   0.000
   17    4    5    6        3      -0.209  -0.628   0.000   0.837  -0.000   0.000
   10    1    2    3        3       0.628   1.883   0.000  -2.510  -0.000   0.000
   19    5    4    3        3       0.628   1.883   0.000  -2.510  -0.000   0.000
   16    3    2    1        3       0.628   1.883   0.000  -2.510  -0.000   0.000
   20    5    4    3        3       0.628   1.883   0.000  -2.510  -0.000   0.000
   14    2    3    4        3       0.628   1.883   0.000  -2.510  -0.000   0.000
   16    3    4    5        3       0.628   1.883   0.000  -2.510  -0.000   0.000
   13    2    3    4        3       0.628   1.883   0.000  -2.510  -0.000   0.000
   11    1    2    3        3       0.628   1.883   0.000  -2.510  -0.000   0.000
   12    1    2    3        3       0.628   1.883   0.000  -2.510  -0.000   0.000
   15    3    2    1        3       0.628   1.883   0.000  -2.510  -0.000   0.000
   17    4    3    2        3       0.628   1.883   0.000  -2.510  -0.000   0.000
   15    3    4    5        3       0.628   1.883   0.000  -2.510  -0.000   0.000
   18    4    3    2        3       0.628   1.883   0.000  -2.510  -0.000   0.000
   16    3    2   14        3       0.628   1.883   0.000  -2.510  -0.000   0.000
   13    2    1   10        3       0.628   1.883   0.000  -2.510  -0.000   0.000
   13    2    1   11        3       0.628   1.883   0.000  -2.510  -0.000   0.000
   15    3    2   13        3       0.628   1.883   0.000  -2.510  -0.000   0.000
   17    4    3   16        3       0.628   1.883   0.000  -2.510  -0.000   0.000
   14    2    1   10        3       0.628   1.883   0.000  -2.510  -0.000   0.000
   19    5    4   17        3       0.628   1.883   0.000  -2.510  -0.000   0.000
   13    2    1   12        3       0.628   1.883   0.000  -2.510  -0.000   0.000
   18    4    3   15        3       0.628   1.883   0.000  -2.510  -0.000   0.000
   18    4    3   16        3       0.628   1.883   0.000  -2.510  -0.000   0.000
   20    5    4   17        3       0.628   1.883   0.000  -2.510  -0.000   0.000
   20    5    4   18        3       0.628   1.883   0.000  -2.510  -0.000   0.000
   15    3    2   14        3       0.628   1.883   0.000  -2.510  -0.000   0.000
   19    5    4   18        3       0.628   1.883   0.000  -2.510  -0.000   0.000
   14    2    1   12        3       0.628   1.883   0.000  -2.510  -0.000   0.000
   16    3    2   13        3       0.628   1.883   0.000  -2.510  -0.000   0.000
   17    4    3   15        3       0.628   1.883   0.000  -2.510  -0.000   0.000
   14    2    1   11        3       0.628   1.883   0.000  -2.510  -0.000   0.000
   23    9    8    6        3       0.414   1.243   0.000  -1.657  -0.000   0.000
   21    9    8    6        3       0.414   1.243   0.000  -1.657  -0.000   0.000
   22    9    8    6        3       0.414   1.243   0.000  -1.657  -0.000   0.000
    7    6    5    4        3       0.000   0.000   0.000  -0.000  -0.000   0.000
    8    6    5    4        3      -1.157  -3.471   0.000   4.628  -0.000   0.000

[ pairs ]
     1     4    1
     2     5    1
     3     6    1
     4     7    1
     4     8    1
     3    10    1
     5     9    1
     3    11    1
     3    12    1
     7     9    1
     1    15    1
     4    13    1
     1    16    1
     4    14    1
     2    17    1
     5    15    1
     2    18    1
     5    16    1
     3    19    1
    10    13    1
     6    17    1
     3    20    1
    11    13    1
    10    14    1
     6    18    1
    12    13    1
    11    14    1
    12    14    1
     7    19    1
     8    19    1
     7    20    1
     6    21    1
    13    15    1
     8    20    1
     6    22    1
    14    15    1
    13    16    1
     6    23    1
    14    16    1
    15    17    1
    16    17    1
    15    18    1
    16    18    1
    17    19    1
    18    19    1
    17    20    1
    18    20    1

