LIGPARGEN GENERATED GRO FILE
   27
    1UNK    C00    1   0.100   0.100   0.000
    1UNK    C01    2  -0.053   0.100   0.000
    1UNK    C02    3  -0.113   0.100   0.142
    1UNK    O03    4  -0.125  -0.030   0.199
    1UNK    C04    5  -0.197  -0.123   0.119
    1UNK    C05    6  -0.123  -0.148  -0.013
    1UNK    C06    7  -0.112  -0.013  -0.086
    1UNK    C07    8  -0.205  -0.245  -0.095
    1UNK    O08    9  -0.313  -0.221  -0.145
    1UNK    O09   10  -0.142  -0.365  -0.105
    1UNK    C0A   11  -0.022  -0.365  -0.029
    1UNK    C0B   12   0.011  -0.221  -0.002
    1UNK    C0C   13   0.073  -0.208   0.136
    1UNK    N0D   14   0.124  -0.197   0.251
    1UNK    H0E   15   0.138   0.195   0.039
    1UNK    H0F   16   0.139   0.088  -0.102
    1UNK    H0G   17   0.143   0.022   0.062
    1UNK    H0H   18  -0.081   0.195  -0.047
    1UNK    H0I   19  -0.213   0.145   0.141
    1UNK    H0J   20  -0.051   0.160   0.209
    1UNK    H0K   21  -0.299  -0.086   0.103
    1UNK    H0M   22  -0.207  -0.216   0.176
    1UNK    H0N   23  -0.213   0.019  -0.115
    1UNK    H0O   24  -0.057  -0.023  -0.180
    1UNK    H0P   25   0.057  -0.413  -0.087
    1UNK    H0Q   26  -0.038  -0.424   0.062
    1UNK    H0R   27   0.082  -0.185  -0.078
   1.00000   1.00000   1.00000

