LIGPARGEN GENERATED GRO FILE
   25
    1UNK    C00    1   0.100   0.100   0.000
    1UNK    C01    2  -0.052   0.100   0.000
    1UNK    C02    3  -0.107   0.100   0.143
    1UNK    P03    4  -0.292   0.108   0.149
    1UNK    C04    5  -0.335  -0.052   0.069
    1UNK    C05    6  -0.322   0.061   0.325
    1UNK    C06    7  -0.267   0.164   0.424
    1UNK    C07    8  -0.293   0.122   0.568
    1UNK    H08    9   0.138   0.100  -0.103
    1UNK    H09   10   0.139   0.011   0.051
    1UNK    H0A   11   0.139   0.189   0.051
    1UNK    H0B   12  -0.087   0.011  -0.055
    1UNK    H0C   13  -0.088   0.188  -0.055
    1UNK    H0D   14  -0.068   0.188   0.196
    1UNK    H0E   15  -0.072   0.011   0.196
    1UNK    H0F   16  -0.315  -0.048  -0.039
    1UNK    H0G   17  -0.442  -0.073   0.081
    1UNK    H0H   18  -0.278  -0.135   0.112
    1UNK    H0I   19  -0.276  -0.037   0.345
    1UNK    H0J   20  -0.430   0.050   0.340
    1UNK    H0K   21  -0.312   0.262   0.406
    1UNK    H0M   22  -0.159   0.175   0.411
    1UNK    H0N   23  -0.401   0.115   0.588
    1UNK    H0O   24  -0.251   0.196   0.637
    1UNK    H0P   25  -0.247   0.025   0.590
   1.00000   1.00000   1.00000

