LIGPARGEN GENERATED GRO FILE
   33
    1UNK    C00    1   0.100   0.100   0.000
    1UNK    O01    2  -0.043   0.100   0.000
    1UNK    C02    3  -0.099   0.100   0.124
    1UNK    O03    4  -0.037   0.096   0.230
    1UNK    C04    5  -0.250   0.106   0.111
    1UNK    C05    6  -0.324   0.165   0.233
    1UNK    C06    7  -0.280   0.308   0.271
    1UNK    C07    8  -0.289   0.413   0.159
    1UNK    C08    9  -0.431   0.440   0.110
    1UNK    C09   10  -0.228   0.545   0.209
    1UNK    C0A   11  -0.479   0.138   0.228
    1UNK    C0B   12  -0.472   0.091   0.374
    1UNK    C0C   13  -0.322   0.068   0.356
    1UNK    H0D   14   0.134   0.075  -0.101
    1UNK    H0E   15   0.140   0.025   0.069
    1UNK    H0F   16   0.137   0.200   0.025
    1UNK    H0G   17  -0.283   0.003   0.092
    1UNK    H0H   18  -0.275   0.165   0.022
    1UNK    H0I   19  -0.176   0.304   0.306
    1UNK    H0J   20  -0.339   0.343   0.357
    1UNK    H0K   21  -0.229   0.381   0.073
    1UNK    H0M   22  -0.499   0.458   0.194
    1UNK    H0N   23  -0.469   0.355   0.052
    1UNK    H0O   24  -0.435   0.527   0.045
    1UNK    H0P   25  -0.283   0.584   0.295
    1UNK    H0Q   26  -0.231   0.622   0.130
    1UNK    H0R   27  -0.124   0.531   0.238
    1UNK    H0S   28  -0.509   0.059   0.158
    1UNK    H0T   29  -0.545   0.223   0.213
    1UNK    H0U   30  -0.532   0.002   0.397
    1UNK    H0V   31  -0.497   0.169   0.446
    1UNK    H0W   32  -0.297  -0.036   0.333
    1UNK    H0X   33  -0.260   0.099   0.441
   1.00000   1.00000   1.00000

