LIGPARGEN GENERATED GRO FILE
   43
    1UNK    C00    1   0.100   0.100   0.000
    1UNK    C01    2  -0.052   0.100   0.000
    1UNK    C02    3  -0.125   0.100   0.138
    1UNK    C03    4  -0.102   0.229   0.221
    1UNK    C04    5   0.042   0.256   0.263
    1UNK    C05    6  -0.281   0.069   0.120
    1UNK    C06    7  -0.349   0.177   0.034
    1UNK    C07    8  -0.285  -0.068   0.052
    1UNK    O08    9  -0.327  -0.089  -0.061
    1UNK    O09   10  -0.344   0.059   0.250
    1UNK    C0A   11  -0.488   0.044   0.259
    1UNK    C0B   12  -0.536  -0.088   0.198
    1UNK    C0C   13  -0.533   0.056   0.409
    1UNK    C0D   14  -0.466  -0.049   0.498
    1UNK    C0E   15  -0.501   0.196   0.464
    1UNK    C0F   16  -0.686   0.043   0.416
    1UNK    O0G   17  -0.745  -0.046   0.475
    1UNK    H0H   18   0.137   0.060  -0.095
    1UNK    H0I   19   0.141   0.039   0.080
    1UNK    H0J   20   0.140   0.202   0.007
    1UNK    H0K   21  -0.080   0.009  -0.055
    1UNK    H0M   22  -0.086   0.184  -0.061
    1UNK    H0N   23  -0.083   0.017   0.197
    1UNK    H0O   24  -0.161   0.221   0.314
    1UNK    H0P   25  -0.140   0.316   0.167
    1UNK    H0Q   26   0.093   0.165   0.295
    1UNK    H0R   27   0.044   0.327   0.347
    1UNK    H0S   28   0.099   0.303   0.182
    1UNK    H0T   29  -0.300   0.191  -0.063
    1UNK    H0U   30  -0.352   0.273   0.086
    1UNK    H0V   31  -0.453   0.150   0.011
    1UNK    H0W   32  -0.247  -0.152   0.114
    1UNK    H0X   33  -0.535   0.126   0.205
    1UNK    H0Y   34  -0.472  -0.172   0.228
    1UNK    H0Z   35  -0.535  -0.083   0.089
    1UNK    H10   36  -0.639  -0.113   0.225
    1UNK    H11   37  -0.358  -0.037   0.500
    1UNK    H12   38  -0.489  -0.151   0.465
    1UNK    H13   39  -0.503  -0.041   0.602
    1UNK    H14   40  -0.394   0.215   0.466
    1UNK    H15   41  -0.540   0.207   0.566
    1UNK    H16   42  -0.549   0.274   0.403
    1UNK    H17   43  -0.742   0.121   0.362
   1.00000   1.00000   1.00000

