LIGPARGEN GENERATED GRO FILE
   39
    1UNK    C00    1   0.100   0.100   0.000
    1UNK    C01    2  -0.052   0.100   0.000
    1UNK    C02    3  -0.126   0.100   0.137
    1UNK    C03    4  -0.279   0.106   0.124
    1UNK    C04    5  -0.333   0.217   0.034
    1UNK    C05    6  -0.334  -0.033   0.089
    1UNK    C06    7  -0.350  -0.121   0.214
    1UNK    C07    8  -0.295  -0.060   0.342
    1UNK    O08    9  -0.372  -0.019   0.429
    1UNK    C09   10  -0.144  -0.055   0.364
    1UNK    C0A   11  -0.095  -0.197   0.403
    1UNK    C0B   12  -0.201  -0.298   0.362
    1UNK    O0C   13  -0.238  -0.386   0.439
    1UNK    S0D   14  -0.282  -0.285   0.199
    1UNK    O0E   15  -0.171  -0.285   0.105
    1UNK    O0F   16  -0.389  -0.382   0.192
    1UNK    C0G   17  -0.067   0.015   0.253
    1UNK    C0H   18  -0.056   0.167   0.253
    1UNK    C0I   19  -0.128   0.256   0.349
    1UNK    H0J   20   0.137   0.095  -0.103
    1UNK    H0K   21   0.142   0.014   0.053
    1UNK    H0M   22   0.140   0.192   0.044
    1UNK    H0N   23  -0.086   0.013  -0.058
    1UNK    H0O   24  -0.082   0.189  -0.056
    1UNK    H0P   25  -0.323   0.135   0.220
    1UNK    H0Q   26  -0.287   0.222  -0.065
    1UNK    H0R   27  -0.319   0.315   0.083
    1UNK    H0S   28  -0.441   0.206   0.019
    1UNK    H0T   29  -0.272  -0.081   0.013
    1UNK    H0U   30  -0.433  -0.024   0.043
    1UNK    H0V   31  -0.457  -0.137   0.232
    1UNK    H0W   32  -0.127   0.006   0.454
    1UNK    H0X   33  -0.083  -0.204   0.511
    1UNK    H0Y   34  -0.000  -0.225   0.356
    1UNK    H0Z   35   0.027  -0.037   0.234
    1UNK    H10   36   0.044   0.208   0.237
    1UNK    H11   37  -0.225   0.217   0.382
    1UNK    H12   38  -0.146   0.354   0.302
    1UNK    H13   39  -0.068   0.272   0.438
   1.00000   1.00000   1.00000

