LIGPARGEN GENERATED GRO FILE
   42
    1UNK    C00    1   0.100   0.100   0.000
    1UNK    C01    2  -0.052   0.100   0.000
    1UNK    C02    3  -0.107   0.100   0.143
    1UNK    C03    4  -0.261   0.100   0.150
    1UNK    C04    5  -0.322  -0.024   0.084
    1UNK    C05    6  -0.301   0.111   0.299
    1UNK    C06    7  -0.452   0.112   0.321
    1UNK    C07    8  -0.486   0.130   0.468
    1UNK    C08    9  -0.638   0.130   0.485
    1UNK    C09   10  -0.685   0.134   0.631
    1UNK    C0A   11  -0.639   0.262   0.702
    1UNK    C0B   12  -0.839   0.123   0.638
    1UNK    C0C   13  -0.889  -0.009   0.581
    1UNK    C0D   14  -1.040  -0.020   0.587
    1UNK    N0E   15  -1.166  -0.029   0.593
    1UNK    H0F   16   0.138   0.100  -0.103
    1UNK    H0G   17   0.139   0.011   0.051
    1UNK    H0H   18   0.139   0.189   0.051
    1UNK    H0I   19  -0.086   0.011  -0.054
    1UNK    H0J   20  -0.089   0.188  -0.054
    1UNK    H0K   21  -0.069   0.189   0.195
    1UNK    H0M   22  -0.068   0.013   0.197
    1UNK    H0N   23  -0.298   0.189   0.098
    1UNK    H0O   24  -0.290  -0.115   0.135
    1UNK    H0P   25  -0.292  -0.032  -0.021
    1UNK    H0Q   26  -0.431  -0.020   0.085
    1UNK    H0R   27  -0.259   0.203   0.341
    1UNK    H0S   28  -0.257   0.028   0.355
    1UNK    H0T   29  -0.496   0.018   0.286
    1UNK    H0U   30  -0.497   0.194   0.262
    1UNK    H0V   31  -0.443   0.223   0.505
    1UNK    H0W   32  -0.443   0.047   0.526
    1UNK    H0X   33  -0.674   0.039   0.437
    1UNK    H0Y   34  -0.681   0.215   0.430
    1UNK    H0Z   35  -0.642   0.049   0.685
    1UNK    H10   36  -0.676   0.351   0.650
    1UNK    H11   37  -0.530   0.268   0.707
    1UNK    H12   38  -0.676   0.265   0.805
    1UNK    H13   39  -0.885   0.207   0.585
    1UNK    H14   40  -0.871   0.132   0.743
    1UNK    H15   41  -0.845  -0.093   0.635
    1UNK    H16   42  -0.863  -0.020   0.475
   1.00000   1.00000   1.00000

