LIGPARGEN GENERATED GRO FILE
   34
    1UNK    C00    1   0.100   0.100   0.000
    1UNK    C01    2  -0.052   0.100   0.000
    1UNK    C02    3  -0.119   0.100   0.138
    1UNK    N03    4  -0.074   0.204   0.231
    1UNK    C04    5  -0.105   0.346   0.201
    1UNK    C05    6  -0.238   0.407   0.256
    1UNK    C06    7  -0.362   0.348   0.186
    1UNK    O07    8  -0.253   0.382   0.396
    1UNK    C08    9  -0.310   0.493   0.452
    1UNK    O09   10  -0.358   0.498   0.565
    1UNK    O0A   11  -0.308   0.598   0.366
    1UNK    C0B   12  -0.232   0.559   0.254
    1UNK    C0C   13  -0.293   0.630   0.135
    1UNK    O0D   14  -0.294   0.586   0.021
    1UNK    C0E   15   0.003   0.179   0.346
    1UNK    C0F   16   0.058   0.040   0.372
    1UNK    O0G   17   0.031   0.269   0.425
    1UNK    H0H   18   0.137   0.085  -0.102
    1UNK    H0I   19   0.141   0.019   0.062
    1UNK    H0J   20   0.140   0.196   0.035
    1UNK    H0K   21  -0.086   0.011  -0.054
    1UNK    H0M   22  -0.087   0.186  -0.058
    1UNK    H0N   23  -0.109   0.001   0.182
    1UNK    H0O   24  -0.227   0.113   0.124
    1UNK    H0P   25  -0.099   0.360   0.093
    1UNK    H0Q   26  -0.023   0.404   0.243
    1UNK    H0R   27  -0.378   0.244   0.216
    1UNK    H0S   28  -0.354   0.352   0.077
    1UNK    H0T   29  -0.453   0.401   0.216
    1UNK    H0U   30  -0.130   0.599   0.268
    1UNK    H0V   31  -0.328   0.734   0.155
    1UNK    H0W   32   0.038  -0.035   0.296
    1UNK    H0X   33   0.019   0.004   0.468
    1UNK    H0Y   34   0.167   0.049   0.380
   1.00000   1.00000   1.00000

