LIGPARGEN GENERATED GRO FILE
   37
    1UNK    C00    1   0.100   0.100   0.000
    1UNK    C01    2  -0.052   0.100   0.000
    1UNK    C02    3  -0.107   0.100   0.140
    1UNK    C03    4  -0.256   0.094   0.161
    1UNK    C04    5  -0.170  -0.025   0.198
    1UNK    C05    6  -0.150  -0.068   0.341
    1UNK    C06    7  -0.275  -0.106   0.424
    1UNK    C07    8  -0.188  -0.213   0.496
    1UNK    C08    9  -0.120  -0.175   0.628
    1UNK    C09   10  -0.220  -0.140   0.739
    1UNK    C0A   11  -0.314  -0.256   0.772
    1UNK    C0B   12  -0.145  -0.096   0.865
    1UNK    C0C   13  -0.096  -0.210   0.371
    1UNK    H0D   14   0.138   0.100  -0.103
    1UNK    H0E   15   0.139   0.012   0.051
    1UNK    H0F   16   0.139   0.189   0.051
    1UNK    H0G   17  -0.088   0.013  -0.056
    1UNK    H0H   18  -0.088   0.189  -0.052
    1UNK    H0I   19  -0.052   0.167   0.205
    1UNK    H0J   20  -0.320   0.085   0.074
    1UNK    H0K   21  -0.298   0.154   0.241
    1UNK    H0M   22  -0.180  -0.112   0.134
    1UNK    H0N   23  -0.090   0.009   0.394
    1UNK    H0O   24  -0.356  -0.150   0.365
    1UNK    H0P   25  -0.316  -0.026   0.486
    1UNK    H0Q   26  -0.239  -0.310   0.507
    1UNK    H0R   27  -0.054  -0.089   0.612
    1UNK    H0S   28  -0.055  -0.258   0.660
    1UNK    H0T   29  -0.282  -0.055   0.707
    1UNK    H0U   30  -0.258  -0.346   0.798
    1UNK    H0V   31  -0.379  -0.279   0.688
    1UNK    H0W   32  -0.378  -0.231   0.857
    1UNK    H0X   33  -0.082  -0.177   0.904
    1UNK    H0Y   34  -0.215  -0.067   0.944
    1UNK    H0Z   35  -0.080  -0.011   0.844
    1UNK    H10   36  -0.123  -0.285   0.296
    1UNK    H11   37   0.011  -0.217   0.390
   1.00000   1.00000   1.00000

