LIGPARGEN GENERATED GRO FILE
   30
    1UNK    C00    1   0.100   0.100   0.000
    1UNK    C01    2  -0.053   0.100   0.000
    1UNK    C02    3  -0.110   0.100   0.143
    1UNK    C03    4  -0.091   0.234   0.213
    1UNK    C04    5  -0.149   0.350   0.132
    1UNK    C05    6  -0.093   0.354  -0.012
    1UNK    C06    7  -0.151   0.471  -0.098
    1UNK    C07    8  -0.303   0.464  -0.117
    1UNK    C08    9  -0.115   0.611  -0.043
    1UNK    Cl0   10   0.060   0.640  -0.039
    1UNK    C0A   11  -0.111   0.217  -0.081
    1UNK    H0B   12   0.138   0.013   0.055
    1UNK    H0C   13   0.142   0.190   0.046
    1UNK    H0D   14   0.138   0.094  -0.102
    1UNK    H0E   15  -0.085   0.007  -0.049
    1UNK    H0F   16  -0.064   0.020   0.202
    1UNK    H0G   17  -0.217   0.078   0.138
    1UNK    H0H   18   0.015   0.252   0.232
    1UNK    H0I   19  -0.140   0.230   0.311
    1UNK    H0J   20  -0.126   0.443   0.184
    1UNK    H0K   21  -0.258   0.339   0.130
    1UNK    H0M   22   0.015   0.369  -0.004
    1UNK    H0N   23  -0.106   0.463  -0.198
    1UNK    H0O   24  -0.356   0.470  -0.021
    1UNK    H0P   25  -0.333   0.372  -0.167
    1UNK    H0Q   26  -0.338   0.547  -0.179
    1UNK    H0R   27  -0.154   0.626   0.058
    1UNK    H0S   28  -0.158   0.689  -0.107
    1UNK    H0T   29  -0.065   0.220  -0.180
    1UNK    H0U   30  -0.218   0.197  -0.096
   1.00000   1.00000   1.00000

