
;
; GENERATED BY LigParGen Server
; Jorgensen Lab @ Yale University 
;
[ atomtypes ]
  opls_818  H818     1.0080     0.000    A    2.50000E-01   1.25520E-01
  opls_824  H824     1.0080     0.000    A    2.50000E-01   1.25520E-01
  opls_815  C815    12.0110     0.000    A    3.50000E-01   2.76144E-01
  opls_805  O805    15.9990     0.000    A    2.96000E-01   8.78640E-01
  opls_834  H834     1.0080     0.000    A    2.50000E-01   1.25520E-01
  opls_828  H828     1.0080     0.000    A    2.50000E-01   1.25520E-01
  opls_803  C803    12.0110     0.000    A    3.45000E-01   3.47272E-01
  opls_802  C802    12.0110     0.000    A    3.50000E-01   2.76144E-01
  opls_827  H827     1.0080     0.000    A    2.50000E-01   1.25520E-01
  opls_809  C809    12.0110     0.000    A    3.50000E-01   2.76144E-01
  opls_822  H822     1.0080     0.000    A    2.50000E-01   1.25520E-01
  opls_807  C807    12.0110     0.000    A    3.50000E-01   2.76144E-01
  opls_813  N813    14.0070     0.000    A    3.20000E-01   7.11280E-01
  opls_825  H825     1.0080     0.000    A    2.50000E-01   1.25520E-01
  opls_826  H826     1.0080     0.000    A    2.50000E-01   1.25520E-01
  opls_830  H830     1.0080     0.000    A    2.50000E-01   1.25520E-01
  opls_821  H821     1.0080     0.000    A    2.50000E-01   1.25520E-01
  opls_820  H820     1.0080     0.000    A    2.50000E-01   1.25520E-01
  opls_829  H829     1.0080     0.000    A    2.50000E-01   1.25520E-01
  opls_831  H831     1.0080     0.000    A    2.50000E-01   1.25520E-01
  opls_832  H832     1.0080     0.000    A    2.50000E-01   1.25520E-01
  opls_816  H816     1.0080     0.000    A    2.50000E-01   1.25520E-01
  opls_800  C800    12.0110     0.000    A    3.50000E-01   2.76144E-01
  opls_814  C814    12.0110     0.000    A    3.45000E-01   3.47272E-01
  opls_811  C811    12.0110     0.000    A    3.50000E-01   2.76144E-01
  opls_823  H823     1.0080     0.000    A    2.50000E-01   1.25520E-01
  opls_806  C806    12.0110     0.000    A    3.45000E-01   3.47272E-01
  opls_819  H819     1.0080     0.000    A    2.50000E-01   1.25520E-01
  opls_810  C810    12.0110     0.000    A    3.50000E-01   2.76144E-01
  opls_833  H833     1.0080     0.000    A    2.50000E-01   1.25520E-01
  opls_804  C804    12.0110     0.000    A    3.75000E-01   4.39320E-01
  opls_801  C801    12.0110     0.000    A    3.50000E-01   2.76144E-01
  opls_808  C808    12.0110     0.000    A    3.50000E-01   2.76144E-01
  opls_817  H817     1.0080     0.000    A    2.50000E-01   1.25520E-01
  opls_812  C812    12.0110     0.000    A    3.30000E-01   2.76144E-01
[ moleculetype ]
; Name               nrexcl
UNK                   3
[ atoms ]
;   nr       type  resnr residue  atom   cgnr     charge       mass  
     1   opls_800      1    UNK   C00      1    -0.2381    12.0110 
     2   opls_801      1    UNK   C01      1    -0.1836    12.0110 
     3   opls_802      1    UNK   C02      1    -0.1454    12.0110 
     4   opls_803      1    UNK   C03      1    -0.1858    12.0110 
     5   opls_804      1    UNK   C04      1     0.3349    12.0110 
     6   opls_805      1    UNK   O05      1    -0.3621    15.9990 
     7   opls_806      1    UNK   C06      1      -0.23    12.0110 
     8   opls_807      1    UNK   C07      1    -0.0731    12.0110 
     9   opls_808      1    UNK   C08      1    -0.2059    12.0110 
    10   opls_809      1    UNK   C09      1    -0.1101    12.0110 
    11   opls_810      1    UNK   C0A      1    -0.1733    12.0110 
    12   opls_811      1    UNK   C0B      1     0.0197    12.0110 
    13   opls_812      1    UNK   C0C      1     0.1198    12.0110 
    14   opls_813      1    UNK   N0D      1    -0.3911    14.0070 
    15   opls_814      1    UNK   C0E      1    -0.0297    12.0110 
    16   opls_815      1    UNK   C0F      1     -0.223    12.0110 
    17   opls_816      1    UNK   H0G      1     0.0812     1.0080 
    18   opls_817      1    UNK   H0H      1     0.0812     1.0080 
    19   opls_818      1    UNK   H0I      1     0.0812     1.0080 
    20   opls_819      1    UNK   H0J      1     0.0993     1.0080 
    21   opls_820      1    UNK   H0K      1     0.0993     1.0080 
    22   opls_821      1    UNK   H0M      1     0.0978     1.0080 
    23   opls_822      1    UNK   H0N      1     0.0978     1.0080 
    24   opls_823      1    UNK   H0O      1     0.1164     1.0080 
    25   opls_824      1    UNK   H0P      1     0.1467     1.0080 
    26   opls_825      1    UNK   H0Q      1     0.1413     1.0080 
    27   opls_826      1    UNK   H0R      1     0.1179     1.0080 
    28   opls_827      1    UNK   H0S      1     0.1179     1.0080 
    29   opls_828      1    UNK   H0T      1     0.1285     1.0080 
    30   opls_829      1    UNK   H0U      1      0.119     1.0080 
    31   opls_830      1    UNK   H0V      1      0.119     1.0080 
    32   opls_831      1    UNK   H0W      1     0.1422     1.0080 
    33   opls_832      1    UNK   H0X      2     0.0967     1.0080 
    34   opls_833      1    UNK   H0Y      2     0.0967     1.0080 
    35   opls_834      1    UNK   H0Z      2     0.0967     1.0080 
[ bonds ]
    2     1     1      0.1529 224262.400
    3     2     1      0.1529 224262.400
    4     3     1      0.1510 234304.000
    5     4     1      0.1522 265265.600
    6     5     1      0.1229 476976.000
    7     5     1      0.1522 265265.600
    8     7     1      0.1510 234304.000
    9     8     1      0.1529 224262.400
   10     9     1      0.1529 224262.400
   11    10     1      0.1529 224262.400
   12     8     1      0.1529 224262.400
   13    12     1      0.1470 326352.000
   14    13     1      0.1157 543920.000
   15     4     1      0.1520 217568.000
   16    15     1      0.1510 234304.000
   17     1     1      0.1090 284512.000
   18     1     1      0.1090 284512.000
   19     1     1      0.1090 284512.000
   20     2     1      0.1090 284512.000
   21     2     1      0.1090 284512.000
   22     3     1      0.1090 284512.000
   23     3     1      0.1090 284512.000
   24     4     1      0.1088 284512.000
   25     7     1      0.1088 284512.000
   26     8     1      0.1090 284512.000
   27     9     1      0.1090 284512.000
   28     9     1      0.1090 284512.000
   29    10     1      0.1090 284512.000
   30    11     1      0.1090 284512.000
   31    11     1      0.1090 284512.000
   32    12     1      0.1090 284512.000
   33    16     1      0.1090 284512.000
   34    16     1      0.1090 284512.000
   35    16     1      0.1090 284512.000
   15     7     1      0.1520 217568.000
   15    10     1      0.1510 234304.000
   12    11     1      0.1529 224262.400

[ angles ]
;  ai    aj    ak funct            c0            c1            c2            c3 
    1     2     3     1    112.700    488.273
    2     3     4     1    112.700    488.273
    3     4     5     1    111.100    527.184
    4     5     6     1    134.000    669.440
    4     5     7     1    116.000    585.760
    5     7     8     1    111.100    527.184
    7     8     9     1    112.700    488.273
    8     9    10     1    112.700    488.273
    9    10    11     1    112.700    488.273
    7     8    12     1    112.700    488.273
    8    12    13     1    112.700    488.273
   12    13    14     1    180.000   1255.200
    3     4    15     1    117.200    313.800
    4    15    16     1    117.200    313.800
    2     1    17     1    110.700    313.800
    2     1    18     1    110.700    313.800
    2     1    19     1    110.700    313.800
    1     2    20     1    110.700    313.800
    1     2    21     1    110.700    313.800
    2     3    22     1    110.700    313.800
    2     3    23     1    110.700    313.800
    3     4    24     1    114.300    292.880
    5     7    25     1    110.000    313.800
    7     8    26     1    110.700    313.800
    8     9    27     1    110.700    313.800
    8     9    28     1    110.700    313.800
    9    10    29     1    110.700    313.800
   10    11    30     1    110.700    313.800
   10    11    31     1    110.700    313.800
    8    12    32     1    110.700    313.800
   15    16    33     1    110.700    313.800
   15    16    34     1    110.700    313.800
   15    16    35     1    110.700    313.800
   10     9    27     1    110.700    313.800
    7    15    10     1    117.200    313.800
    4    15    10     1    117.200    313.800
    3     2    20     1    110.700    313.800
   11    10    15     1    112.700    488.273
   11    12    13     1    112.700    488.273
   10     9    28     1    110.700    313.800
    3     2    21     1    110.700    313.800
    9     8    12     1    112.700    488.273
    8     7    15     1    117.200    313.800
    5     7    15     1     85.000    527.184
    5     4    24     1    110.000    313.800
    8    12    11     1    112.700    488.273
   11    10    29     1    110.700    313.800
    8     7    25     1    114.300    292.880
    4     3    22     1    110.700    313.800
    4    15     7     1     83.000    251.040
   34    16    35     1    107.800    276.144
   10    15    16     1    114.300    292.880
   22     3    23     1    107.800    276.144
    4     3    23     1    110.700    313.800
   33    16    34     1    107.800    276.144
   33    16    35     1    107.800    276.144
   18     1    19     1    107.800    276.144
   12    11    30     1    110.700    313.800
   15     7    25     1    117.200    313.800
   12    11    31     1    110.700    313.800
   17     1    19     1    107.800    276.144
   12     8    26     1    110.700    313.800
    6     5     7     1    134.000    669.440
   15     4    24     1    117.200    313.800
   10    11    12     1    112.700    488.273
    5     4    15     1     85.000    527.184
    7    15    16     1    117.200    313.800
    9    10    15     1    112.700    488.273
   27     9    28     1    107.800    276.144
   30    11    31     1    107.800    276.144
   20     2    21     1    107.800    276.144
   11    12    32     1    110.700    313.800
   17     1    18     1    107.800    276.144
    9     8    26     1    110.700    313.800
   13    12    32     1    108.500    292.880
   15    10    29     1    110.700    313.800

[ dihedrals ]
; IMPROPER DIHEDRAL ANGLES 
;  ai    aj    ak    al funct            c0            c1            c2            c3            c4            c5
     7     5     4     6    4        180.000     10.460     2  

[ dihedrals ]
; PROPER DIHEDRAL ANGLES
;  ai    aj    ak    al funct            c0            c1            c2            c3            c4            c5
    5    4    3    2        3       2.301  -1.464   0.837  -1.674  -0.000   0.000
   12    8    9   10        3       2.301  -1.464   0.837  -1.674  -0.000   0.000
   10   11   12    8        3       2.301  -1.464   0.837  -1.674  -0.000   0.000
   11   12    8    9        3       2.301  -1.464   0.837  -1.674  -0.000   0.000
   11   10    9    8        3       2.301  -1.464   0.837  -1.674  -0.000   0.000
   12   11   10    9        3       2.301  -1.464   0.837  -1.674  -0.000   0.000
   10    9    8    7        3       2.301  -1.464   0.837  -1.674  -0.000   0.000
   11   12    8    7        3       2.301  -1.464   0.837  -1.674  -0.000   0.000
    9    8    7    5        3       2.301  -1.464   0.837  -1.674  -0.000   0.000
   12    8    7    5        3       2.301  -1.464   0.837  -1.674  -0.000   0.000
    9   10   15    7        3       0.000   0.000   0.000  -0.000  -0.000   0.000
   11   10   15    4        3       0.000   0.000   0.000  -0.000  -0.000   0.000
    9   10   15    4        3       0.000   0.000   0.000  -0.000  -0.000   0.000
   11   10   15    7        3       0.000   0.000   0.000  -0.000  -0.000   0.000
    8    7    5    4        3       0.000   0.000   0.000  -0.000  -0.000   0.000
    8    7    5    6        3       0.000   0.000   0.000  -0.000  -0.000   0.000
   16   15   10    9        3       2.301  -1.464   0.837  -1.674  -0.000   0.000
   16   15   10   11        3       2.301  -1.464   0.837  -1.674  -0.000   0.000
   16   15    7    5        3       0.000   0.000   0.000  -0.000  -0.000   0.000
   10   15    4    5        3       0.000   0.000   0.000  -0.000  -0.000   0.000
   16   15    4    5        3       0.000   0.000   0.000  -0.000  -0.000   0.000
   10   15    7    5        3       0.000   0.000   0.000  -0.000  -0.000   0.000
   10   15    4    3        3       0.000   0.000   0.000  -0.000  -0.000   0.000
   10   15    7    8        3       0.000   0.000   0.000  -0.000  -0.000   0.000
   16   15    4    3        3       0.000   0.000   0.000  -0.000  -0.000   0.000
   16   15    7    8        3       0.000   0.000   0.000  -0.000  -0.000   0.000
    8    7   15    4        3       0.000   0.000   0.000  -0.000  -0.000   0.000
    7    5    4    3        3       0.000   0.000   0.000  -0.000  -0.000   0.000
   15   10    9    8        3       2.301  -1.464   0.837  -1.674  -0.000   0.000
   15   10   11   12        3       2.301  -1.464   0.837  -1.674  -0.000   0.000
    4    3    2    1        3       2.301  -1.464   0.837  -1.674  -0.000   0.000
   15    7    5    6        3       0.000   0.000   0.000  -0.000  -0.000   0.000
   15    4    5    6        3       0.000   0.000   0.000  -0.000  -0.000   0.000
   15    7    8    9        3       0.000   0.000   0.000  -0.000  -0.000   0.000
   15    4    3    2        3       0.000   0.000   0.000  -0.000  -0.000   0.000
   15    7    8   12        3       0.000   0.000   0.000  -0.000  -0.000   0.000
    7   15    4    3        3       0.000   0.000   0.000  -0.000  -0.000   0.000
   13   12   11   10        3      -2.720   0.000   2.720  -0.000  -0.000   0.000
   13   12    8    9        3      -2.720   0.000   2.720  -0.000  -0.000   0.000
   13   12    8    7        3      -2.720   0.000   2.720  -0.000  -0.000   0.000
   32   12   11   10        3       0.628   1.883   0.000  -2.510  -0.000   0.000
   31   11   12    8        3       0.628   1.883   0.000  -2.510  -0.000   0.000
   18    1    2    3        3       0.628   1.883   0.000  -2.510  -0.000   0.000
   27    9    8   12        3       0.628   1.883   0.000  -2.510  -0.000   0.000
   29   10    9    8        3       0.628   1.883   0.000  -2.510  -0.000   0.000
   31   11   10    9        3       0.628   1.883   0.000  -2.510  -0.000   0.000
   30   11   10    9        3       0.628   1.883   0.000  -2.510  -0.000   0.000
   32   12    8    9        3       0.628   1.883   0.000  -2.510  -0.000   0.000
   26    8   12   11        3       0.628   1.883   0.000  -2.510  -0.000   0.000
   23    3    2    1        3       0.628   1.883   0.000  -2.510  -0.000   0.000
   27    9   10   11        3       0.628   1.883   0.000  -2.510  -0.000   0.000
   29   10   11   12        3       0.628   1.883   0.000  -2.510  -0.000   0.000
   22    3    2    1        3       0.628   1.883   0.000  -2.510  -0.000   0.000
   28    9   10   11        3       0.628   1.883   0.000  -2.510  -0.000   0.000
   28    9    8   12        3       0.628   1.883   0.000  -2.510  -0.000   0.000
   17    1    2    3        3       0.628   1.883   0.000  -2.510  -0.000   0.000
   30   11   12    8        3       0.628   1.883   0.000  -2.510  -0.000   0.000
   19    1    2    3        3       0.628   1.883   0.000  -2.510  -0.000   0.000
   26    8    9   10        3       0.628   1.883   0.000  -2.510  -0.000   0.000
   32   12    8    7        3       0.628   1.883   0.000  -2.510  -0.000   0.000
   28    9   10   15        3       0.628   1.883   0.000  -2.510  -0.000   0.000
   21    2    3    4        3       0.628   1.883   0.000  -2.510  -0.000   0.000
   27    9   10   15        3       0.628   1.883   0.000  -2.510  -0.000   0.000
   30   11   10   15        3       0.628   1.883   0.000  -2.510  -0.000   0.000
   28    9    8    7        3       0.628   1.883   0.000  -2.510  -0.000   0.000
   20    2    3    4        3       0.628   1.883   0.000  -2.510  -0.000   0.000
   27    9    8    7        3       0.628   1.883   0.000  -2.510  -0.000   0.000
   31   11   10   15        3       0.628   1.883   0.000  -2.510  -0.000   0.000
   30   11   12   13        3       0.766   2.297   0.000  -3.063  -0.000   0.000
   31   11   12   13        3       0.766   2.297   0.000  -3.063  -0.000   0.000
   26    8   12   13        3       0.766   2.297   0.000  -3.063  -0.000   0.000
   23    3    2   21        3       0.628   1.883   0.000  -2.510  -0.000   0.000
   31   11   10   29        3       0.628   1.883   0.000  -2.510  -0.000   0.000
   30   11   10   29        3       0.628   1.883   0.000  -2.510  -0.000   0.000
   27    9    8   26        3       0.628   1.883   0.000  -2.510  -0.000   0.000
   20    2    1   17        3       0.628   1.883   0.000  -2.510  -0.000   0.000
   22    3    2   20        3       0.628   1.883   0.000  -2.510  -0.000   0.000
   21    2    1   17        3       0.628   1.883   0.000  -2.510  -0.000   0.000
   29   10    9   28        3       0.628   1.883   0.000  -2.510  -0.000   0.000
   21    2    1   19        3       0.628   1.883   0.000  -2.510  -0.000   0.000
   22    3    2   21        3       0.628   1.883   0.000  -2.510  -0.000   0.000
   32   12   11   31        3       0.628   1.883   0.000  -2.510  -0.000   0.000
   32   12    8   26        3       0.628   1.883   0.000  -2.510  -0.000   0.000
   20    2    1   18        3       0.628   1.883   0.000  -2.510  -0.000   0.000
   23    3    2   20        3       0.628   1.883   0.000  -2.510  -0.000   0.000
   21    2    1   18        3       0.628   1.883   0.000  -2.510  -0.000   0.000
   32   12   11   30        3       0.628   1.883   0.000  -2.510  -0.000   0.000
   29   10    9   27        3       0.628   1.883   0.000  -2.510  -0.000   0.000
   28    9    8   26        3       0.628   1.883   0.000  -2.510  -0.000   0.000
   20    2    1   19        3       0.628   1.883   0.000  -2.510  -0.000   0.000
   22    3    4    5        3       0.628   1.883   0.000  -2.510  -0.000   0.000
   23    3    4    5        3       0.628   1.883   0.000  -2.510  -0.000   0.000
   26    8    7    5        3       0.628   1.883   0.000  -2.510  -0.000   0.000
   34   16   15   10        3       0.628   1.883   0.000  -2.510  -0.000   0.000
   33   16   15   10        3       0.628   1.883   0.000  -2.510  -0.000   0.000
   29   10   15   16        3       0.628   1.883   0.000  -2.510  -0.000   0.000
   35   16   15   10        3       0.628   1.883   0.000  -2.510  -0.000   0.000
   35   16   15    4        3       0.628   1.883   0.000  -2.510  -0.000   0.000
   35   16   15    7        3       0.628   1.883   0.000  -2.510  -0.000   0.000
   33   16   15    7        3       0.628   1.883   0.000  -2.510  -0.000   0.000
   23    3    4   15        3       0.628   1.883   0.000  -2.510  -0.000   0.000
   29   10   15    4        3       0.628   1.883   0.000  -2.510  -0.000   0.000
   29   10   15    7        3       0.628   1.883   0.000  -2.510  -0.000   0.000
   22    3    4   15        3       0.628   1.883   0.000  -2.510  -0.000   0.000
   33   16   15    4        3       0.628   1.883   0.000  -2.510  -0.000   0.000
   34   16   15    7        3       0.628   1.883   0.000  -2.510  -0.000   0.000
   34   16   15    4        3       0.628   1.883   0.000  -2.510  -0.000   0.000
   26    8    7   15        3       0.628   1.883   0.000  -2.510  -0.000   0.000
   26    8    7   25        3       0.628   1.883   0.000  -2.510  -0.000   0.000
   32   12   13   14        3       0.000   0.000   0.000  -0.000  -0.000   0.000
   25    7    5    4        3       0.000   0.000   0.000  -0.000  -0.000   0.000
   24    4    5    7        3       0.000   0.000   0.000  -0.000  -0.000   0.000
   25    7    5    6        3       0.000   0.000   0.000  -0.000  -0.000   0.000
   24    4    5    6        3       0.000   0.000   0.000  -0.000  -0.000   0.000
   25    7    8    9        3       0.628   1.883   0.000  -2.510  -0.000   0.000
   24    4    3    2        3       0.628   1.883   0.000  -2.510  -0.000   0.000
   25    7    8   12        3       0.628   1.883   0.000  -2.510  -0.000   0.000
   24    4    3   23        3       0.628   1.883   0.000  -2.510  -0.000   0.000
   24    4    3   22        3       0.628   1.883   0.000  -2.510  -0.000   0.000
   24    4   15   16        3       0.000   0.000   0.000  -0.000  -0.000   0.000
   24    4   15   10        3       0.000   0.000   0.000  -0.000  -0.000   0.000
   25    7   15   16        3       0.000   0.000   0.000  -0.000  -0.000   0.000
   25    7   15   10        3       0.000   0.000   0.000  -0.000  -0.000   0.000
   25    7   15    4        3       0.000   0.000   0.000  -0.000  -0.000   0.000
   24    4   15    7        3       0.000   0.000   0.000  -0.000  -0.000   0.000
   14   13   12   11        3       0.000   0.000   0.000  -0.000  -0.000   0.000
   14   13   12    8        3       0.000   0.000   0.000  -0.000  -0.000   0.000
    6    5    4    3        3       0.000   0.000   0.000  -0.000  -0.000   0.000

[ pairs ]
     1     4    1
     2     5    1
     3     6    1
     3     7    1
     4     8    1
     4     9    1
     3    10    1
     6     8    1
     5     9    1
     5    10    1
     4    11    1
     5    12    1
     2    15    1
     7    11    1
     3    16    1
     7    13    1
     3    17    1
     6    15    1
     5    16    1
     3    18    1
     9    13    1
     8    14    1
     3    19    1
    10    13    1
     1    22    1
     8    16    1
     4    20    1
     1    23    1
    11    14    1
     9    16    1
     4    21    1
     2    24    1
    12    15    1
    11    16    1
     5    22    1
     5    23    1
     4    25    1
     6    24    1
     7    24    1
     6    25    1
     5    26    1
     4    29    1
    10    24    1
     9    25    1
     7    27    1
    10    25    1
     7    28    1
    10    26    1
     7    29    1
    17    20    1
    15    22    1
    12    25    1
    11    26    1
     8    29    1
     4    33    1
    18    20    1
    17    21    1
    15    23    1
    11    27    1
     8    30    1
     4    34    1
    19    20    1
    18    21    1
    13    26    1
    12    27    1
    11    28    1
     9    30    1
     8    31    1
     7    32    1
     4    35    1
    19    21    1
    16    24    1
    12    28    1
     9    31    1
     7    33    1
    16    25    1
    15    26    1
    12    29    1
     9    32    1
     7    34    1
    20    22    1
    15    27    1
    10    32    1
     7    35    1
    21    22    1
    20    23    1
    15    28    1
    13    30    1
    10    33    1
    21    23    1
    13    31    1
    10    34    1
    16    29    1
    15    30    1
    10    35    1
    22    24    1
    15    31    1
    14    32    1
    23    24    1
    25    26    1
    26    27    1
    26    28    1
    27    29    1
    28    29    1
    26    32    1
    29    30    1
    29    31    1
    30    32    1
    31    32    1

