LIGPARGEN GENERATED GRO FILE
   31
    1UNK    C00    1   0.100   0.100   0.000
    1UNK    C01    2  -0.052   0.100   0.000
    1UNK    C02    3  -0.118   0.100   0.141
    1UNK    C03    4  -0.065   0.216   0.228
    1UNK    C04    5  -0.102   0.353   0.175
    1UNK    O05    6  -0.167   0.434   0.240
    1UNK    C06    7  -0.275   0.095   0.132
    1UNK    C07    8  -0.323  -0.030   0.057
    1UNK    C08    9  -0.342   0.100   0.272
    1UNK    C09   10  -0.496   0.096   0.269
    1UNK    C0A   11  -0.556   0.102   0.409
    1UNK    F0B   12  -0.540   0.204   0.199
    1UNK    H0C   13   0.137   0.084  -0.102
    1UNK    H0D   14   0.139   0.020   0.063
    1UNK    H0E   15   0.141   0.195   0.034
    1UNK    H0F   16  -0.082   0.010  -0.055
    1UNK    H0G   17  -0.089   0.185  -0.058
    1UNK    H0H   18  -0.085   0.008   0.191
    1UNK    H0I   19   0.045   0.213   0.235
    1UNK    H0J   20  -0.101   0.208   0.331
    1UNK    H0K   21  -0.063   0.378   0.075
    1UNK    H0M   22  -0.308   0.183   0.075
    1UNK    H0N   23  -0.304  -0.121   0.116
    1UNK    H0O   24  -0.276  -0.042  -0.040
    1UNK    H0P   25  -0.431  -0.025   0.037
    1UNK    H0Q   26  -0.315   0.194   0.321
    1UNK    H0R   27  -0.304   0.018   0.334
    1UNK    H0S   28  -0.533   0.006   0.219
    1UNK    H0T   29  -0.510   0.180   0.469
    1UNK    H0U   30  -0.543   0.006   0.461
    1UNK    H0V   31  -0.663   0.124   0.402
   1.00000   1.00000   1.00000

