LIGPARGEN GENERATED GRO FILE
   35
    1UNK    C00    1   0.100   0.100   0.000
    1UNK    C01    2  -0.051   0.100   0.000
    1UNK    C02    3  -0.105   0.100   0.140
    1UNK    C03    4  -0.096   0.230   0.218
    1UNK    C04    5  -0.169   0.356   0.178
    1UNK    O05    6  -0.233   0.389   0.081
    1UNK    C06    7  -0.117   0.427   0.303
    1UNK    C07    8  -0.148   0.389   0.451
    1UNK    C08    9  -0.028   0.463   0.509
    1UNK    C09   10   0.070   0.365   0.441
    1UNK    C0A   11   0.040   0.239   0.519
    1UNK    C0B   12  -0.109   0.240   0.501
    1UNK    C0C   13  -0.198   0.211   0.620
    1UNK    N0D   14  -0.272   0.186   0.719
    1UNK    C0E   15   0.018   0.348   0.289
    1UNK    C0F   16   0.119   0.417   0.197
    1UNK    H0G   17   0.137   0.091  -0.102
    1UNK    H0H   18   0.139   0.016   0.059
    1UNK    H0I   19   0.139   0.192   0.043
    1UNK    H0J   20  -0.086   0.008  -0.049
    1UNK    H0K   21  -0.091   0.184  -0.058
    1UNK    H0M   22  -0.061   0.019   0.199
    1UNK    H0N   23  -0.212   0.074   0.132
    1UNK    H0O   24  -0.173   0.194   0.287
    1UNK    H0P   25  -0.113   0.535   0.287
    1UNK    H0Q   26  -0.245   0.425   0.483
    1UNK    H0R   27  -0.026   0.461   0.619
    1UNK    H0S   28  -0.018   0.567   0.475
    1UNK    H0T   29   0.174   0.398   0.449
    1UNK    H0U   30   0.070   0.247   0.624
    1UNK    H0V   31   0.088   0.151   0.475
    1UNK    H0W   32  -0.134   0.153   0.442
    1UNK    H0X   33   0.218   0.371   0.208
    1UNK    H0Y   34   0.130   0.523   0.223
    1UNK    H0Z   35   0.090   0.411   0.092
   1.00000   1.00000   1.00000

