
;
; GENERATED BY LigParGen Server
; Jorgensen Lab @ Yale University 
;
[ atomtypes ]
  opls_818  H818     1.0080     0.000    A    2.50000E-01   1.25520E-01
  opls_824  H824     1.0080     0.000    A    2.50000E-01   1.25520E-01
  opls_805  O805    15.9990     0.000    A    2.96000E-01   8.78640E-01
  opls_828  H828     1.0080     0.000    A    2.50000E-01   1.25520E-01
  opls_813  H813     1.0080     0.000    A    2.50000E-01   1.25520E-01
  opls_811  F811    18.9984     0.000    A    2.90000E-01   2.51040E-01
  opls_806  C806    12.0110     0.000    A    3.50000E-01   2.76144E-01
  opls_815  H815     1.0080     0.000    A    2.50000E-01   1.25520E-01
  opls_809  C809    12.0110     0.000    A    3.50000E-01   2.76144E-01
  opls_830  H830     1.0080     0.000    A    2.50000E-01   1.25520E-01
  opls_822  H822     1.0080     0.000    A    2.50000E-01   1.25520E-01
  opls_803  C803    12.0110     0.000    A    3.50000E-01   2.76144E-01
  opls_825  H825     1.0080     0.000    A    2.50000E-01   1.25520E-01
  opls_814  H814     1.0080     0.000    A    2.50000E-01   1.25520E-01
  opls_821  H821     1.0080     0.000    A    2.50000E-01   1.25520E-01
  opls_820  H820     1.0080     0.000    A    2.50000E-01   1.25520E-01
  opls_829  H829     1.0080     0.000    A    2.50000E-01   1.25520E-01
  opls_804  C804    12.0110     0.000    A    3.55000E-01   2.92880E-01
  opls_816  H816     1.0080     0.000    A    2.50000E-01   1.25520E-01
  opls_800  C800    12.0110     0.000    A    3.50000E-01   2.76144E-01
  opls_802  C802    12.0110     0.000    A    3.50000E-01   2.76144E-01
  opls_823  H823     1.0080     0.000    A    2.50000E-01   1.25520E-01
  opls_826  H826     1.0080     0.000    A    2.50000E-01   1.25520E-01
  opls_819  H819     1.0080     0.000    A    2.50000E-01   1.25520E-01
  opls_810  C810    12.0110     0.000    A    3.50000E-01   2.76144E-01
  opls_827  H827     1.0080     0.000    A    2.50000E-01   1.25520E-01
  opls_801  C801    12.0110     0.000    A    3.50000E-01   2.76144E-01
  opls_808  C808    12.0110     0.000    A    3.50000E-01   2.76144E-01
  opls_817  H817     1.0080     0.000    A    2.50000E-01   1.25520E-01
  opls_812  H812     1.0080     0.000    A    2.50000E-01   1.25520E-01
  opls_807  C807    12.0110     0.000    A    3.50000E-01   2.76144E-01
[ moleculetype ]
; Name               nrexcl
UNK                   3
[ atoms ]
;   nr       type  resnr residue  atom   cgnr     charge       mass  
     1   opls_800      1    UNK   C00      1    -0.2405    12.0110 
     2   opls_801      1    UNK   C01      1    -0.1813    12.0110 
     3   opls_802      1    UNK   C02      1    -0.0915    12.0110 
     4   opls_803      1    UNK   C03      1    -0.2552    12.0110 
     5   opls_804      1    UNK   C04      1     0.3161    12.0110 
     6   opls_805      1    UNK   O05      1    -0.4423    15.9990 
     7   opls_806      1    UNK   C06      1    -0.1069    12.0110 
     8   opls_807      1    UNK   C07      1     -0.241    12.0110 
     9   opls_808      1    UNK   C08      1    -0.2147    12.0110 
    10   opls_809      1    UNK   C09      1     0.0695    12.0110 
    11   opls_810      1    UNK   C0A      1     -0.283    12.0110 
    12   opls_811      1    UNK   F0B      1    -0.1816    18.9984 
    13   opls_812      1    UNK   H0C      1     0.0831     1.0080 
    14   opls_813      1    UNK   H0D      1     0.0831     1.0080 
    15   opls_814      1    UNK   H0E      1     0.0831     1.0080 
    16   opls_815      1    UNK   H0F      1     0.0927     1.0080 
    17   opls_816      1    UNK   H0G      1     0.0927     1.0080 
    18   opls_817      1    UNK   H0H      1     0.0999     1.0080 
    19   opls_818      1    UNK   H0I      1     0.1196     1.0080 
    20   opls_819      1    UNK   H0J      1     0.1196     1.0080 
    21   opls_820      1    UNK   H0K      1     0.1074     1.0080 
    22   opls_821      1    UNK   H0M      1     0.1118     1.0080 
    23   opls_822      1    UNK   H0N      1     0.0844     1.0080 
    24   opls_823      1    UNK   H0O      1     0.0844     1.0080 
    25   opls_824      1    UNK   H0P      1     0.0844     1.0080 
    26   opls_825      1    UNK   H0Q      1     0.1077     1.0080 
    27   opls_826      1    UNK   H0R      1     0.1077     1.0080 
    28   opls_827      1    UNK   H0S      1     0.0948     1.0080 
    29   opls_828      1    UNK   H0T      1     0.0987     1.0080 
    30   opls_829      1    UNK   H0U      1     0.0987     1.0080 
    31   opls_830      1    UNK   H0V      1     0.0987     1.0080 
[ bonds ]
    2     1     1      0.1529 224262.400
    3     2     1      0.1529 224262.400
    4     3     1      0.1529 224262.400
    5     4     1      0.1522 265265.600
    6     5     1      0.1229 476976.000
    7     3     1      0.1529 224262.400
    8     7     1      0.1529 224262.400
    9     7     1      0.1529 224262.400
   10     9     1      0.1529 224262.400
   11    10     1      0.1529 224262.400
   12    10     1      0.1360 307105.600
   13     1     1      0.1090 284512.000
   14     1     1      0.1090 284512.000
   15     1     1      0.1090 284512.000
   16     2     1      0.1090 284512.000
   17     2     1      0.1090 284512.000
   18     3     1      0.1090 284512.000
   19     4     1      0.1090 284512.000
   20     4     1      0.1090 284512.000
   21     5     1      0.1090 284512.000
   22     7     1      0.1090 284512.000
   23     8     1      0.1090 284512.000
   24     8     1      0.1090 284512.000
   25     8     1      0.1090 284512.000
   26     9     1      0.1090 284512.000
   27     9     1      0.1090 284512.000
   28    10     1      0.1090 284512.000
   29    11     1      0.1090 284512.000
   30    11     1      0.1090 284512.000
   31    11     1      0.1090 284512.000

[ angles ]
;  ai    aj    ak funct            c0            c1            c2            c3 
    1     2     3     1    112.700    488.273
    2     3     4     1    112.700    488.273
    3     4     5     1    111.100    527.184
    4     5     6     1    120.400    669.440
    2     3     7     1    112.700    488.273
    3     7     8     1    112.700    488.273
    3     7     9     1    112.700    488.273
    7     9    10     1    112.700    488.273
    9    10    11     1    112.700    488.273
    9    10    12     1    109.500    418.400
    2     1    13     1    110.700    313.800
    2     1    14     1    110.700    313.800
    2     1    15     1    110.700    313.800
    1     2    16     1    110.700    313.800
    1     2    17     1    110.700    313.800
    2     3    18     1    110.700    313.800
    3     4    19     1    110.700    313.800
    3     4    20     1    110.700    313.800
    4     5    21     1    115.000    292.880
    3     7    22     1    110.700    313.800
    7     8    23     1    110.700    313.800
    7     8    24     1    110.700    313.800
    7     8    25     1    110.700    313.800
    7     9    26     1    110.700    313.800
    7     9    27     1    110.700    313.800
    9    10    28     1    110.700    313.800
   10    11    29     1    110.700    313.800
   10    11    30     1    110.700    313.800
   10    11    31     1    110.700    313.800
   24     8    25     1    107.800    276.144
   13     1    14     1    107.800    276.144
   23     8    24     1    107.800    276.144
   11    10    12     1    109.500    418.400
    3     2    17     1    110.700    313.800
   26     9    27     1    107.800    276.144
    8     7     9     1    112.700    488.273
   19     4    20     1    107.800    276.144
    4     3     7     1    112.700    488.273
    3     2    16     1    110.700    313.800
   12    10    28     1    107.000    334.720
   29    11    31     1    107.800    276.144
    4     3    18     1    110.700    313.800
   23     8    25     1    107.800    276.144
   16     2    17     1    107.800    276.144
    9     7    22     1    110.700    313.800
   14     1    15     1    107.800    276.144
    5     4    19     1    109.500    292.880
   11    10    28     1    110.700    313.800
    8     7    22     1    110.700    313.800
   30    11    31     1    107.800    276.144
    6     5    21     1    123.000    292.880
    5     4    20     1    109.500    292.880
   10     9    26     1    110.700    313.800
    7     3    18     1    110.700    313.800
   13     1    15     1    107.800    276.144
   29    11    30     1    107.800    276.144
   10     9    27     1    110.700    313.800

[ dihedrals ]
; IMPROPER DIHEDRAL ANGLES 
;  ai    aj    ak    al funct            c0            c1            c2            c3            c4            c5
    21     5     4     6    4        180.000     43.932     2  

[ dihedrals ]
; PROPER DIHEDRAL ANGLES
;  ai    aj    ak    al funct            c0            c1            c2            c3            c4            c5
    5    4    3    2        3      -4.960   6.286   1.310  -2.636  -0.000   0.000
    7    3    4    5        3      -4.960   6.286   1.310  -2.636  -0.000   0.000
    4    3    2    1        3       2.301  -1.464   0.837  -1.674  -0.000   0.000
    7    3    2    1        3       2.301  -1.464   0.837  -1.674  -0.000   0.000
    8    7    3    4        3       2.301  -1.464   0.837  -1.674  -0.000   0.000
    9    7    3    4        3       2.301  -1.464   0.837  -1.674  -0.000   0.000
   10    9    7    8        3       2.301  -1.464   0.837  -1.674  -0.000   0.000
    9    7    3    2        3       2.301  -1.464   0.837  -1.674  -0.000   0.000
   10    9    7    3        3       2.301  -1.464   0.837  -1.674  -0.000   0.000
    8    7    3    2        3       2.301  -1.464   0.837  -1.674  -0.000   0.000
   11   10    9    7        3       2.301  -1.464   0.837  -1.674  -0.000   0.000
   12   10    9    7        3      -0.209   1.883   1.674  -3.347  -0.000   0.000
   21    5    4    3        3       0.000   0.000   0.000  -0.000  -0.000   0.000
   21    5    4   19        3       0.753   2.259   0.000  -3.012  -0.000   0.000
   21    5    4   20        3       0.753   2.259   0.000  -3.012  -0.000   0.000
   20    4    5    6        3       0.000   0.000   0.000  -0.000  -0.000   0.000
   19    4    5    6        3       0.000   0.000   0.000  -0.000  -0.000   0.000
   18    3    4    5        3      -0.209  -0.628   0.000   0.837  -0.000   0.000
   15    1    2    3        3       0.628   1.883   0.000  -2.510  -0.000   0.000
   16    2    3    7        3       0.628   1.883   0.000  -2.510  -0.000   0.000
   17    2    3    4        3       0.628   1.883   0.000  -2.510  -0.000   0.000
   26    9    7    8        3       0.628   1.883   0.000  -2.510  -0.000   0.000
   22    7    3    2        3       0.628   1.883   0.000  -2.510  -0.000   0.000
   25    8    7    3        3       0.628   1.883   0.000  -2.510  -0.000   0.000
   18    3    7    8        3       0.628   1.883   0.000  -2.510  -0.000   0.000
   24    8    7    3        3       0.628   1.883   0.000  -2.510  -0.000   0.000
   17    2    3    7        3       0.628   1.883   0.000  -2.510  -0.000   0.000
   19    4    3    2        3       0.628   1.883   0.000  -2.510  -0.000   0.000
   26    9    7    3        3       0.628   1.883   0.000  -2.510  -0.000   0.000
   31   11   10    9        3       0.628   1.883   0.000  -2.510  -0.000   0.000
   19    4    3    7        3       0.628   1.883   0.000  -2.510  -0.000   0.000
   24    8    7    9        3       0.628   1.883   0.000  -2.510  -0.000   0.000
   22    7    3    4        3       0.628   1.883   0.000  -2.510  -0.000   0.000
   20    4    3    2        3       0.628   1.883   0.000  -2.510  -0.000   0.000
   28   10    9    7        3       0.628   1.883   0.000  -2.510  -0.000   0.000
   14    1    2    3        3       0.628   1.883   0.000  -2.510  -0.000   0.000
   30   11   10    9        3       0.628   1.883   0.000  -2.510  -0.000   0.000
   20    4    3    7        3       0.628   1.883   0.000  -2.510  -0.000   0.000
   22    7    9   10        3       0.628   1.883   0.000  -2.510  -0.000   0.000
   13    1    2    3        3       0.628   1.883   0.000  -2.510  -0.000   0.000
   23    8    7    3        3       0.628   1.883   0.000  -2.510  -0.000   0.000
   29   11   10    9        3       0.628   1.883   0.000  -2.510  -0.000   0.000
   16    2    3    4        3       0.628   1.883   0.000  -2.510  -0.000   0.000
   27    9    7    8        3       0.628   1.883   0.000  -2.510  -0.000   0.000
   27    9    7    3        3       0.628   1.883   0.000  -2.510  -0.000   0.000
   26    9   10   11        3       0.628   1.883   0.000  -2.510  -0.000   0.000
   18    3    7    9        3       0.628   1.883   0.000  -2.510  -0.000   0.000
   18    3    2    1        3       0.628   1.883   0.000  -2.510  -0.000   0.000
   27    9   10   11        3       0.628   1.883   0.000  -2.510  -0.000   0.000
   25    8    7    9        3       0.628   1.883   0.000  -2.510  -0.000   0.000
   23    8    7    9        3       0.628   1.883   0.000  -2.510  -0.000   0.000
   30   11   10   12        3       0.837   2.510   0.000  -3.347  -0.000   0.000
   29   11   10   12        3       0.837   2.510   0.000  -3.347  -0.000   0.000
   31   11   10   12        3       0.837   2.510   0.000  -3.347  -0.000   0.000
   26    9   10   12        3       0.837   2.510   0.000  -3.347  -0.000   0.000
   27    9   10   12        3       0.837   2.510   0.000  -3.347  -0.000   0.000
   16    2    1   14        3       0.628   1.883   0.000  -2.510  -0.000   0.000
   17    2    1   13        3       0.628   1.883   0.000  -2.510  -0.000   0.000
   31   11   10   28        3       0.628   1.883   0.000  -2.510  -0.000   0.000
   16    2    1   15        3       0.628   1.883   0.000  -2.510  -0.000   0.000
   23    8    7   22        3       0.628   1.883   0.000  -2.510  -0.000   0.000
   24    8    7   22        3       0.628   1.883   0.000  -2.510  -0.000   0.000
   27    9    7   22        3       0.628   1.883   0.000  -2.510  -0.000   0.000
   18    3    2   16        3       0.628   1.883   0.000  -2.510  -0.000   0.000
   16    2    1   13        3       0.628   1.883   0.000  -2.510  -0.000   0.000
   18    3    2   17        3       0.628   1.883   0.000  -2.510  -0.000   0.000
   28   10    9   27        3       0.628   1.883   0.000  -2.510  -0.000   0.000
   20    4    3   18        3       0.628   1.883   0.000  -2.510  -0.000   0.000
   19    4    3   18        3       0.628   1.883   0.000  -2.510  -0.000   0.000
   25    8    7   22        3       0.628   1.883   0.000  -2.510  -0.000   0.000
   17    2    1   15        3       0.628   1.883   0.000  -2.510  -0.000   0.000
   26    9    7   22        3       0.628   1.883   0.000  -2.510  -0.000   0.000
   28   10    9   26        3       0.628   1.883   0.000  -2.510  -0.000   0.000
   22    7    3   18        3       0.628   1.883   0.000  -2.510  -0.000   0.000
   17    2    1   14        3       0.628   1.883   0.000  -2.510  -0.000   0.000
   29   11   10   28        3       0.628   1.883   0.000  -2.510  -0.000   0.000
   30   11   10   28        3       0.628   1.883   0.000  -2.510  -0.000   0.000
    6    5    4    3        3       0.000   0.000   0.000  -0.000  -0.000   0.000

[ pairs ]
     1     4    1
     2     5    1
     1     7    1
     3     6    1
     2     8    1
     2     9    1
     5     7    1
     4     8    1
     4     9    1
     3    10    1
     3    13    1
     3    14    1
     8    10    1
     7    11    1
     3    15    1
     7    12    1
     1    18    1
     4    16    1
     4    17    1
     2    19    1
     2    20    1
     7    16    1
     5    18    1
     7    17    1
     3    21    1
     2    22    1
     6    19    1
     8    18    1
     7    19    1
     6    20    1
     4    22    1
     3    23    1
     9    18    1
     7    20    1
     3    24    1
     3    25    1
    13    16    1
     3    26    1
    14    16    1
    13    17    1
     3    27    1
    15    16    1
    14    17    1
    15    17    1
    10    22    1
     9    23    1
     9    24    1
    16    18    1
     9    25    1
     8    26    1
    17    18    1
     8    27    1
     7    28    1
    18    19    1
    11    26    1
    18    20    1
    12    26    1
    11    27    1
     9    29    1
    12    27    1
     9    30    1
    19    21    1
    18    22    1
     9    31    1
    20    21    1
    12    29    1
    12    30    1
    12    31    1
    22    23    1
    22    24    1
    22    25    1
    22    26    1
    22    27    1
    26    28    1
    27    28    1
    28    29    1
    28    30    1
    28    31    1

