LIGPARGEN GENERATED GRO FILE
   50
    1UNK    C00    1   0.100   0.100   0.000
    1UNK    C01    2  -0.052   0.100   0.000
    1UNK    C02    3  -0.107   0.100   0.143
    1UNK    C03    4  -0.260   0.106   0.146
    1UNK    C04    5  -0.326   0.098   0.287
    1UNK    C05    6  -0.281   0.215   0.379
    1UNK    O06    7  -0.140   0.219   0.403
    1UNK    C07    8  -0.091   0.135   0.497
    1UNK    C08    9   0.058   0.152   0.510
    1UNK    O09   10  -0.157   0.056   0.564
    1UNK    C0A   11  -0.485   0.088   0.277
    1UNK    C0B   12  -0.529  -0.041   0.201
    1UNK    C0C   13  -0.682  -0.052   0.191
    1UNK    C0D   14  -0.742  -0.057   0.332
    1UNK    C0E   15  -0.704   0.070   0.409
    1UNK    C0F   16  -0.758   0.193   0.335
    1UNK    C0G   17  -0.699   0.199   0.193
    1UNK    C0H   18  -0.737   0.072   0.117
    1UNK    C0I   19  -0.547   0.210   0.203
    1UNK    C0J   20  -0.550   0.080   0.419
    1UNK    H0K   21   0.138   0.105  -0.102
    1UNK    H0M   22   0.139   0.009   0.047
    1UNK    H0N   23   0.139   0.186   0.055
    1UNK    H0O   24  -0.089   0.013  -0.055
    1UNK    H0P   25  -0.088   0.189  -0.053
    1UNK    H0Q   26  -0.064   0.187   0.193
    1UNK    H0R   27  -0.072   0.010   0.196
    1UNK    H0S   28  -0.296   0.024   0.084
    1UNK    H0T   29  -0.290   0.199   0.096
    1UNK    H0U   30  -0.290   0.005   0.332
    1UNK    H0V   31  -0.331   0.213   0.476
    1UNK    H0W   32  -0.307   0.311   0.332
    1UNK    H0X   33   0.096   0.219   0.433
    1UNK    H0Y   34   0.106   0.055   0.498
    1UNK    H0Z   35   0.081   0.195   0.608
    1UNK    H10   36  -0.489  -0.130   0.252
    1UNK    H11   37  -0.489  -0.042   0.099
    1UNK    H12   38  -0.710  -0.142   0.136
    1UNK    H13   39  -0.706  -0.146   0.385
    1UNK    H14   40  -0.852  -0.065   0.326
    1UNK    H15   41  -0.747   0.066   0.510
    1UNK    H16   42  -0.733   0.285   0.390
    1UNK    H17   43  -0.868   0.189   0.330
    1UNK    H18   44  -0.739   0.287   0.140
    1UNK    H19   45  -0.696   0.076   0.015
    1UNK    H1A   46  -0.846   0.065   0.108
    1UNK    H1B   47  -0.522   0.303   0.255
    1UNK    H1C   48  -0.507   0.218   0.102
    1UNK    H1D   49  -0.510  -0.007   0.473
    1UNK    H1E   50  -0.527   0.169   0.478
   1.00000   1.00000   1.00000

