
;
; GENERATED BY LigParGen Server
; Jorgensen Lab @ Yale University 
;
[ atomtypes ]
  opls_814  C814    12.0110     0.000    A    3.50000E-01   2.76144E-01
  opls_824  H824     1.0080     0.000    A    2.50000E-01   1.25520E-01
  opls_811  C811    12.0110     0.000    A    3.50000E-01   2.76144E-01
  opls_804  C804    12.0110     0.000    A    3.50000E-01   2.76144E-01
  opls_818  C818    12.0110     0.000    A    3.50000E-01   2.76144E-01
  opls_848  H848     1.0080     0.000    A    2.50000E-01   1.25520E-01
  opls_843  H843     1.0080     0.000    A    2.50000E-01   1.25520E-01
  opls_836  H836     1.0080     0.000    A    2.50000E-01   1.25520E-01
  opls_834  H834     1.0080     0.000    A    2.50000E-01   1.25520E-01
  opls_810  C810    12.0110     0.000    A    3.50000E-01   2.76144E-01
  opls_828  H828     1.0080     0.000    A    2.50000E-01   1.25520E-01
  opls_812  C812    12.0110     0.000    A    3.50000E-01   2.76144E-01
  opls_806  O806    15.9990     0.000    A    2.90000E-01   5.85760E-01
  opls_802  C802    12.0110     0.000    A    3.50000E-01   2.76144E-01
  opls_827  H827     1.0080     0.000    A    2.50000E-01   1.25520E-01
  opls_801  C801    12.0110     0.000    A    3.50000E-01   2.76144E-01
  opls_838  H838     1.0080     0.000    A    2.50000E-01   1.25520E-01
  opls_822  H822     1.0080     0.000    A    2.50000E-01   1.25520E-01
  opls_803  C803    12.0110     0.000    A    3.50000E-01   2.76144E-01
  opls_830  H830     1.0080     0.000    A    2.50000E-01   1.25520E-01
  opls_809  O809    15.9990     0.000    A    2.96000E-01   8.78640E-01
  opls_821  H821     1.0080     0.000    A    2.50000E-01   1.25520E-01
  opls_842  H842     1.0080     0.000    A    2.50000E-01   1.25520E-01
  opls_820  H820     1.0080     0.000    A    2.50000E-01   1.25520E-01
  opls_837  H837     1.0080     0.000    A    2.50000E-01   1.25520E-01
  opls_829  H829     1.0080     0.000    A    2.50000E-01   1.25520E-01
  opls_831  H831     1.0080     0.000    A    2.50000E-01   1.25520E-01
  opls_832  H832     1.0080     0.000    A    2.50000E-01   1.25520E-01
  opls_800  C800    12.0110     0.000    A    3.50000E-01   2.76144E-01
  opls_805  C805    12.0110     0.000    A    3.50000E-01   2.76144E-01
  opls_846  H846     1.0080     0.000    A    2.50000E-01   1.25520E-01
  opls_815  C815    12.0110     0.000    A    3.50000E-01   2.76144E-01
  opls_823  H823     1.0080     0.000    A    2.50000E-01   1.25520E-01
  opls_819  C819    12.0110     0.000    A    3.50000E-01   2.76144E-01
  opls_826  H826     1.0080     0.000    A    2.50000E-01   1.25520E-01
  opls_835  H835     1.0080     0.000    A    2.50000E-01   1.25520E-01
  opls_841  H841     1.0080     0.000    A    2.50000E-01   1.25520E-01
  opls_825  H825     1.0080     0.000    A    2.50000E-01   1.25520E-01
  opls_816  C816    12.0110     0.000    A    3.50000E-01   2.76144E-01
  opls_833  H833     1.0080     0.000    A    2.50000E-01   1.25520E-01
  opls_839  H839     1.0080     0.000    A    2.50000E-01   1.25520E-01
  opls_817  C817    12.0110     0.000    A    3.50000E-01   2.76144E-01
  opls_808  C808    12.0110     0.000    A    3.50000E-01   2.76144E-01
  opls_807  C807    12.0110     0.000    A    3.55000E-01   2.92880E-01
  opls_840  H840     1.0080     0.000    A    2.50000E-01   1.25520E-01
  opls_849  H849     1.0080     0.000    A    2.50000E-01   1.25520E-01
  opls_813  C813    12.0110     0.000    A    3.50000E-01   2.76144E-01
  opls_847  H847     1.0080     0.000    A    2.50000E-01   1.25520E-01
  opls_844  H844     1.0080     0.000    A    2.50000E-01   1.25520E-01
  opls_845  H845     1.0080     0.000    A    2.50000E-01   1.25520E-01
[ moleculetype ]
; Name               nrexcl
UNK                   3
[ atoms ]
;   nr       type  resnr residue  atom   cgnr     charge       mass  
     1   opls_800      1    UNK   C00      1    -0.2381    12.0110 
     2   opls_801      1    UNK   C01      1    -0.1805    12.0110 
     3   opls_802      1    UNK   C02      1    -0.1827    12.0110 
     4   opls_803      1    UNK   C03      1    -0.1718    12.0110 
     5   opls_804      1    UNK   C04      1    -0.1229    12.0110 
     6   opls_805      1    UNK   C05      1     0.0096    12.0110 
     7   opls_806      1    UNK   O06      1    -0.3619    15.9990 
     8   opls_807      1    UNK   C07      1     0.4403    12.0110 
     9   opls_808      1    UNK   C08      1     -0.261    12.0110 
    10   opls_809      1    UNK   O09      1    -0.4539    15.9990 
    11   opls_810      1    UNK   C0A      1    -0.0336    12.0110 
    12   opls_811      1    UNK   C0B      1    -0.1614    12.0110 
    13   opls_812      1    UNK   C0C      1    -0.1132    12.0110 
    14   opls_813      1    UNK   C0D      1    -0.1689    12.0110 
    15   opls_814      1    UNK   C0E      1    -0.1133    12.0110 
    16   opls_815      1    UNK   C0F      1    -0.1691    12.0110 
    17   opls_816      1    UNK   C0G      1    -0.1135    12.0110 
    18   opls_817      1    UNK   C0H      1    -0.1677    12.0110 
    19   opls_818      1    UNK   C0I      1     -0.164    12.0110 
    20   opls_819      1    UNK   C0J      1    -0.1655    12.0110 
    21   opls_820      1    UNK   H0K      1     0.0804     1.0080 
    22   opls_821      1    UNK   H0M      1     0.0804     1.0080 
    23   opls_822      1    UNK   H0N      1     0.0804     1.0080 
    24   opls_823      1    UNK   H0O      1     0.0874     1.0080 
    25   opls_824      1    UNK   H0P      1     0.0874     1.0080 
    26   opls_825      1    UNK   H0Q      1     0.0963     1.0080 
    27   opls_826      1    UNK   H0R      1     0.0963     1.0080 
    28   opls_827      1    UNK   H0S      1     0.0893     1.0080 
    29   opls_828      1    UNK   H0T      1     0.0893     1.0080 
    30   opls_829      1    UNK   H0U      1     0.1152     1.0080 
    31   opls_830      1    UNK   H0V      1     0.1141     1.0080 
    32   opls_831      1    UNK   H0W      1     0.1141     1.0080 
    33   opls_832      1    UNK   H0X      2     0.1265     1.0080 
    34   opls_833      1    UNK   H0Y      2     0.1265     1.0080 
    35   opls_834      1    UNK   H0Z      2     0.1265     1.0080 
    36   opls_835      1    UNK   H10      2     0.0909     1.0080 
    37   opls_836      1    UNK   H11      2     0.0909     1.0080 
    38   opls_837      1    UNK   H12      2     0.1013     1.0080 
    39   opls_838      1    UNK   H13      2     0.0899     1.0080 
    40   opls_839      1    UNK   H14      2     0.0899     1.0080 
    41   opls_840      1    UNK   H15      2     0.1019     1.0080 
    42   opls_841      1    UNK   H16      2     0.0885     1.0080 
    43   opls_842      1    UNK   H17      2     0.0885     1.0080 
    44   opls_843      1    UNK   H18      2        0.1     1.0080 
    45   opls_844      1    UNK   H19      2     0.0888     1.0080 
    46   opls_845      1    UNK   H1A      2     0.0888     1.0080 
    47   opls_846      1    UNK   H1B      2     0.0878     1.0080 
    48   opls_847      1    UNK   H1C      2     0.0878     1.0080 
    49   opls_848      1    UNK   H1D      2      0.094     1.0080 
    50   opls_849      1    UNK   H1E      2      0.094     1.0080 
[ bonds ]
    2     1     1      0.1529 224262.400
    3     2     1      0.1529 224262.400
    4     3     1      0.1529 224262.400
    5     4     1      0.1529 224262.400
    6     5     1      0.1529 224262.400
    7     6     1      0.1410 267776.000
    8     7     1      0.1327 179075.200
    9     8     1      0.1522 265265.600
   10     8     1      0.1229 476976.000
   11     5     1      0.1529 224262.400
   12    11     1      0.1529 224262.400
   13    12     1      0.1529 224262.400
   14    13     1      0.1529 224262.400
   15    14     1      0.1529 224262.400
   16    15     1      0.1529 224262.400
   17    16     1      0.1529 224262.400
   18    13     1      0.1529 224262.400
   19    11     1      0.1529 224262.400
   20    11     1      0.1529 224262.400
   21     1     1      0.1090 284512.000
   22     1     1      0.1090 284512.000
   23     1     1      0.1090 284512.000
   24     2     1      0.1090 284512.000
   25     2     1      0.1090 284512.000
   26     3     1      0.1090 284512.000
   27     3     1      0.1090 284512.000
   28     4     1      0.1090 284512.000
   29     4     1      0.1090 284512.000
   30     5     1      0.1090 284512.000
   31     6     1      0.1090 284512.000
   32     6     1      0.1090 284512.000
   33     9     1      0.1090 284512.000
   34     9     1      0.1090 284512.000
   35     9     1      0.1090 284512.000
   36    12     1      0.1090 284512.000
   37    12     1      0.1090 284512.000
   38    13     1      0.1090 284512.000
   39    14     1      0.1090 284512.000
   40    14     1      0.1090 284512.000
   41    15     1      0.1090 284512.000
   42    16     1      0.1090 284512.000
   43    16     1      0.1090 284512.000
   44    17     1      0.1090 284512.000
   45    18     1      0.1090 284512.000
   46    18     1      0.1090 284512.000
   47    19     1      0.1090 284512.000
   48    19     1      0.1090 284512.000
   49    20     1      0.1090 284512.000
   50    20     1      0.1090 284512.000
   20    15     1      0.1529 224262.400
   18    17     1      0.1529 224262.400
   19    17     1      0.1529 224262.400

[ angles ]
;  ai    aj    ak funct            c0            c1            c2            c3 
    1     2     3     1    112.700    488.273
    2     3     4     1    112.700    488.273
    3     4     5     1    112.700    488.273
    4     5     6     1    112.700    488.273
    5     6     7     1    109.500    418.400
    6     7     8     1    116.900    694.544
    7     8     9     1    111.400    677.808
    7     8    10     1    123.400    694.544
    4     5    11     1    112.700    488.273
    5    11    12     1    112.700    488.273
   11    12    13     1    112.700    488.273
   12    13    14     1    112.700    488.273
   13    14    15     1    112.700    488.273
   14    15    16     1    112.700    488.273
   15    16    17     1    112.700    488.273
   12    13    18     1    112.700    488.273
    5    11    19     1    112.700    488.273
    5    11    20     1    112.700    488.273
    2     1    21     1    110.700    313.800
    2     1    22     1    110.700    313.800
    2     1    23     1    110.700    313.800
    1     2    24     1    110.700    313.800
    1     2    25     1    110.700    313.800
    2     3    26     1    110.700    313.800
    2     3    27     1    110.700    313.800
    3     4    28     1    110.700    313.800
    3     4    29     1    110.700    313.800
    4     5    30     1    110.700    313.800
    5     6    31     1    110.700    313.800
    5     6    32     1    110.700    313.800
    8     9    33     1    109.500    292.880
    8     9    34     1    109.500    292.880
    8     9    35     1    109.500    292.880
   11    12    36     1    110.700    313.800
   11    12    37     1    110.700    313.800
   12    13    38     1    110.700    313.800
   13    14    39     1    110.700    313.800
   13    14    40     1    110.700    313.800
   14    15    41     1    110.700    313.800
   15    16    42     1    110.700    313.800
   15    16    43     1    110.700    313.800
   16    17    44     1    110.700    313.800
   13    18    45     1    110.700    313.800
   13    18    46     1    110.700    313.800
   11    19    47     1    110.700    313.800
   11    19    48     1    110.700    313.800
   11    20    49     1    110.700    313.800
   11    20    50     1    110.700    313.800
   16    15    20     1    112.700    488.273
   11    19    17     1    112.700    488.273
   13    12    37     1    110.700    313.800
   12    11    20     1    112.700    488.273
   11     5    30     1    110.700    313.800
   13    12    36     1    110.700    313.800
   11    20    15     1    112.700    488.273
   36    12    37     1    107.800    276.144
   15    14    40     1    110.700    313.800
   17    19    48     1    110.700    313.800
   49    20    50     1    107.800    276.144
   39    14    40     1    107.800    276.144
   20    15    41     1    110.700    313.800
    7     6    32     1    109.500    292.880
    7     6    31     1    109.500    292.880
   16    15    41     1    110.700    313.800
    6     5    30     1    110.700    313.800
    3     2    25     1    110.700    313.800
    5     4    28     1    110.700    313.800
   33     9    35     1    107.800    276.144
   16    17    18     1    112.700    488.273
   45    18    46     1    107.800    276.144
    6     5    11     1    112.700    488.273
   42    16    43     1    107.800    276.144
   17    18    45     1    110.700    313.800
   16    17    19     1    112.700    488.273
   15    20    49     1    110.700    313.800
    9     8    10     1    120.400    669.440
   14    13    18     1    112.700    488.273
   15    20    50     1    110.700    313.800
   17    19    47     1    110.700    313.800
   19    11    20     1    112.700    488.273
   47    19    48     1    107.800    276.144
   17    18    46     1    110.700    313.800
    4     3    27     1    110.700    313.800
   21     1    23     1    107.800    276.144
   14    13    38     1    110.700    313.800
   21     1    22     1    107.800    276.144
    5     4    29     1    110.700    313.800
   12    11    19     1    112.700    488.273
   18    13    38     1    110.700    313.800
    4     3    26     1    110.700    313.800
   15    14    39     1    110.700    313.800
   34     9    35     1    107.800    276.144
   17    16    43     1    110.700    313.800
   33     9    34     1    107.800    276.144
   31     6    32     1    107.800    276.144
   28     4    29     1    107.800    276.144
   26     3    27     1    107.800    276.144
   18    17    44     1    110.700    313.800
   22     1    23     1    107.800    276.144
   19    17    44     1    110.700    313.800
   24     2    25     1    107.800    276.144
   18    17    19     1    112.700    488.273
   17    16    42     1    110.700    313.800
    3     2    24     1    110.700    313.800
   14    15    20     1    112.700    488.273
   13    18    17     1    112.700    488.273

[ dihedrals ]
; IMPROPER DIHEDRAL ANGLES 
;  ai    aj    ak    al funct            c0            c1            c2            c3            c4            c5
    10     8     7     9    4        180.000     43.932     2  

[ dihedrals ]
; PROPER DIHEDRAL ANGLES
;  ai    aj    ak    al funct            c0            c1            c2            c3            c4            c5
    8    7    6    5        3      -2.197   5.201   0.527  -3.531  -0.000   0.000
    9    8    7    6        3      31.206  -9.768  -21.439  -0.000  -0.000   0.000
    4    3    2    1        3       2.301  -1.464   0.837  -1.674  -0.000   0.000
   17   19   11   12        3       2.301  -1.464   0.837  -1.674  -0.000   0.000
   18   17   16   15        3       2.301  -1.464   0.837  -1.674  -0.000   0.000
   16   17   18   13        3       2.301  -1.464   0.837  -1.674  -0.000   0.000
   19   11    5    4        3       2.301  -1.464   0.837  -1.674  -0.000   0.000
   19   11   20   15        3       2.301  -1.464   0.837  -1.674  -0.000   0.000
   11    5    4    3        3       2.301  -1.464   0.837  -1.674  -0.000   0.000
   15   20   11    5        3       2.301  -1.464   0.837  -1.674  -0.000   0.000
   18   13   12   11        3       2.301  -1.464   0.837  -1.674  -0.000   0.000
   17   18   13   12        3       2.301  -1.464   0.837  -1.674  -0.000   0.000
   20   11    5    4        3       2.301  -1.464   0.837  -1.674  -0.000   0.000
   20   11   12   13        3       2.301  -1.464   0.837  -1.674  -0.000   0.000
   14   15   20   11        3       2.301  -1.464   0.837  -1.674  -0.000   0.000
   19   17   18   13        3       2.301  -1.464   0.837  -1.674  -0.000   0.000
   17   19   11    5        3       2.301  -1.464   0.837  -1.674  -0.000   0.000
   20   15   14   13        3       2.301  -1.464   0.837  -1.674  -0.000   0.000
   15   20   11   12        3       2.301  -1.464   0.837  -1.674  -0.000   0.000
   17   18   13   14        3       2.301  -1.464   0.837  -1.674  -0.000   0.000
   16   15   20   11        3       2.301  -1.464   0.837  -1.674  -0.000   0.000
   19   17   16   15        3       2.301  -1.464   0.837  -1.674  -0.000   0.000
   16   17   19   11        3       2.301  -1.464   0.837  -1.674  -0.000   0.000
   19   11   12   13        3       2.301  -1.464   0.837  -1.674  -0.000   0.000
   20   11   19   17        3       2.301  -1.464   0.837  -1.674  -0.000   0.000
   18   13   14   15        3       2.301  -1.464   0.837  -1.674  -0.000   0.000
   20   15   16   17        3       2.301  -1.464   0.837  -1.674  -0.000   0.000
   12   11    5    6        3       2.301  -1.464   0.837  -1.674  -0.000   0.000
   20   11    5    6        3       2.301  -1.464   0.837  -1.674  -0.000   0.000
   18   17   19   11        3       2.301  -1.464   0.837  -1.674  -0.000   0.000
   19   11    5    6        3       2.301  -1.464   0.837  -1.674  -0.000   0.000
    5    4    3    2        3       2.301  -1.464   0.837  -1.674  -0.000   0.000
    6    5    4    3        3       2.301  -1.464   0.837  -1.674  -0.000   0.000
   12   11    5    4        3       2.301  -1.464   0.837  -1.674  -0.000   0.000
   13   12   11    5        3       2.301  -1.464   0.837  -1.674  -0.000   0.000
   14   13   12   11        3       2.301  -1.464   0.837  -1.674  -0.000   0.000
   15   14   13   12        3       2.301  -1.464   0.837  -1.674  -0.000   0.000
   16   15   14   13        3       2.301  -1.464   0.837  -1.674  -0.000   0.000
   17   16   15   14        3       2.301  -1.464   0.837  -1.674  -0.000   0.000
   11    5    6    7        3       2.874   0.582   2.092  -5.548  -0.000   0.000
   33    9    8   10        3       0.000   0.000   0.000  -0.000  -0.000   0.000
   34    9    8   10        3       0.000   0.000   0.000  -0.000  -0.000   0.000
   35    9    8   10        3       0.000   0.000   0.000  -0.000  -0.000   0.000
   35    9    8    7        3       0.276   0.828   0.000  -1.105  -0.000   0.000
   33    9    8    7        3       0.276   0.828   0.000  -1.105  -0.000   0.000
   34    9    8    7        3       0.276   0.828   0.000  -1.105  -0.000   0.000
   32    6    5    4        3       0.628   1.883   0.000  -2.510  -0.000   0.000
   39   14   13   12        3       0.628   1.883   0.000  -2.510  -0.000   0.000
   31    6    5   11        3       0.628   1.883   0.000  -2.510  -0.000   0.000
   45   18   13   12        3       0.628   1.883   0.000  -2.510  -0.000   0.000
   41   15   14   13        3       0.628   1.883   0.000  -2.510  -0.000   0.000
   42   16   15   20        3       0.628   1.883   0.000  -2.510  -0.000   0.000
   46   18   17   16        3       0.628   1.883   0.000  -2.510  -0.000   0.000
   22    1    2    3        3       0.628   1.883   0.000  -2.510  -0.000   0.000
   42   16   17   18        3       0.628   1.883   0.000  -2.510  -0.000   0.000
   43   16   15   14        3       0.628   1.883   0.000  -2.510  -0.000   0.000
   38   13   12   11        3       0.628   1.883   0.000  -2.510  -0.000   0.000
   43   16   17   19        3       0.628   1.883   0.000  -2.510  -0.000   0.000
   30    5   11   12        3       0.628   1.883   0.000  -2.510  -0.000   0.000
   24    2    3    4        3       0.628   1.883   0.000  -2.510  -0.000   0.000
   27    3    2    1        3       0.628   1.883   0.000  -2.510  -0.000   0.000
   36   12   11   20        3       0.628   1.883   0.000  -2.510  -0.000   0.000
   37   12   11   19        3       0.628   1.883   0.000  -2.510  -0.000   0.000
   40   14   15   16        3       0.628   1.883   0.000  -2.510  -0.000   0.000
   30    5   11   19        3       0.628   1.883   0.000  -2.510  -0.000   0.000
   45   18   13   14        3       0.628   1.883   0.000  -2.510  -0.000   0.000
   49   20   11   12        3       0.628   1.883   0.000  -2.510  -0.000   0.000
   37   12   11   20        3       0.628   1.883   0.000  -2.510  -0.000   0.000
   50   20   11   19        3       0.628   1.883   0.000  -2.510  -0.000   0.000
   38   13   14   15        3       0.628   1.883   0.000  -2.510  -0.000   0.000
   37   12   11    5        3       0.628   1.883   0.000  -2.510  -0.000   0.000
   48   19   17   18        3       0.628   1.883   0.000  -2.510  -0.000   0.000
   45   18   17   19        3       0.628   1.883   0.000  -2.510  -0.000   0.000
   40   14   13   18        3       0.628   1.883   0.000  -2.510  -0.000   0.000
   36   12   13   14        3       0.628   1.883   0.000  -2.510  -0.000   0.000
   31    6    5    4        3       0.628   1.883   0.000  -2.510  -0.000   0.000
   36   12   11    5        3       0.628   1.883   0.000  -2.510  -0.000   0.000
   43   16   15   20        3       0.628   1.883   0.000  -2.510  -0.000   0.000
   39   14   13   18        3       0.628   1.883   0.000  -2.510  -0.000   0.000
   25    2    3    4        3       0.628   1.883   0.000  -2.510  -0.000   0.000
   36   12   13   18        3       0.628   1.883   0.000  -2.510  -0.000   0.000
   49   20   15   16        3       0.628   1.883   0.000  -2.510  -0.000   0.000
   41   15   20   11        3       0.628   1.883   0.000  -2.510  -0.000   0.000
   37   12   13   14        3       0.628   1.883   0.000  -2.510  -0.000   0.000
   49   20   15   14        3       0.628   1.883   0.000  -2.510  -0.000   0.000
   50   20   11   12        3       0.628   1.883   0.000  -2.510  -0.000   0.000
   40   14   13   12        3       0.628   1.883   0.000  -2.510  -0.000   0.000
   46   18   17   19        3       0.628   1.883   0.000  -2.510  -0.000   0.000
   29    4    5   11        3       0.628   1.883   0.000  -2.510  -0.000   0.000
   48   19   11    5        3       0.628   1.883   0.000  -2.510  -0.000   0.000
   48   19   17   16        3       0.628   1.883   0.000  -2.510  -0.000   0.000
   50   20   11    5        3       0.628   1.883   0.000  -2.510  -0.000   0.000
   47   19   17   18        3       0.628   1.883   0.000  -2.510  -0.000   0.000
   42   16   15   14        3       0.628   1.883   0.000  -2.510  -0.000   0.000
   47   19   11   20        3       0.628   1.883   0.000  -2.510  -0.000   0.000
   46   18   13   12        3       0.628   1.883   0.000  -2.510  -0.000   0.000
   28    4    5    6        3       0.628   1.883   0.000  -2.510  -0.000   0.000
   28    4    5   11        3       0.628   1.883   0.000  -2.510  -0.000   0.000
   48   19   11   20        3       0.628   1.883   0.000  -2.510  -0.000   0.000
   49   20   11   19        3       0.628   1.883   0.000  -2.510  -0.000   0.000
   32    6    5   11        3       0.628   1.883   0.000  -2.510  -0.000   0.000
   44   17   18   13        3       0.628   1.883   0.000  -2.510  -0.000   0.000
   47   19   11    5        3       0.628   1.883   0.000  -2.510  -0.000   0.000
   38   13   18   17        3       0.628   1.883   0.000  -2.510  -0.000   0.000
   26    3    2    1        3       0.628   1.883   0.000  -2.510  -0.000   0.000
   43   16   17   18        3       0.628   1.883   0.000  -2.510  -0.000   0.000
   36   12   11   19        3       0.628   1.883   0.000  -2.510  -0.000   0.000
   48   19   11   12        3       0.628   1.883   0.000  -2.510  -0.000   0.000
   47   19   11   12        3       0.628   1.883   0.000  -2.510  -0.000   0.000
   23    1    2    3        3       0.628   1.883   0.000  -2.510  -0.000   0.000
   37   12   13   18        3       0.628   1.883   0.000  -2.510  -0.000   0.000
   47   19   17   16        3       0.628   1.883   0.000  -2.510  -0.000   0.000
   44   17   19   11        3       0.628   1.883   0.000  -2.510  -0.000   0.000
   42   16   17   19        3       0.628   1.883   0.000  -2.510  -0.000   0.000
   49   20   11    5        3       0.628   1.883   0.000  -2.510  -0.000   0.000
   28    4    3    2        3       0.628   1.883   0.000  -2.510  -0.000   0.000
   39   14   15   16        3       0.628   1.883   0.000  -2.510  -0.000   0.000
   27    3    4    5        3       0.628   1.883   0.000  -2.510  -0.000   0.000
   30    5   11   20        3       0.628   1.883   0.000  -2.510  -0.000   0.000
   45   18   17   16        3       0.628   1.883   0.000  -2.510  -0.000   0.000
   50   20   15   16        3       0.628   1.883   0.000  -2.510  -0.000   0.000
   41   15   16   17        3       0.628   1.883   0.000  -2.510  -0.000   0.000
   29    4    3    2        3       0.628   1.883   0.000  -2.510  -0.000   0.000
   44   17   16   15        3       0.628   1.883   0.000  -2.510  -0.000   0.000
   40   14   15   20        3       0.628   1.883   0.000  -2.510  -0.000   0.000
   46   18   13   14        3       0.628   1.883   0.000  -2.510  -0.000   0.000
   30    5    4    3        3       0.628   1.883   0.000  -2.510  -0.000   0.000
   39   14   15   20        3       0.628   1.883   0.000  -2.510  -0.000   0.000
   26    3    4    5        3       0.628   1.883   0.000  -2.510  -0.000   0.000
   21    1    2    3        3       0.628   1.883   0.000  -2.510  -0.000   0.000
   50   20   15   14        3       0.628   1.883   0.000  -2.510  -0.000   0.000
   29    4    5    6        3       0.628   1.883   0.000  -2.510  -0.000   0.000
   40   14   13   38        3       0.628   1.883   0.000  -2.510  -0.000   0.000
   25    2    1   21        3       0.628   1.883   0.000  -2.510  -0.000   0.000
   50   20   15   41        3       0.628   1.883   0.000  -2.510  -0.000   0.000
   41   15   14   40        3       0.628   1.883   0.000  -2.510  -0.000   0.000
   44   17   16   42        3       0.628   1.883   0.000  -2.510  -0.000   0.000
   45   18   17   44        3       0.628   1.883   0.000  -2.510  -0.000   0.000
   29    4    3   26        3       0.628   1.883   0.000  -2.510  -0.000   0.000
   28    4    3   26        3       0.628   1.883   0.000  -2.510  -0.000   0.000
   39   14   13   38        3       0.628   1.883   0.000  -2.510  -0.000   0.000
   38   13   12   36        3       0.628   1.883   0.000  -2.510  -0.000   0.000
   38   13   12   37        3       0.628   1.883   0.000  -2.510  -0.000   0.000
   27    3    2   25        3       0.628   1.883   0.000  -2.510  -0.000   0.000
   28    4    3   27        3       0.628   1.883   0.000  -2.510  -0.000   0.000
   43   16   15   41        3       0.628   1.883   0.000  -2.510  -0.000   0.000
   26    3    2   25        3       0.628   1.883   0.000  -2.510  -0.000   0.000
   29    4    3   27        3       0.628   1.883   0.000  -2.510  -0.000   0.000
   49   20   15   41        3       0.628   1.883   0.000  -2.510  -0.000   0.000
   26    3    2   24        3       0.628   1.883   0.000  -2.510  -0.000   0.000
   46   18   13   38        3       0.628   1.883   0.000  -2.510  -0.000   0.000
   27    3    2   24        3       0.628   1.883   0.000  -2.510  -0.000   0.000
   44   17   16   43        3       0.628   1.883   0.000  -2.510  -0.000   0.000
   47   19   17   44        3       0.628   1.883   0.000  -2.510  -0.000   0.000
   25    2    1   23        3       0.628   1.883   0.000  -2.510  -0.000   0.000
   30    5    4   29        3       0.628   1.883   0.000  -2.510  -0.000   0.000
   46   18   17   44        3       0.628   1.883   0.000  -2.510  -0.000   0.000
   32    6    5   30        3       0.628   1.883   0.000  -2.510  -0.000   0.000
   24    2    1   23        3       0.628   1.883   0.000  -2.510  -0.000   0.000
   31    6    5   30        3       0.628   1.883   0.000  -2.510  -0.000   0.000
   41   15   14   39        3       0.628   1.883   0.000  -2.510  -0.000   0.000
   42   16   15   41        3       0.628   1.883   0.000  -2.510  -0.000   0.000
   48   19   17   44        3       0.628   1.883   0.000  -2.510  -0.000   0.000
   30    5    4   28        3       0.628   1.883   0.000  -2.510  -0.000   0.000
   45   18   13   38        3       0.628   1.883   0.000  -2.510  -0.000   0.000
   24    2    1   22        3       0.628   1.883   0.000  -2.510  -0.000   0.000
   24    2    1   21        3       0.628   1.883   0.000  -2.510  -0.000   0.000
   25    2    1   22        3       0.628   1.883   0.000  -2.510  -0.000   0.000
   30    5    6    7        3       0.979   2.937   0.000  -3.916  -0.000   0.000
   32    6    7    8        3       0.414   1.243   0.000  -1.657  -0.000   0.000
   31    6    7    8        3       0.414   1.243   0.000  -1.657  -0.000   0.000
   10    8    7    6        3      21.439   0.000  -21.439  -0.000  -0.000   0.000
    7    6    5    4        3       2.874   0.582   2.092  -5.548  -0.000   0.000

[ pairs ]
     1     4    1
     2     5    1
     3     6    1
     4     7    1
     5     8    1
     3    11    1
     6     9    1
     6    10    1
     4    12    1
     7    11    1
     6    12    1
     5    13    1
     5    15    1
     5    17    1
     4    19    1
     4    20    1
     3    21    1
    11    14    1
     6    19    1
     3    22    1
     6    20    1
     3    23    1
    12    15    1
    11    16    1
     1    26    1
     4    24    1
     1    27    1
    13    16    1
    12    17    1
    11    18    1
     4    25    1
     2    28    1
    14    17    1
     5    26    1
     2    29    1
    13    19    1
     5    27    1
    15    18    1
    13    20    1
     3    30    1
    15    19    1
     6    28    1
     6    29    1
     4    31    1
     4    32    1
    17    20    1
     7    30    1
    11    28    1
     8    31    1
    11    29    1
     8    32    1
     7    33    1
     7    34    1
     5    36    1
    12    30    1
    11    31    1
     7    35    1
     5    37    1
    11    32    1
    10    33    1
    10    34    1
    21    24    1
    10    35    1
    22    24    1
    21    25    1
    23    24    1
    22    25    1
    23    25    1
    19    30    1
    11    38    1
    24    26    1
    20    30    1
    14    36    1
    25    26    1
    24    27    1
    14    37    1
    12    39    1
    25    27    1
    12    40    1
    11    41    1
     5    47    1
    15    38    1
     5    48    1
    26    28    1
    18    36    1
    13    41    1
     5    49    1
    27    28    1
    26    29    1
    19    36    1
    18    37    1
    17    38    1
    16    39    1
    11    44    1
     5    50    1
    27    29    1
    20    36    1
    19    37    1
    16    40    1
    14    42    1
    20    37    1
    18    39    1
    14    43    1
    13    44    1
    12    45    1
    28    30    1
    18    40    1
    17    41    1
    12    46    1
    29    30    1
    20    39    1
    15    44    1
    14    45    1
    12    47    1
    20    40    1
    18    42    1
    14    46    1
    12    48    1
    30    31    1
    19    42    1
    18    43    1
    16    45    1
    12    49    1
    30    32    1
    20    42    1
    19    43    1
    16    46    1
    12    50    1
    20    43    1
    16    47    1
    14    49    1
    19    45    1
    16    48    1
    14    50    1
    19    46    1
    18    47    1
    16    49    1
    18    48    1
    16    50    1
    20    47    1
    20    48    1
    19    49    1
    19    50    1
    36    38    1
    37    38    1
    38    39    1
    38    40    1
    39    41    1
    40    41    1
    41    42    1
    38    45    1
    41    43    1
    38    46    1
    42    44    1
    43    44    1
    44    45    1
    44    46    1
    41    49    1
    44    47    1
    41    50    1
    44    48    1

