LIGPARGEN GENERATED GRO FILE
   36
    1UNK    C00    1   0.100   0.100   0.000
    1UNK    C01    2  -0.054   0.100   0.000
    1UNK    C02    3  -0.101   0.100   0.145
    1UNK    C03    4  -0.105   0.219  -0.086
    1UNK    C04    5  -0.260   0.235  -0.110
    1UNK    C05    6  -0.317   0.101  -0.162
    1UNK    C06    7  -0.333   0.269   0.022
    1UNK    C07    8  -0.292   0.352  -0.212
    1UNK    C08    9  -0.241   0.489  -0.164
    1UNK    C09   10  -0.244   0.329  -0.354
    1UNK    C0A   11  -0.314   0.236  -0.451
    1UNK    C0B   12  -0.328   0.385  -0.467
    1UNK    H0C   13   0.139   0.015   0.057
    1UNK    H0D   14   0.139   0.192   0.045
    1UNK    H0E   15   0.139   0.092  -0.102
    1UNK    H0F   16  -0.086   0.006  -0.046
    1UNK    H0G   17  -0.094   0.200   0.190
    1UNK    H0H   18  -0.042   0.032   0.207
    1UNK    H0I   19  -0.205   0.066   0.153
    1UNK    H0J   20  -0.057   0.210  -0.184
    1UNK    H0K   21  -0.066   0.312  -0.041
    1UNK    H0M   22  -0.312   0.023  -0.086
    1UNK    H0N   23  -0.261   0.065  -0.249
    1UNK    H0O   24  -0.422   0.112  -0.191
    1UNK    H0P   25  -0.360   0.179   0.079
    1UNK    H0Q   26  -0.428   0.320   0.003
    1UNK    H0R   27  -0.273   0.333   0.086
    1UNK    H0S   28  -0.402   0.359  -0.216
    1UNK    H0T   29  -0.132   0.493  -0.162
    1UNK    H0U   30  -0.279   0.515  -0.065
    1UNK    H0V   31  -0.275   0.568  -0.233
    1UNK    H0W   32  -0.136   0.339  -0.363
    1UNK    H0X   33  -0.402   0.182  -0.419
    1UNK    H0Y   34  -0.252   0.183  -0.522
    1UNK    H0Z   35  -0.425   0.427  -0.445
    1UNK    H10   36  -0.278   0.431  -0.551
   1.00000   1.00000   1.00000

