
;
; GENERATED BY LigParGen Server
; Jorgensen Lab @ Yale University 
;
[ atomtypes ]
  opls_814  C814    12.0110     0.000    A    3.50000E-01   2.76144E-01
  opls_824  H824     1.0080     0.000    A    2.50000E-01   1.25520E-01
  opls_810  F810    18.9984     0.000    A    2.90000E-01   2.51040E-01
  opls_804  C804    12.0110     0.000    A    3.50000E-01   2.76144E-01
  opls_818  C818    12.0110     0.000    A    3.50000E-01   2.76144E-01
  opls_848  H848     1.0080     0.000    A    2.50000E-01   1.25520E-01
  opls_843  H843     1.0080     0.000    A    2.50000E-01   1.25520E-01
  opls_836  H836     1.0080     0.000    A    2.50000E-01   1.25520E-01
  opls_834  H834     1.0080     0.000    A    2.50000E-01   1.25520E-01
  opls_828  H828     1.0080     0.000    A    2.50000E-01   1.25520E-01
  opls_851  H851     1.0080     0.000    A    2.50000E-01   1.25520E-01
  opls_812  C812    12.0110     0.000    A    3.50000E-01   2.76144E-01
  opls_802  C802    12.0110     0.000    A    3.50000E-01   2.76144E-01
  opls_827  H827     1.0080     0.000    A    2.50000E-01   1.25520E-01
  opls_809  C809    12.0110     0.000    A    3.50000E-01   2.76144E-01
  opls_806  C806    12.0110     0.000    A    3.50000E-01   2.76144E-01
  opls_822  H822     1.0080     0.000    A    2.50000E-01   1.25520E-01
  opls_803  C803    12.0110     0.000    A    3.50000E-01   2.76144E-01
  opls_838  H838     1.0080     0.000    A    2.50000E-01   1.25520E-01
  opls_830  H830     1.0080     0.000    A    2.50000E-01   1.25520E-01
  opls_821  H821     1.0080     0.000    A    2.50000E-01   1.25520E-01
  opls_842  H842     1.0080     0.000    A    2.50000E-01   1.25520E-01
  opls_826  H826     1.0080     0.000    A    2.50000E-01   1.25520E-01
  opls_837  H837     1.0080     0.000    A    2.50000E-01   1.25520E-01
  opls_829  H829     1.0080     0.000    A    2.50000E-01   1.25520E-01
  opls_831  H831     1.0080     0.000    A    2.50000E-01   1.25520E-01
  opls_832  H832     1.0080     0.000    A    2.50000E-01   1.25520E-01
  opls_800  C800    12.0110     0.000    A    3.50000E-01   2.76144E-01
  opls_805  C805    12.0110     0.000    A    3.50000E-01   2.76144E-01
  opls_846  H846     1.0080     0.000    A    2.50000E-01   1.25520E-01
  opls_815  C815    12.0110     0.000    A    3.50000E-01   2.76144E-01
  opls_823  H823     1.0080     0.000    A    2.50000E-01   1.25520E-01
  opls_819  C819    12.0110     0.000    A    3.50000E-01   2.76144E-01
  opls_820  C820    12.0110     0.000    A    3.50000E-01   2.76144E-01
  opls_835  H835     1.0080     0.000    A    2.50000E-01   1.25520E-01
  opls_841  H841     1.0080     0.000    A    2.50000E-01   1.25520E-01
  opls_825  H825     1.0080     0.000    A    2.50000E-01   1.25520E-01
  opls_816  C816    12.0110     0.000    A    3.50000E-01   2.76144E-01
  opls_833  H833     1.0080     0.000    A    2.50000E-01   1.25520E-01
  opls_839  H839     1.0080     0.000    A    2.50000E-01   1.25520E-01
  opls_817  C817    12.0110     0.000    A    3.50000E-01   2.76144E-01
  opls_852  H852     1.0080     0.000    A    2.50000E-01   1.25520E-01
  opls_801  C801    12.0110     0.000    A    3.50000E-01   2.76144E-01
  opls_808  C808    12.0110     0.000    A    3.50000E-01   2.76144E-01
  opls_850  H850     1.0080     0.000    A    2.50000E-01   1.25520E-01
  opls_840  H840     1.0080     0.000    A    2.50000E-01   1.25520E-01
  opls_849  H849     1.0080     0.000    A    2.50000E-01   1.25520E-01
  opls_813  C813    12.0110     0.000    A    3.50000E-01   2.76144E-01
  opls_847  H847     1.0080     0.000    A    2.50000E-01   1.25520E-01
  opls_844  H844     1.0080     0.000    A    2.50000E-01   1.25520E-01
  opls_845  H845     1.0080     0.000    A    2.50000E-01   1.25520E-01
  opls_811  F811    18.9984     0.000    A    2.90000E-01   2.51040E-01
  opls_807  C807    12.0110     0.000    A    3.50000E-01   2.76144E-01
[ moleculetype ]
; Name               nrexcl
UNK                   3
[ atoms ]
;   nr       type  resnr residue  atom   cgnr     charge       mass  
     1   opls_800      1    UNK   C00      1      -0.23    12.0110 
     2   opls_801      1    UNK   C01      1    -0.0529    12.0110 
     3   opls_802      1    UNK   C02      1    -0.1681    12.0110 
     4   opls_803      1    UNK   C03      1    -0.1671    12.0110 
     5   opls_804      1    UNK   C04      1    -0.0935    12.0110 
     6   opls_805      1    UNK   C05      1    -0.1769    12.0110 
     7   opls_806      1    UNK   C06      1    -0.1743    12.0110 
     8   opls_807      1    UNK   C07      1    -0.1729    12.0110 
     9   opls_808      1    UNK   C08      1    -0.1607    12.0110 
    10   opls_809      1    UNK   C09      1     0.3017    12.0110 
    11   opls_810      1    UNK   F0A      1    -0.1784    18.9984 
    12   opls_811      1    UNK   F0B      1    -0.1784    18.9984 
    13   opls_812      1    UNK   C0C      1    -0.2408    12.0110 
    14   opls_813      1    UNK   C0D      1    -0.1787    12.0110 
    15   opls_814      1    UNK   C0E      1    -0.1808    12.0110 
    16   opls_815      1    UNK   C0F      1     -0.014    12.0110 
    17   opls_816      1    UNK   C0G      1    -0.2386    12.0110 
    18   opls_817      1    UNK   C0H      1    -0.1721    12.0110 
    19   opls_818      1    UNK   C0I      1    -0.1808    12.0110 
    20   opls_819      1    UNK   C0J      1    -0.1792    12.0110 
    21   opls_820      1    UNK   C0K      1    -0.1696    12.0110 
    22   opls_821      1    UNK   H0M      1     0.0821     1.0080 
    23   opls_822      1    UNK   H0N      1     0.0821     1.0080 
    24   opls_823      1    UNK   H0O      1     0.0821     1.0080 
    25   opls_824      1    UNK   H0P      1     0.0886     1.0080 
    26   opls_825      1    UNK   H0Q      1     0.0886     1.0080 
    27   opls_826      1    UNK   H0R      1     0.0923     1.0080 
    28   opls_827      1    UNK   H0S      1     0.0923     1.0080 
    29   opls_828      1    UNK   H0T      1     0.0927     1.0080 
    30   opls_829      1    UNK   H0U      1     0.0899     1.0080 
    31   opls_830      1    UNK   H0V      1     0.0899     1.0080 
    32   opls_831      1    UNK   H0W      1     0.0902     1.0080 
    33   opls_832      1    UNK   H0X      2     0.0902     1.0080 
    34   opls_833      1    UNK   H0Y      2     0.1052     1.0080 
    35   opls_834      1    UNK   H0Z      2     0.1052     1.0080 
    36   opls_835      1    UNK   H10      2      0.116     1.0080 
    37   opls_836      1    UNK   H11      2      0.118     1.0080 
    38   opls_837      1    UNK   H12      2      0.118     1.0080 
    39   opls_838      1    UNK   H13      2     0.1006     1.0080 
    40   opls_839      1    UNK   H14      2     0.1006     1.0080 
    41   opls_840      1    UNK   H15      2     0.0955     1.0080 
    42   opls_841      1    UNK   H16      2     0.0955     1.0080 
    43   opls_842      1    UNK   H17      2     0.0881     1.0080 
    44   opls_843      1    UNK   H18      2     0.0881     1.0080 
    45   opls_844      1    UNK   H19      2     0.0881     1.0080 
    46   opls_845      1    UNK   H1A      2     0.0931     1.0080 
    47   opls_846      1    UNK   H1B      2     0.0931     1.0080 
    48   opls_847      1    UNK   H1C      2     0.0894     1.0080 
    49   opls_848      1    UNK   H1D      2     0.0894     1.0080 
    50   opls_849      1    UNK   H1E      2     0.0881     1.0080 
    51   opls_850      1    UNK   H1F      2     0.0881     1.0080 
    52   opls_851      1    UNK   H1G      2     0.0927     1.0080 
    53   opls_852      1    UNK   H1H      2     0.0927     1.0080 
[ bonds ]
    2     1     1      0.1529 224262.400
    3     2     1      0.1529 224262.400
    4     3     1      0.1529 224262.400
    5     4     1      0.1529 224262.400
    6     5     1      0.1529 224262.400
    7     6     1      0.1529 224262.400
    8     7     1      0.1529 224262.400
    9     8     1      0.1529 224262.400
   10     9     1      0.1529 224262.400
   11    10     1      0.1360 307105.600
   12    10     1      0.1360 307105.600
   13    10     1      0.1529 224262.400
   14    13     1      0.1529 224262.400
   15    14     1      0.1529 224262.400
   16     5     1      0.1529 224262.400
   17    16     1      0.1529 224262.400
   18     2     1      0.1529 224262.400
   19    18     1      0.1529 224262.400
   20    19     1      0.1529 224262.400
   21     2     1      0.1529 224262.400
   22     1     1      0.1090 284512.000
   23     1     1      0.1090 284512.000
   24     1     1      0.1090 284512.000
   25     3     1      0.1090 284512.000
   26     3     1      0.1090 284512.000
   27     4     1      0.1090 284512.000
   28     4     1      0.1090 284512.000
   29     5     1      0.1090 284512.000
   30     6     1      0.1090 284512.000
   31     6     1      0.1090 284512.000
   32     7     1      0.1090 284512.000
   33     7     1      0.1090 284512.000
   34     8     1      0.1090 284512.000
   35     8     1      0.1090 284512.000
   36     9     1      0.1090 284512.000
   37    13     1      0.1090 284512.000
   38    13     1      0.1090 284512.000
   39    14     1      0.1090 284512.000
   40    14     1      0.1090 284512.000
   41    15     1      0.1090 284512.000
   42    15     1      0.1090 284512.000
   43    17     1      0.1090 284512.000
   44    17     1      0.1090 284512.000
   45    17     1      0.1090 284512.000
   46    18     1      0.1090 284512.000
   47    18     1      0.1090 284512.000
   48    19     1      0.1090 284512.000
   49    19     1      0.1090 284512.000
   50    20     1      0.1090 284512.000
   51    20     1      0.1090 284512.000
   52    21     1      0.1090 284512.000
   53    21     1      0.1090 284512.000
   16     9     1      0.1529 224262.400
   16    15     1      0.1529 224262.400
   21    20     1      0.1529 224262.400

[ angles ]
;  ai    aj    ak funct            c0            c1            c2            c3 
    1     2     3     1    112.700    488.273
    2     3     4     1    112.700    488.273
    3     4     5     1    112.700    488.273
    4     5     6     1    112.700    488.273
    5     6     7     1    112.700    488.273
    6     7     8     1    112.700    488.273
    7     8     9     1    112.700    488.273
    8     9    10     1    112.700    488.273
    9    10    11     1    109.500    418.400
    9    10    12     1    109.500    418.400
    9    10    13     1    112.700    488.273
   10    13    14     1    112.700    488.273
   13    14    15     1    112.700    488.273
    4     5    16     1    112.700    488.273
    5    16    17     1    112.700    488.273
    1     2    18     1    112.700    488.273
    2    18    19     1    112.700    488.273
   18    19    20     1    112.700    488.273
    1     2    21     1    112.700    488.273
    2     1    22     1    110.700    313.800
    2     1    23     1    110.700    313.800
    2     1    24     1    110.700    313.800
    2     3    25     1    110.700    313.800
    2     3    26     1    110.700    313.800
    3     4    27     1    110.700    313.800
    3     4    28     1    110.700    313.800
    4     5    29     1    110.700    313.800
    5     6    30     1    110.700    313.800
    5     6    31     1    110.700    313.800
    6     7    32     1    110.700    313.800
    6     7    33     1    110.700    313.800
    7     8    34     1    110.700    313.800
    7     8    35     1    110.700    313.800
    8     9    36     1    110.700    313.800
   10    13    37     1    110.700    313.800
   10    13    38     1    110.700    313.800
   13    14    39     1    110.700    313.800
   13    14    40     1    110.700    313.800
   14    15    41     1    110.700    313.800
   14    15    42     1    110.700    313.800
   16    17    43     1    110.700    313.800
   16    17    44     1    110.700    313.800
   16    17    45     1    110.700    313.800
    2    18    46     1    110.700    313.800
    2    18    47     1    110.700    313.800
   18    19    48     1    110.700    313.800
   18    19    49     1    110.700    313.800
   19    20    50     1    110.700    313.800
   19    20    51     1    110.700    313.800
    2    21    52     1    110.700    313.800
    2    21    53     1    110.700    313.800
   10     9    16     1    112.700    488.273
   11    10    12     1    109.100    644.336
   27     4    28     1    107.800    276.144
   15    14    40     1    110.700    313.800
   43    17    45     1    107.800    276.144
   44    17    45     1    107.800    276.144
   16    15    42     1    110.700    313.800
   39    14    40     1    107.800    276.144
    6     5    16     1    112.700    488.273
   19    20    21     1    112.700    488.273
    5     4    27     1    110.700    313.800
    8     9    16     1    112.700    488.273
    7     6    31     1    110.700    313.800
   16    15    41     1    110.700    313.800
   34     8    35     1    107.800    276.144
    5     4    28     1    110.700    313.800
   21    20    51     1    110.700    313.800
    5    16    15     1    112.700    488.273
    2    21    20     1    112.700    488.273
   23     1    24     1    107.800    276.144
    9    16    15     1    112.700    488.273
    8     7    32     1    110.700    313.800
    9     8    34     1    110.700    313.800
   37    13    38     1    107.800    276.144
    8     7    33     1    110.700    313.800
   11    10    13     1    109.500    418.400
   20    19    48     1    110.700    313.800
   15    16    17     1    112.700    488.273
   20    21    52     1    110.700    313.800
   41    15    42     1    107.800    276.144
   16     9    36     1    110.700    313.800
   43    17    44     1    107.800    276.144
   52    21    53     1    107.800    276.144
   21    20    50     1    110.700    313.800
   32     7    33     1    107.800    276.144
   19    18    47     1    110.700    313.800
   18     2    21     1    112.700    488.273
   20    19    49     1    110.700    313.800
   50    20    51     1    107.800    276.144
   46    18    47     1    107.800    276.144
    4     3    25     1    110.700    313.800
   14    13    38     1    110.700    313.800
   20    21    53     1    110.700    313.800
   22     1    24     1    107.800    276.144
   14    15    16     1    112.700    488.273
   25     3    26     1    107.800    276.144
    4     3    26     1    110.700    313.800
   15    14    39     1    110.700    313.800
   48    19    49     1    107.800    276.144
    3     2    18     1    112.700    488.273
    3     2    21     1    112.700    488.273
   14    13    37     1    110.700    313.800
    9    16    17     1    112.700    488.273
    7     6    30     1    110.700    313.800
   30     6    31     1    107.800    276.144
   12    10    13     1    109.500    418.400
   22     1    23     1    107.800    276.144
    9     8    35     1    110.700    313.800
    5    16     9     1    112.700    488.273
   10     9    36     1    110.700    313.800
   16     5    29     1    110.700    313.800
   19    18    46     1    110.700    313.800
    6     5    29     1    110.700    313.800

[ dihedrals ]
; IMPROPER DIHEDRAL ANGLES 
;  ai    aj    ak    al funct            c0            c1            c2            c3            c4            c5

[ dihedrals ]
; PROPER DIHEDRAL ANGLES
;  ai    aj    ak    al funct            c0            c1            c2            c3            c4            c5
   10    9   16    5        3       2.301  -1.464   0.837  -1.674  -0.000   0.000
   10    9    8    7        3       2.301  -1.464   0.837  -1.674  -0.000   0.000
   13   10    9    8        3       2.301  -1.464   0.837  -1.674  -0.000   0.000
   14   13   10    9        3       2.301  -1.464   0.837  -1.674  -0.000   0.000
   16    9   10   13        3       2.301  -1.464   0.837  -1.674  -0.000   0.000
   14   13   10   11        3       0.000   0.000   0.000  -0.000  -0.000   0.000
   16    9   10   12        3       0.000   0.000   0.000  -0.000  -0.000   0.000
   16    9   10   11        3       0.000   0.000   0.000  -0.000  -0.000   0.000
   14   13   10   12        3       0.000   0.000   0.000  -0.000  -0.000   0.000
   15   14   13   10        3       2.301  -1.464   0.837  -1.674  -0.000   0.000
   17   16    9   10        3       2.301  -1.464   0.837  -1.674  -0.000   0.000
   15   16    9   10        3       2.301  -1.464   0.837  -1.674  -0.000   0.000
   20   21    2   18        3       2.301  -1.464   0.837  -1.674  -0.000   0.000
   21    2   18   19        3       2.301  -1.464   0.837  -1.674  -0.000   0.000
   21   20   19   18        3       2.301  -1.464   0.837  -1.674  -0.000   0.000
   21    2    3    4        3       2.301  -1.464   0.837  -1.674  -0.000   0.000
   19   20   21    2        3       2.301  -1.464   0.837  -1.674  -0.000   0.000
   16    5    6    7        3       2.301  -1.464   0.837  -1.674  -0.000   0.000
   16    9    8    7        3       2.301  -1.464   0.837  -1.674  -0.000   0.000
   15   16    9    8        3       2.301  -1.464   0.837  -1.674  -0.000   0.000
   17   16    5    6        3       2.301  -1.464   0.837  -1.674  -0.000   0.000
   16   15   14   13        3       2.301  -1.464   0.837  -1.674  -0.000   0.000
   17   16    5    4        3       2.301  -1.464   0.837  -1.674  -0.000   0.000
    9   16    5    6        3       2.301  -1.464   0.837  -1.674  -0.000   0.000
   15   16    5    4        3       2.301  -1.464   0.837  -1.674  -0.000   0.000
   16    5    4    3        3       2.301  -1.464   0.837  -1.674  -0.000   0.000
    8    9   16    5        3       2.301  -1.464   0.837  -1.674  -0.000   0.000
   14   15   16    9        3       2.301  -1.464   0.837  -1.674  -0.000   0.000
   17   16    9    8        3       2.301  -1.464   0.837  -1.674  -0.000   0.000
   15   16    5    6        3       2.301  -1.464   0.837  -1.674  -0.000   0.000
   20   21    2    1        3       2.301  -1.464   0.837  -1.674  -0.000   0.000
    4    3    2    1        3       2.301  -1.464   0.837  -1.674  -0.000   0.000
    9    8    7    6        3       2.301  -1.464   0.837  -1.674  -0.000   0.000
   19   18    2    1        3       2.301  -1.464   0.837  -1.674  -0.000   0.000
   19   18    2    3        3       2.301  -1.464   0.837  -1.674  -0.000   0.000
   20   21    2    3        3       2.301  -1.464   0.837  -1.674  -0.000   0.000
    9   16    5    4        3       2.301  -1.464   0.837  -1.674  -0.000   0.000
   20   19   18    2        3       2.301  -1.464   0.837  -1.674  -0.000   0.000
    8    7    6    5        3       2.301  -1.464   0.837  -1.674  -0.000   0.000
    7    6    5    4        3       2.301  -1.464   0.837  -1.674  -0.000   0.000
   18    2    3    4        3       2.301  -1.464   0.837  -1.674  -0.000   0.000
   17   16   15   14        3       2.301  -1.464   0.837  -1.674  -0.000   0.000
    6    5    4    3        3       2.301  -1.464   0.837  -1.674  -0.000   0.000
   14   15   16    5        3       2.301  -1.464   0.837  -1.674  -0.000   0.000
    5    4    3    2        3       2.301  -1.464   0.837  -1.674  -0.000   0.000
   11   10    9    8        3       0.000   0.000   0.000  -0.000  -0.000   0.000
   12   10    9    8        3       0.000   0.000   0.000  -0.000  -0.000   0.000
   36    9   10   13        3       0.628   1.883   0.000  -2.510  -0.000   0.000
   37   13   10    9        3       0.628   1.883   0.000  -2.510  -0.000   0.000
   38   13   10    9        3       0.628   1.883   0.000  -2.510  -0.000   0.000
   38   13   10   11        3       0.753   2.259   0.000  -3.012  -0.000   0.000
   37   13   10   12        3       0.753   2.259   0.000  -3.012  -0.000   0.000
   38   13   10   12        3       0.753   2.259   0.000  -3.012  -0.000   0.000
   36    9   10   12        3       0.753   2.259   0.000  -3.012  -0.000   0.000
   36    9   10   11        3       0.753   2.259   0.000  -3.012  -0.000   0.000
   37   13   10   11        3       0.753   2.259   0.000  -3.012  -0.000   0.000
   35    8    9   10        3       0.628   1.883   0.000  -2.510  -0.000   0.000
   39   14   13   10        3       0.628   1.883   0.000  -2.510  -0.000   0.000
   34    8    9   10        3       0.628   1.883   0.000  -2.510  -0.000   0.000
   40   14   13   10        3       0.628   1.883   0.000  -2.510  -0.000   0.000
   41   15   16    5        3       0.628   1.883   0.000  -2.510  -0.000   0.000
   29    5   16    9        3       0.628   1.883   0.000  -2.510  -0.000   0.000
   24    1    2    3        3       0.628   1.883   0.000  -2.510  -0.000   0.000
   30    6    5    4        3       0.628   1.883   0.000  -2.510  -0.000   0.000
   52   21    2    3        3       0.628   1.883   0.000  -2.510  -0.000   0.000
   23    1    2   18        3       0.628   1.883   0.000  -2.510  -0.000   0.000
   28    4    5    6        3       0.628   1.883   0.000  -2.510  -0.000   0.000
   49   19   18    2        3       0.628   1.883   0.000  -2.510  -0.000   0.000
   38   13   14   15        3       0.628   1.883   0.000  -2.510  -0.000   0.000
   36    9   16    5        3       0.628   1.883   0.000  -2.510  -0.000   0.000
   27    4    5    6        3       0.628   1.883   0.000  -2.510  -0.000   0.000
   50   20   21    2        3       0.628   1.883   0.000  -2.510  -0.000   0.000
   40   14   15   16        3       0.628   1.883   0.000  -2.510  -0.000   0.000
   42   15   16    9        3       0.628   1.883   0.000  -2.510  -0.000   0.000
   32    7    8    9        3       0.628   1.883   0.000  -2.510  -0.000   0.000
   47   18    2    3        3       0.628   1.883   0.000  -2.510  -0.000   0.000
   48   19   18    2        3       0.628   1.883   0.000  -2.510  -0.000   0.000
   29    5    4    3        3       0.628   1.883   0.000  -2.510  -0.000   0.000
   46   18    2    1        3       0.628   1.883   0.000  -2.510  -0.000   0.000
   47   18    2   21        3       0.628   1.883   0.000  -2.510  -0.000   0.000
   47   18   19   20        3       0.628   1.883   0.000  -2.510  -0.000   0.000
   51   20   19   18        3       0.628   1.883   0.000  -2.510  -0.000   0.000
   22    1    2   18        3       0.628   1.883   0.000  -2.510  -0.000   0.000
   25    3    2    1        3       0.628   1.883   0.000  -2.510  -0.000   0.000
   35    8    9   16        3       0.628   1.883   0.000  -2.510  -0.000   0.000
   49   19   20   21        3       0.628   1.883   0.000  -2.510  -0.000   0.000
   44   17   16    5        3       0.628   1.883   0.000  -2.510  -0.000   0.000
   53   21   20   19        3       0.628   1.883   0.000  -2.510  -0.000   0.000
   25    3    2   18        3       0.628   1.883   0.000  -2.510  -0.000   0.000
   46   18    2    3        3       0.628   1.883   0.000  -2.510  -0.000   0.000
   53   21    2    3        3       0.628   1.883   0.000  -2.510  -0.000   0.000
   37   13   14   15        3       0.628   1.883   0.000  -2.510  -0.000   0.000
   36    9   16   17        3       0.628   1.883   0.000  -2.510  -0.000   0.000
   26    3    2   21        3       0.628   1.883   0.000  -2.510  -0.000   0.000
   33    7    8    9        3       0.628   1.883   0.000  -2.510  -0.000   0.000
   24    1    2   21        3       0.628   1.883   0.000  -2.510  -0.000   0.000
   31    6    7    8        3       0.628   1.883   0.000  -2.510  -0.000   0.000
   32    7    6    5        3       0.628   1.883   0.000  -2.510  -0.000   0.000
   27    4    3    2        3       0.628   1.883   0.000  -2.510  -0.000   0.000
   42   15   14   13        3       0.628   1.883   0.000  -2.510  -0.000   0.000
   29    5    6    7        3       0.628   1.883   0.000  -2.510  -0.000   0.000
   23    1    2   21        3       0.628   1.883   0.000  -2.510  -0.000   0.000
   41   15   14   13        3       0.628   1.883   0.000  -2.510  -0.000   0.000
   31    6    5    4        3       0.628   1.883   0.000  -2.510  -0.000   0.000
   31    6    5   16        3       0.628   1.883   0.000  -2.510  -0.000   0.000
   44   17   16    9        3       0.628   1.883   0.000  -2.510  -0.000   0.000
   35    8    7    6        3       0.628   1.883   0.000  -2.510  -0.000   0.000
   28    4    5   16        3       0.628   1.883   0.000  -2.510  -0.000   0.000
   36    9   16   15        3       0.628   1.883   0.000  -2.510  -0.000   0.000
   45   17   16    5        3       0.628   1.883   0.000  -2.510  -0.000   0.000
   26    3    2   18        3       0.628   1.883   0.000  -2.510  -0.000   0.000
   45   17   16   15        3       0.628   1.883   0.000  -2.510  -0.000   0.000
   26    3    4    5        3       0.628   1.883   0.000  -2.510  -0.000   0.000
   33    7    6    5        3       0.628   1.883   0.000  -2.510  -0.000   0.000
   52   21    2    1        3       0.628   1.883   0.000  -2.510  -0.000   0.000
   30    6    5   16        3       0.628   1.883   0.000  -2.510  -0.000   0.000
   45   17   16    9        3       0.628   1.883   0.000  -2.510  -0.000   0.000
   26    3    2    1        3       0.628   1.883   0.000  -2.510  -0.000   0.000
   43   17   16    5        3       0.628   1.883   0.000  -2.510  -0.000   0.000
   27    4    5   16        3       0.628   1.883   0.000  -2.510  -0.000   0.000
   34    8    9   16        3       0.628   1.883   0.000  -2.510  -0.000   0.000
   23    1    2    3        3       0.628   1.883   0.000  -2.510  -0.000   0.000
   52   21    2   18        3       0.628   1.883   0.000  -2.510  -0.000   0.000
   25    3    2   21        3       0.628   1.883   0.000  -2.510  -0.000   0.000
   43   17   16    9        3       0.628   1.883   0.000  -2.510  -0.000   0.000
   50   20   19   18        3       0.628   1.883   0.000  -2.510  -0.000   0.000
   53   21    2   18        3       0.628   1.883   0.000  -2.510  -0.000   0.000
   29    5   16   15        3       0.628   1.883   0.000  -2.510  -0.000   0.000
   28    4    3    2        3       0.628   1.883   0.000  -2.510  -0.000   0.000
   25    3    4    5        3       0.628   1.883   0.000  -2.510  -0.000   0.000
   46   18   19   20        3       0.628   1.883   0.000  -2.510  -0.000   0.000
   39   14   15   16        3       0.628   1.883   0.000  -2.510  -0.000   0.000
   51   20   21    2        3       0.628   1.883   0.000  -2.510  -0.000   0.000
   22    1    2   21        3       0.628   1.883   0.000  -2.510  -0.000   0.000
   34    8    7    6        3       0.628   1.883   0.000  -2.510  -0.000   0.000
   41   15   16    9        3       0.628   1.883   0.000  -2.510  -0.000   0.000
   46   18    2   21        3       0.628   1.883   0.000  -2.510  -0.000   0.000
   41   15   16   17        3       0.628   1.883   0.000  -2.510  -0.000   0.000
   22    1    2    3        3       0.628   1.883   0.000  -2.510  -0.000   0.000
   24    1    2   18        3       0.628   1.883   0.000  -2.510  -0.000   0.000
   44   17   16   15        3       0.628   1.883   0.000  -2.510  -0.000   0.000
   42   15   16    5        3       0.628   1.883   0.000  -2.510  -0.000   0.000
   30    6    7    8        3       0.628   1.883   0.000  -2.510  -0.000   0.000
   47   18    2    1        3       0.628   1.883   0.000  -2.510  -0.000   0.000
   48   19   20   21        3       0.628   1.883   0.000  -2.510  -0.000   0.000
   29    5   16   17        3       0.628   1.883   0.000  -2.510  -0.000   0.000
   43   17   16   15        3       0.628   1.883   0.000  -2.510  -0.000   0.000
   52   21   20   19        3       0.628   1.883   0.000  -2.510  -0.000   0.000
   53   21    2    1        3       0.628   1.883   0.000  -2.510  -0.000   0.000
   42   15   16   17        3       0.628   1.883   0.000  -2.510  -0.000   0.000
   36    9    8    7        3       0.628   1.883   0.000  -2.510  -0.000   0.000
   28    4    3   26        3       0.628   1.883   0.000  -2.510  -0.000   0.000
   34    8    7   33        3       0.628   1.883   0.000  -2.510  -0.000   0.000
   36    9    8   35        3       0.628   1.883   0.000  -2.510  -0.000   0.000
   42   15   14   39        3       0.628   1.883   0.000  -2.510  -0.000   0.000
   49   19   18   47        3       0.628   1.883   0.000  -2.510  -0.000   0.000
   32    7    6   30        3       0.628   1.883   0.000  -2.510  -0.000   0.000
   48   19   18   47        3       0.628   1.883   0.000  -2.510  -0.000   0.000
   52   21   20   50        3       0.628   1.883   0.000  -2.510  -0.000   0.000
   48   19   18   46        3       0.628   1.883   0.000  -2.510  -0.000   0.000
   50   20   19   48        3       0.628   1.883   0.000  -2.510  -0.000   0.000
   28    4    3   25        3       0.628   1.883   0.000  -2.510  -0.000   0.000
   34    8    7   32        3       0.628   1.883   0.000  -2.510  -0.000   0.000
   42   15   14   40        3       0.628   1.883   0.000  -2.510  -0.000   0.000
   50   20   19   49        3       0.628   1.883   0.000  -2.510  -0.000   0.000
   39   14   13   37        3       0.628   1.883   0.000  -2.510  -0.000   0.000
   39   14   13   38        3       0.628   1.883   0.000  -2.510  -0.000   0.000
   40   14   13   37        3       0.628   1.883   0.000  -2.510  -0.000   0.000
   51   20   19   49        3       0.628   1.883   0.000  -2.510  -0.000   0.000
   35    8    7   33        3       0.628   1.883   0.000  -2.510  -0.000   0.000
   29    5    4   27        3       0.628   1.883   0.000  -2.510  -0.000   0.000
   53   21   20   51        3       0.628   1.883   0.000  -2.510  -0.000   0.000
   27    4    3   26        3       0.628   1.883   0.000  -2.510  -0.000   0.000
   27    4    3   25        3       0.628   1.883   0.000  -2.510  -0.000   0.000
   41   15   14   40        3       0.628   1.883   0.000  -2.510  -0.000   0.000
   53   21   20   50        3       0.628   1.883   0.000  -2.510  -0.000   0.000
   51   20   19   48        3       0.628   1.883   0.000  -2.510  -0.000   0.000
   30    6    5   29        3       0.628   1.883   0.000  -2.510  -0.000   0.000
   41   15   14   39        3       0.628   1.883   0.000  -2.510  -0.000   0.000
   33    7    6   31        3       0.628   1.883   0.000  -2.510  -0.000   0.000
   32    7    6   31        3       0.628   1.883   0.000  -2.510  -0.000   0.000
   33    7    6   30        3       0.628   1.883   0.000  -2.510  -0.000   0.000
   52   21   20   51        3       0.628   1.883   0.000  -2.510  -0.000   0.000
   35    8    7   32        3       0.628   1.883   0.000  -2.510  -0.000   0.000
   36    9    8   34        3       0.628   1.883   0.000  -2.510  -0.000   0.000
   29    5    4   28        3       0.628   1.883   0.000  -2.510  -0.000   0.000
   31    6    5   29        3       0.628   1.883   0.000  -2.510  -0.000   0.000
   49   19   18   46        3       0.628   1.883   0.000  -2.510  -0.000   0.000
   40   14   13   38        3       0.628   1.883   0.000  -2.510  -0.000   0.000

[ pairs ]
     1     4    1
     2     5    1
     3     6    1
     4     7    1
     5     8    1
     4     9    1
     6     9    1
     5    10    1
     7    10    1
     8    11    1
     5    14    1
     4    15    1
     3    16    1
     8    12    1
     1    19    1
     8    13    1
     6    15    1
     4    17    1
     1    20    1
     4    18    1
     3    19    1
     9    14    1
     8    15    1
     7    16    1
     6    17    1
     3    20    1
    11    14    1
    10    15    1
     8    17    1
     4    21    1
     3    22    1
    12    14    1
     3    23    1
     1    25    1
    11    16    1
    10    17    1
     3    24    1
     1    26    1
    12    16    1
    13    16    1
     2    27    1
     5    25    1
     2    28    1
    14    17    1
     5    26    1
     3    29    1
     6    27    1
     6    28    1
     4    30    1
     4    31    1
     7    29    1
     5    32    1
     9    29    1
     8    30    1
     5    33    1
     8    31    1
    18    22    1
     6    34    1
    18    23    1
     9    32    1
     6    35    1
     5    36    1
    18    24    1
     9    33    1
    21    22    1
    18    25    1
    16    27    1
     7    36    1
    21    23    1
    18    26    1
    16    28    1
    15    29    1
    10    34    1
    21    24    1
    10    35    1
    21    25    1
    17    29    1
    16    30    1
     9    37    1
     5    41    1
    21    26    1
    16    31    1
    11    36    1
     9    38    1
     5    42    1
     1    46    1
    12    36    1
    11    37    1
     5    43    1
     1    47    1
    13    36    1
    12    37    1
    11    38    1
    10    39    1
     5    44    1
     3    46    1
    16    34    1
    12    38    1
    10    40    1
     9    41    1
     5    45    1
     3    47    1
     2    48    1
    16    35    1
    15    36    1
     9    42    1
     2    49    1
    25    27    1
    15    37    1
     9    43    1
     2    50    1
    26    27    1
    25    28    1
    17    36    1
    15    38    1
     9    44    1
     2    51    1
     1    52    1
    26    28    1
    13    41    1
     9    45    1
     1    53    1
    16    39    1
    13    42    1
     3    52    1
    27    29    1
    16    40    1
     3    53    1
    28    29    1
    17    41    1
    15    43    1
    29    30    1
    17    42    1
    15    44    1
    29    31    1
    15    45    1
    30    32    1
    31    32    1
    30    33    1
    31    33    1
    32    34    1
    20    46    1
    33    34    1
    32    35    1
    21    46    1
    20    47    1
    33    35    1
    21    47    1
    18    50    1
    21    48    1
    18    51    1
    34    36    1
    21    49    1
    18    52    1
    35    36    1
    19    52    1
    18    53    1
    19    53    1
    37    39    1
    38    39    1
    37    40    1
    38    40    1
    39    41    1
    40    41    1
    39    42    1
    40    42    1
    46    48    1
    47    48    1
    46    49    1
    47    49    1
    48    50    1
    49    50    1
    48    51    1
    49    51    1
    50    52    1
    51    52    1
    50    53    1
    51    53    1

