
;
; GENERATED BY LigParGen Server
; Jorgensen Lab @ Yale University 
;
[ atomtypes ]
  opls_836  H836     1.0080     0.000    A    2.42000E-01   1.25520E-01
  opls_814  C814    12.0110     0.000    A    3.50000E-01   2.76144E-01
  opls_824  H824     1.0080     0.000    A    2.50000E-01   1.25520E-01
  opls_810  O810    15.9990     0.000    A    2.90000E-01   5.85760E-01
  opls_817  C817    12.0110     0.000    A    3.55000E-01   2.92880E-01
  opls_841  H841     1.0080     0.000    A    0.00000E+00   0.00000E+00
  opls_815  C815    12.0110     0.000    A    3.50000E-01   3.34720E-01
  opls_828  H828     1.0080     0.000    A    2.50000E-01   1.25520E-01
  opls_801  O801    15.9990     0.000    A    2.90000E-01   5.85760E-01
  opls_802  C802    12.0110     0.000    A    3.50000E-01   2.76144E-01
  opls_827  H827     1.0080     0.000    A    2.50000E-01   1.25520E-01
  opls_809  C809    12.0110     0.000    A    3.50000E-01   2.76144E-01
  opls_838  H838     1.0080     0.000    A    2.50000E-01   1.25520E-01
  opls_822  H822     1.0080     0.000    A    2.50000E-01   1.25520E-01
  opls_803  C803    12.0110     0.000    A    3.50000E-01   2.76144E-01
  opls_819  N819    14.0070     0.000    A    3.30000E-01   7.11280E-01
  opls_830  H830     1.0080     0.000    A    2.50000E-01   1.25520E-01
  opls_816  C816    12.0110     0.000    A    3.50000E-01   3.34720E-01
  opls_840  H840     1.0080     0.000    A    2.42000E-01   1.25520E-01
  opls_821  H821     1.0080     0.000    A    2.50000E-01   1.25520E-01
  opls_826  H826     1.0080     0.000    A    2.50000E-01   1.25520E-01
  opls_812  C812    12.0110     0.000    A    3.55000E-01   2.92880E-01
  opls_837  H837     1.0080     0.000    A    2.50000E-01   1.25520E-01
  opls_813  C813    12.0110     0.000    A    3.55000E-01   2.92880E-01
  opls_829  H829     1.0080     0.000    A    2.50000E-01   1.25520E-01
  opls_834  H834     1.0080     0.000    A    2.50000E-01   1.25520E-01
  opls_831  H831     1.0080     0.000    A    2.50000E-01   1.25520E-01
  opls_832  H832     1.0080     0.000    A    2.50000E-01   1.25520E-01
  opls_800  C800    12.0110     0.000    A    3.50000E-01   2.76144E-01
  opls_806  C806    12.0110     0.000    A    3.50000E-01   2.76144E-01
  opls_811  C811    12.0110     0.000    A    3.55000E-01   2.92880E-01
  opls_823  H823     1.0080     0.000    A    2.50000E-01   1.25520E-01
  opls_835  H835     1.0080     0.000    A    2.50000E-01   1.25520E-01
  opls_825  H825     1.0080     0.000    A    2.50000E-01   1.25520E-01
  opls_805  C805    12.0110     0.000    A    3.50000E-01   2.76144E-01
  opls_833  H833     1.0080     0.000    A    2.50000E-01   1.25520E-01
  opls_839  H839     1.0080     0.000    A    2.50000E-01   1.25520E-01
  opls_808  C808    12.0110     0.000    A    3.50000E-01   2.76144E-01
  opls_807  O807    15.9990     0.000    A    2.90000E-01   5.85760E-01
  opls_804  O804    15.9990     0.000    A    2.90000E-01   5.85760E-01
  opls_820  O820    15.9990     0.000    A    2.90000E-01   5.85760E-01
  opls_818  O818    15.9990     0.000    A    2.90000E-01   5.85760E-01
[ moleculetype ]
; Name               nrexcl
UNK                   3
[ atoms ]
;   nr       type  resnr residue  atom   cgnr     charge       mass  
     1   opls_800      1    UNK   C00      1     -0.049    12.0110 
     2   opls_801      1    UNK   O01      1    -0.3792    15.9990 
     3   opls_802      1    UNK   C02      1     0.0015    12.0110 
     4   opls_803      1    UNK   C03      1     0.0088    12.0110 
     5   opls_804      1    UNK   O04      1    -0.3881    15.9990 
     6   opls_805      1    UNK   C05      1     0.0106    12.0110 
     7   opls_806      1    UNK   C06      1    -0.0021    12.0110 
     8   opls_807      1    UNK   O07      1     -0.365    15.9990 
     9   opls_808      1    UNK   C08      1     0.0123    12.0110 
    10   opls_809      1    UNK   C09      1    -0.0343    12.0110 
    11   opls_810      1    UNK   O0A      1    -0.2863    15.9990 
    12   opls_811      1    UNK   C0B      1     0.1473    12.0110 
    13   opls_812      1    UNK   C0C      1    -0.1736    12.0110 
    14   opls_813      1    UNK   C0D      1    -0.0148    12.0110 
    15   opls_814      1    UNK   C0E      1    -0.1934    12.0110 
    16   opls_815      1    UNK   C0F      1    -0.0217    12.0110 
    17   opls_816      1    UNK   C0G      1     0.0727    12.0110 
    18   opls_817      1    UNK   C0H      1    -0.2189    12.0110 
    19   opls_818      1    UNK   O0I      1    -0.1528    15.9990 
    20   opls_819      1    UNK   N0J      1    -0.2277    14.0070 
    21   opls_820      1    UNK   O0K      1    -0.1492    15.9990 
    22   opls_821      1    UNK   H0M      1     0.0841     1.0080 
    23   opls_822      1    UNK   H0N      1     0.0841     1.0080 
    24   opls_823      1    UNK   H0O      1     0.0841     1.0080 
    25   opls_824      1    UNK   H0P      1     0.0884     1.0080 
    26   opls_825      1    UNK   H0Q      1     0.0884     1.0080 
    27   opls_826      1    UNK   H0R      1     0.0915     1.0080 
    28   opls_827      1    UNK   H0S      1     0.0915     1.0080 
    29   opls_828      1    UNK   H0T      1     0.0936     1.0080 
    30   opls_829      1    UNK   H0U      1     0.0936     1.0080 
    31   opls_830      1    UNK   H0V      1     0.0881     1.0080 
    32   opls_831      1    UNK   H0W      1     0.0881     1.0080 
    33   opls_832      1    UNK   H0X      2     0.1166     1.0080 
    34   opls_833      1    UNK   H0Y      2     0.1166     1.0080 
    35   opls_834      1    UNK   H0Z      2     0.0994     1.0080 
    36   opls_835      1    UNK   H10      2     0.0994     1.0080 
    37   opls_836      1    UNK   H11      2     0.1694     1.0080 
    38   opls_837      1    UNK   H12      2     0.1042     1.0080 
    39   opls_838      1    UNK   H13      2     0.1042     1.0080 
    40   opls_839      1    UNK   H14      2     0.1042     1.0080 
    41   opls_840      1    UNK   H15      2     0.1655     1.0080 
    42   opls_841      1    UNK   H16      2     0.3478     1.0080 
[ bonds ]
    2     1     1      0.1410 267776.000
    3     2     1      0.1410 267776.000
    4     3     1      0.1529 224262.400
    5     4     1      0.1410 267776.000
    6     5     1      0.1410 267776.000
    7     6     1      0.1529 224262.400
    8     7     1      0.1410 267776.000
    9     8     1      0.1410 267776.000
   10     9     1      0.1529 224262.400
   11    10     1      0.1410 267776.000
   12    11     1      0.1364 376560.000
   13    12     1      0.1400 392459.200
   14    13     1      0.1400 392459.200
   15    14     1      0.1510 265265.600
   16    14     1      0.1404 392459.200
   17    16     1      0.1370 435136.000
   18    12     1      0.1400 392459.200
   19    17     1      0.1360 284512.000
   20    19     1      0.1450 267776.000
   21    16     1      0.1360 284512.000
   22     1     1      0.1090 284512.000
   23     1     1      0.1090 284512.000
   24     1     1      0.1090 284512.000
   25     3     1      0.1090 284512.000
   26     3     1      0.1090 284512.000
   27     4     1      0.1090 284512.000
   28     4     1      0.1090 284512.000
   29     6     1      0.1090 284512.000
   30     6     1      0.1090 284512.000
   31     7     1      0.1090 284512.000
   32     7     1      0.1090 284512.000
   33     9     1      0.1090 284512.000
   34     9     1      0.1090 284512.000
   35    10     1      0.1090 284512.000
   36    10     1      0.1090 284512.000
   37    13     1      0.1080 307105.600
   38    15     1      0.1090 284512.000
   39    15     1      0.1090 284512.000
   40    15     1      0.1090 284512.000
   41    18     1      0.1080 307105.600
   42    20     1      0.1010 363171.200
   18    17     1      0.1404 392459.200
   21    20     1      0.1450 267776.000

[ angles ]
;  ai    aj    ak funct            c0            c1            c2            c3 
    1     2     3     1    109.500    502.080
    2     3     4     1    109.500    418.400
    3     4     5     1    109.500    418.400
    4     5     6     1    109.500    502.080
    5     6     7     1    109.500    418.400
    6     7     8     1    109.500    418.400
    7     8     9     1    109.500    502.080
    8     9    10     1    109.500    418.400
    9    10    11     1    109.500    418.400
   10    11    12     1    111.000    627.600
   11    12    13     1    120.000    585.760
   12    13    14     1    120.000    527.184
   13    14    15     1    120.000    585.760
   13    14    16     1    120.000    527.184
   14    16    17     1    117.300    711.280
   11    12    18     1    120.000    585.760
   16    17    19     1    110.600    585.760
   17    19    20     1    111.000    627.600
   14    16    21     1    120.000    585.760
    2     1    22     1    109.500    292.880
    2     1    23     1    109.500    292.880
    2     1    24     1    109.500    292.880
    2     3    25     1    109.500    292.880
    2     3    26     1    109.500    292.880
    3     4    27     1    110.700    313.800
    3     4    28     1    110.700    313.800
    5     6    29     1    109.500    292.880
    5     6    30     1    109.500    292.880
    6     7    31     1    110.700    313.800
    6     7    32     1    110.700    313.800
    8     9    33     1    109.500    292.880
    8     9    34     1    109.500    292.880
    9    10    35     1    110.700    313.800
    9    10    36     1    110.700    313.800
   12    13    37     1    120.000    292.880
   14    15    38     1    109.500    292.880
   14    15    39     1    109.500    292.880
   14    15    40     1    109.500    292.880
   12    18    41     1    120.000    292.880
   19    20    42     1    109.020    383.673
    7     6    30     1    110.700    313.800
   23     1    24     1    107.800    276.144
   38    15    39     1    107.800    276.144
   25     3    26     1    107.800    276.144
   14    13    37     1    120.000    292.880
   22     1    23     1    107.800    276.144
    5     4    28     1    109.500    292.880
   16    17    18     1    117.300    711.280
   27     4    28     1    107.800    276.144
   16    21    20     1    111.000    627.600
   10     9    34     1    110.700    313.800
   21    20    42     1    109.020    383.673
   19    20    21     1    109.020    383.673
   11    10    36     1    109.500    292.880
   39    15    40     1    107.800    276.144
   22     1    24     1    107.800    276.144
   15    14    16     1    128.600    585.760
   11    10    35     1    109.500    292.880
   18    17    19     1    120.000    585.760
    4     3    25     1    110.700    313.800
    8     7    32     1    109.500    292.880
    7     6    29     1    110.700    313.800
   17    18    41     1    120.000    292.880
    8     7    31     1    109.500    292.880
   31     7    32     1    107.800    276.144
   29     6    30     1    107.800    276.144
   33     9    34     1    107.800    276.144
   35    10    36     1    107.800    276.144
   10     9    33     1    110.700    313.800
   12    18    17     1    120.000    527.184
   17    16    21     1    110.600    585.760
    5     4    27     1    109.500    292.880
   38    15    40     1    107.800    276.144
    4     3    26     1    110.700    313.800
   13    12    18     1    120.000    527.184

[ dihedrals ]
; IMPROPER DIHEDRAL ANGLES 
;  ai    aj    ak    al funct            c0            c1            c2            c3            c4            c5
    18    12    11    13    4        180.000     10.460     2  
    16    14    13    15    4        180.000     10.460     2  
    37    13    12    14    4        180.000     10.460     2  
    41    18    12    17    4        180.000     10.460     2  
    21    16    14    17    4        180.000     10.460     2  
    19    17    16    18    4        180.000     10.460     2  

[ dihedrals ]
; PROPER DIHEDRAL ANGLES
;  ai    aj    ak    al funct            c0            c1            c2            c3            c4            c5
   18   12   13   14        3      30.334   0.000  -30.334  -0.000  -0.000   0.000
   14   13   12   11        3      30.334   0.000  -30.334  -0.000  -0.000   0.000
   18   12   11   10        3      12.552   0.000  -12.552  -0.000  -0.000   0.000
   13   12   11   10        3      12.552   0.000  -12.552  -0.000  -0.000   0.000
   18   17   16   14        3      30.334   0.000  -30.334  -0.000  -0.000   0.000
   12   11   10    9        3       1.715   2.845   1.046  -5.607  -0.000   0.000
   17   18   12   13        3      30.334   0.000  -30.334  -0.000  -0.000   0.000
   16   14   13   12        3      30.334   0.000  -30.334  -0.000  -0.000   0.000
   17   18   12   11        3      30.334   0.000  -30.334  -0.000  -0.000   0.000
   16   17   18   12        3      29.288   0.000  -29.288  -0.000  -0.000   0.000
   17   16   14   13        3      29.288   0.000  -29.288  -0.000  -0.000   0.000
   17   16   14   15        3      29.288   0.000  -29.288  -0.000  -0.000   0.000
   15   14   13   12        3      30.334   0.000  -30.334  -0.000  -0.000   0.000
    4    3    2    1        3       1.715   2.845   1.046  -5.607  -0.000   0.000
    7    6    5    4        3       1.715   2.845   1.046  -5.607  -0.000   0.000
   10    9    8    7        3       1.715   2.845   1.046  -5.607  -0.000   0.000
    9    8    7    6        3       1.715   2.845   1.046  -5.607  -0.000   0.000
    6    5    4    3        3       1.715   2.845   1.046  -5.607  -0.000   0.000
   42   20   19   17        3       0.628   1.883   0.000  -2.510  -0.000   0.000
   42   20   21   16        3       0.628   1.883   0.000  -2.510  -0.000   0.000
   41   18   12   13        3      30.334   0.000  -30.334  -0.000  -0.000   0.000
   37   13   12   18        3      30.334   0.000  -30.334  -0.000  -0.000   0.000
   37   13   14   16        3      30.334   0.000  -30.334  -0.000  -0.000   0.000
   37   13   14   15        3      30.334   0.000  -30.334  -0.000  -0.000   0.000
   37   13   12   11        3      30.334   0.000  -30.334  -0.000  -0.000   0.000
   41   18   12   11        3      30.334   0.000  -30.334  -0.000  -0.000   0.000
   41   18   17   16        3      30.334   0.000  -30.334  -0.000  -0.000   0.000
   41   18   17   19        3      30.334   0.000  -30.334  -0.000  -0.000   0.000
   39   15   14   13        3       0.000   0.000   0.000  -0.000  -0.000   0.000
   38   15   14   13        3       0.000   0.000   0.000  -0.000  -0.000   0.000
   40   15   14   13        3       0.000   0.000   0.000  -0.000  -0.000   0.000
   39   15   14   16        3       0.000   0.000   0.000  -0.000  -0.000   0.000
   38   15   14   16        3       0.000   0.000   0.000  -0.000  -0.000   0.000
   40   15   14   16        3       0.000   0.000   0.000  -0.000  -0.000   0.000
   31    7    6   30        3       0.628   1.883   0.000  -2.510  -0.000   0.000
   32    7    6   29        3       0.628   1.883   0.000  -2.510  -0.000   0.000
   31    7    6   29        3       0.628   1.883   0.000  -2.510  -0.000   0.000
   28    4    3   26        3       0.628   1.883   0.000  -2.510  -0.000   0.000
   35   10    9   34        3       0.628   1.883   0.000  -2.510  -0.000   0.000
   36   10    9   34        3       0.628   1.883   0.000  -2.510  -0.000   0.000
   35   10    9   33        3       0.628   1.883   0.000  -2.510  -0.000   0.000
   27    4    3   25        3       0.628   1.883   0.000  -2.510  -0.000   0.000
   32    7    6   30        3       0.628   1.883   0.000  -2.510  -0.000   0.000
   28    4    3   25        3       0.628   1.883   0.000  -2.510  -0.000   0.000
   27    4    3   26        3       0.628   1.883   0.000  -2.510  -0.000   0.000
   36   10    9   33        3       0.628   1.883   0.000  -2.510  -0.000   0.000
   34    9   10   11        3       0.979   2.937   0.000  -3.916  -0.000   0.000
   30    6    7    8        3       0.979   2.937   0.000  -3.916  -0.000   0.000
   26    3    4    5        3       0.979   2.937   0.000  -3.916  -0.000   0.000
   33    9   10   11        3       0.979   2.937   0.000  -3.916  -0.000   0.000
   29    6    7    8        3       0.979   2.937   0.000  -3.916  -0.000   0.000
   32    7    6    5        3       0.979   2.937   0.000  -3.916  -0.000   0.000
   36   10    9    8        3       0.979   2.937   0.000  -3.916  -0.000   0.000
   35   10    9    8        3       0.979   2.937   0.000  -3.916  -0.000   0.000
   25    3    4    5        3       0.979   2.937   0.000  -3.916  -0.000   0.000
   28    4    3    2        3       0.979   2.937   0.000  -3.916  -0.000   0.000
   27    4    3    2        3       0.979   2.937   0.000  -3.916  -0.000   0.000
   31    7    6    5        3       0.979   2.937   0.000  -3.916  -0.000   0.000
   35   10   11   12        3       1.590   4.770   0.000  -6.360  -0.000   0.000
   36   10   11   12        3       1.590   4.770   0.000  -6.360  -0.000   0.000
   29    6    5    4        3       1.590   4.770   0.000  -6.360  -0.000   0.000
   28    4    5    6        3       1.590   4.770   0.000  -6.360  -0.000   0.000
   25    3    2    1        3       1.590   4.770   0.000  -6.360  -0.000   0.000
   32    7    8    9        3       1.590   4.770   0.000  -6.360  -0.000   0.000
   34    9    8    7        3       1.590   4.770   0.000  -6.360  -0.000   0.000
   26    3    2    1        3       1.590   4.770   0.000  -6.360  -0.000   0.000
   24    1    2    3        3       1.590   4.770   0.000  -6.360  -0.000   0.000
   22    1    2    3        3       1.590   4.770   0.000  -6.360  -0.000   0.000
   30    6    5    4        3       1.590   4.770   0.000  -6.360  -0.000   0.000
   31    7    8    9        3       1.590   4.770   0.000  -6.360  -0.000   0.000
   27    4    5    6        3       1.590   4.770   0.000  -6.360  -0.000   0.000
   33    9    8    7        3       1.590   4.770   0.000  -6.360  -0.000   0.000
   23    1    2    3        3       1.590   4.770   0.000  -6.360  -0.000   0.000
   20   19   17   18        3      29.288   0.000  -29.288  -0.000  -0.000   0.000
   20   21   16   14        3      29.288   0.000  -29.288  -0.000  -0.000   0.000
   20   21   16   17        3      29.288   0.000  -29.288  -0.000  -0.000   0.000
   20   19   17   16        3      29.288   0.000  -29.288  -0.000  -0.000   0.000
   19   17   18   12        3       0.000   0.000   0.000  -0.000  -0.000   0.000
   21   16   14   13        3       0.000   0.000   0.000  -0.000  -0.000   0.000
   21   16   14   15        3      30.334   0.000  -30.334  -0.000  -0.000   0.000
   21   16   17   18        3      30.334   0.000  -30.334  -0.000  -0.000   0.000
   19   17   16   14        3      30.334   0.000  -30.334  -0.000  -0.000   0.000
   21   16   17   19        3      30.334   0.000  -30.334  -0.000  -0.000   0.000
   19   20   21   16        3       0.628   1.883   0.000  -2.510  -0.000   0.000
   21   20   19   17        3       0.628   1.883   0.000  -2.510  -0.000   0.000
   11   10    9    8        3      -1.151   1.151   0.000  -0.000  -0.000   0.000
    8    7    6    5        3      -1.151   1.151   0.000  -0.000  -0.000   0.000
    5    4    3    2        3      -1.151   1.151   0.000  -0.000  -0.000   0.000

[ pairs ]
     1     4    1
     2     5    1
     3     6    1
     4     7    1
     5     8    1
     6     9    1
     7    10    1
     8    11    1
     9    12    1
    10    13    1
    11    14    1
     3    22    1
     3    23    1
     1    25    1
    12    15    1
     3    24    1
     1    26    1
    12    16    1
    11    17    1
    10    18    1
     2    27    1
    13    17    1
     5    25    1
     2    28    1
    12    19    1
     5    26    1
    15    17    1
    14    18    1
    14    19    1
     6    27    1
     4    29    1
    14    20    1
    13    21    1
     6    28    1
     4    30    1
    15    21    1
     5    31    1
     8    29    1
     5    32    1
    18    20    1
     8    30    1
    18    21    1
     9    31    1
     7    33    1
     9    32    1
     7    34    1
     8    35    1
    11    33    1
     8    36    1
    11    34    1
    12    35    1
    12    36    1
    11    37    1
    13    38    1
    25    27    1
    15    37    1
    13    39    1
    11    41    1
    26    27    1
    25    28    1
    16    37    1
    13    40    1
    26    28    1
    16    38    1
    13    41    1
    18    37    1
    16    39    1
    16    40    1
    16    41    1
    16    42    1
    17    42    1
    29    31    1
    19    41    1
    30    31    1
    29    32    1
    30    32    1
    33    35    1
    34    35    1
    33    36    1
    34    36    1

