LIGPARGEN GENERATED GRO FILE
   42
    1UNK    C00    1   0.100   0.100   0.000
    1UNK    O01    2  -0.042   0.100   0.000
    1UNK    C02    3  -0.094   0.100   0.133
    1UNK    C03    4  -0.246   0.100   0.128
    1UNK    O04    5  -0.297   0.100   0.261
    1UNK    C05    6  -0.440   0.100   0.262
    1UNK    C06    7  -0.485   0.106   0.408
    1UNK    O07    8  -0.627   0.112   0.413
    1UNK    C08    9  -0.679   0.119   0.547
    1UNK    C09   10  -0.637   0.244   0.624
    1UNK    O0A   11  -0.678   0.360   0.550
    1UNK    C0B   12  -0.639   0.482   0.600
    1UNK    C0C   13  -0.681   0.592   0.523
    1UNK    C0D   14  -0.649   0.724   0.560
    1UNK    C0E   15  -0.694   0.841   0.480
    1UNK    C0F   16  -0.574   0.739   0.675
    1UNK    C0G   17  -0.532   0.631   0.750
    1UNK    C0H   18  -0.563   0.501   0.715
    1UNK    O0I   19  -0.460   0.669   0.858
    1UNK    N0J   20  -0.462   0.816   0.853
    1UNK    O0K   21  -0.532   0.857   0.729
    1UNK    H0M   22   0.134   0.100  -0.104
    1UNK    H0N   23   0.138   0.010   0.050
    1UNK    H0O   24   0.138   0.190   0.049
    1UNK    H0P   25  -0.059   0.189   0.187
    1UNK    H0Q   26  -0.059   0.012   0.187
    1UNK    H0R   27  -0.282   0.011   0.074
    1UNK    H0S   28  -0.282   0.189   0.074
    1UNK    H0T   29  -0.478   0.009   0.215
    1UNK    H0U   30  -0.478   0.186   0.207
    1UNK    H0V   31  -0.441   0.195   0.453
    1UNK    H0W   32  -0.449   0.018   0.462
    1UNK    H0X   33  -0.649   0.028   0.601
    1UNK    H0Y   34  -0.788   0.117   0.537
    1UNK    H0Z   35  -0.528   0.244   0.638
    1UNK    H10   36  -0.686   0.244   0.722
    1UNK    H11   37  -0.741   0.574   0.433
    1UNK    H12   38  -0.753   0.810   0.393
    1UNK    H13   39  -0.608   0.898   0.444
    1UNK    H14   40  -0.758   0.907   0.541
    1UNK    H15   41  -0.527   0.421   0.777
    1UNK    H16   42  -0.365   0.836   0.827
   1.00000   1.00000   1.00000

