LIGPARGEN GENERATED GRO FILE
   53
    1UNK    C00    1   0.100   0.100   0.000
    1UNK    C01    2  -0.055   0.100   0.000
    1UNK    C02    3  -0.098   0.100   0.148
    1UNK    C03    4  -0.246   0.100   0.184
    1UNK    C04    5  -0.278   0.100   0.337
    1UNK    C05    6  -0.433   0.091   0.348
    1UNK    C06    7  -0.485   0.089   0.491
    1UNK    C07    8  -0.430   0.203   0.575
    1UNK    C08    9  -0.277   0.205   0.569
    1UNK    C09   10  -0.219   0.306   0.669
    1UNK    F0A   11  -0.264   0.431   0.641
    1UNK    F0B   12  -0.265   0.278   0.794
    1UNK    C0C   13  -0.068   0.306   0.672
    1UNK    C0D   14  -0.009   0.321   0.534
    1UNK    C0E   15  -0.067   0.219   0.436
    1UNK    C0F   16  -0.222   0.220   0.425
    1UNK    C0G   17  -0.262   0.354   0.361
    1UNK    C0H   18  -0.106   0.224  -0.075
    1UNK    C0I   19  -0.241   0.183  -0.134
    1UNK    C0J   20  -0.237   0.032  -0.149
    1UNK    C0K   21  -0.109  -0.018  -0.081
    1UNK    H0M   22   0.139   0.188   0.053
    1UNK    H0N   23   0.140   0.102  -0.102
    1UNK    H0O   24   0.139   0.011   0.050
    1UNK    H0P   25  -0.057   0.194   0.184
    1UNK    H0Q   26  -0.049   0.018   0.201
    1UNK    H0R   27  -0.293   0.011   0.140
    1UNK    H0S   28  -0.295   0.187   0.139
    1UNK    H0T   29  -0.238   0.006   0.378
    1UNK    H0U   30  -0.468  -0.000   0.298
    1UNK    H0V   31  -0.480   0.174   0.295
    1UNK    H0W   32  -0.459  -0.007   0.538
    1UNK    H0X   33  -0.595   0.094   0.491
    1UNK    H0Y   34  -0.463   0.189   0.679
    1UNK    H0Z   35  -0.472   0.299   0.542
    1UNK    H10   36  -0.244   0.106   0.605
    1UNK    H11   37  -0.032   0.213   0.717
    1UNK    H12   38  -0.031   0.388   0.736
    1UNK    H13   39   0.100   0.307   0.538
    1UNK    H14   40  -0.025   0.422   0.496
    1UNK    H15   41  -0.033   0.118   0.464
    1UNK    H16   42  -0.018   0.244   0.343
    1UNK    H17   43  -0.218   0.365   0.261
    1UNK    H18   44  -0.229   0.441   0.419
    1UNK    H19   45  -0.370   0.364   0.349
    1UNK    H1A   46  -0.038   0.251  -0.157
    1UNK    H1B   47  -0.116   0.312  -0.011
    1UNK    H1C   48  -0.258   0.233  -0.231
    1UNK    H1D   49  -0.323   0.213  -0.069
    1UNK    H1E   50  -0.238   0.002  -0.254
    1UNK    H1F   51  -0.326  -0.013  -0.102
    1UNK    H1G   52  -0.038  -0.048  -0.158
    1UNK    H1H   53  -0.128  -0.106  -0.019
   1.00000   1.00000   1.00000

