LIGPARGEN GENERATED GRO FILE
   36
    1UNK    C00    1   0.100   0.100   0.000
    1UNK    C01    2  -0.051   0.100   0.000
    1UNK    O02    3  -0.110   0.100   0.109
    1UNK    C03    4  -0.128   0.100  -0.136
    1UNK    O04    5  -0.181  -0.025  -0.186
    1UNK    C05    6  -0.086  -0.125  -0.223
    1UNK    C06    7   0.015  -0.081  -0.330
    1UNK    C07    8  -0.010  -0.176  -0.096
    1UNK    C08    9  -0.141  -0.258  -0.270
    1UNK    N09   10  -0.187  -0.369  -0.309
    1UNK    C0A   11  -0.246   0.201  -0.130
    1UNK    C0B   12  -0.359   0.154  -0.036
    1UNK    C0C   13  -0.206   0.345  -0.091
    1UNK    S0D   14  -0.100   0.423  -0.211
    1UNK    C0E   15  -0.069   0.585  -0.143
    1UNK    O0F   16   0.027   0.352  -0.211
    1UNK    O0G   17  -0.175   0.440  -0.334
    1UNK    H0H   18   0.138   0.192   0.045
    1UNK    H0I   19   0.140   0.091  -0.101
    1UNK    H0J   20   0.135   0.015   0.060
    1UNK    H0K   21  -0.059   0.138  -0.212
    1UNK    H0M   22   0.075   0.006  -0.300
    1UNK    H0N   23  -0.036  -0.053  -0.423
    1UNK    H0O   24   0.086  -0.161  -0.353
    1UNK    H0P   25   0.089  -0.131  -0.087
    1UNK    H0Q   26   0.011  -0.284  -0.099
    1UNK    H0R   27  -0.068  -0.159  -0.005
    1UNK    H0S   28  -0.290   0.204  -0.231
    1UNK    H0T   29  -0.334   0.167   0.069
    1UNK    H0U   30  -0.383   0.048  -0.053
    1UNK    H0V   31  -0.450   0.212  -0.054
    1UNK    H0W   32  -0.154   0.349   0.005
    1UNK    H0X   33  -0.295   0.409  -0.084
    1UNK    H0Y   34  -0.022   0.573  -0.046
    1UNK    H0Z   35  -0.164   0.638  -0.135
    1UNK    H10   36  -0.002   0.638  -0.211
   1.00000   1.00000   1.00000

