
;
; GENERATED BY LigParGen Server
; Jorgensen Lab @ Yale University 
;
[ atomtypes ]
  opls_818  H818     1.0080     0.000    A    2.50000E-01   1.25520E-01
  opls_824  H824     1.0080     0.000    A    2.50000E-01   1.25520E-01
  opls_805  C805    12.0110     0.000    A    3.50000E-01   2.76144E-01
  opls_828  H828     1.0080     0.000    A    2.50000E-01   1.25520E-01
  opls_813  H813     1.0080     0.000    A    2.50000E-01   1.25520E-01
  opls_832  H832     1.0080     0.000    A    2.50000E-01   1.25520E-01
  opls_802  C802    12.0110     0.000    A    3.50000E-01   2.76144E-01
  opls_815  H815     1.0080     0.000    A    2.50000E-01   1.25520E-01
  opls_809  C809    12.0110     0.000    A    3.50000E-01   2.76144E-01
  opls_806  C806    12.0110     0.000    A    3.50000E-01   2.76144E-01
  opls_822  H822     1.0080     0.000    A    2.50000E-01   1.25520E-01
  opls_807  C807    12.0110     0.000    A    3.50000E-01   2.76144E-01
  opls_825  H825     1.0080     0.000    A    2.50000E-01   1.25520E-01
  opls_803  C803    12.0110     0.000    A    3.30000E-01   2.76144E-01
  opls_814  H814     1.0080     0.000    A    2.50000E-01   1.25520E-01
  opls_821  H821     1.0080     0.000    A    2.50000E-01   1.25520E-01
  opls_820  H820     1.0080     0.000    A    2.50000E-01   1.25520E-01
  opls_829  H829     1.0080     0.000    A    2.50000E-01   1.25520E-01
  opls_831  H831     1.0080     0.000    A    2.50000E-01   1.25520E-01
  opls_816  H816     1.0080     0.000    A    2.50000E-01   1.25520E-01
  opls_800  C800    12.0110     0.000    A    3.50000E-01   2.76144E-01
  opls_811  C811    12.0110     0.000    A    3.50000E-01   2.76144E-01
  opls_823  H823     1.0080     0.000    A    2.50000E-01   1.25520E-01
  opls_826  H826     1.0080     0.000    A    2.50000E-01   1.25520E-01
  opls_819  H819     1.0080     0.000    A    2.50000E-01   1.25520E-01
  opls_810  C810    12.0110     0.000    A    3.50000E-01   2.76144E-01
  opls_827  H827     1.0080     0.000    A    2.50000E-01   1.25520E-01
  opls_801  C801    12.0110     0.000    A    3.50000E-01   2.76144E-01
  opls_808  C808    12.0110     0.000    A    3.50000E-01   2.76144E-01
  opls_804  N804    14.0070     0.000    A    3.20000E-01   7.11280E-01
  opls_817  H817     1.0080     0.000    A    2.50000E-01   1.25520E-01
  opls_812  H812     1.0080     0.000    A    2.50000E-01   1.25520E-01
  opls_830  H830     1.0080     0.000    A    2.50000E-01   1.25520E-01
[ moleculetype ]
; Name               nrexcl
UNK                   3
[ atoms ]
;   nr       type  resnr residue  atom   cgnr     charge       mass  
     1   opls_800      1    UNK   C00      1    -0.2461    12.0110 
     2   opls_801      1    UNK   C01      1    -0.1768    12.0110 
     3   opls_802      1    UNK   C02      1     0.0319    12.0110 
     4   opls_803      1    UNK   C03      1     0.1378    12.0110 
     5   opls_804      1    UNK   N04      1     -0.405    14.0070 
     6   opls_805      1    UNK   C05      1    -0.1058    12.0110 
     7   opls_806      1    UNK   C06      1    -0.2407    12.0110 
     8   opls_807      1    UNK   C07      1     -0.175    12.0110 
     9   opls_808      1    UNK   C08      1    -0.1772    12.0110 
    10   opls_809      1    UNK   C09      1    -0.1162    12.0110 
    11   opls_810      1    UNK   C0A      1    -0.2352    12.0110 
    12   opls_811      1    UNK   C0B      1    -0.2372    12.0110 
    13   opls_812      1    UNK   H0C      1     0.0885     1.0080 
    14   opls_813      1    UNK   H0D      1     0.0885     1.0080 
    15   opls_814      1    UNK   H0E      1     0.0885     1.0080 
    16   opls_815      1    UNK   H0F      1     0.1034     1.0080 
    17   opls_816      1    UNK   H0G      1     0.1034     1.0080 
    18   opls_817      1    UNK   H0H      1     0.1323     1.0080 
    19   opls_818      1    UNK   H0I      1     0.1085     1.0080 
    20   opls_819      1    UNK   H0J      1     0.0893     1.0080 
    21   opls_820      1    UNK   H0K      1     0.0893     1.0080 
    22   opls_821      1    UNK   H0M      1     0.0893     1.0080 
    23   opls_822      1    UNK   H0N      1     0.0958     1.0080 
    24   opls_823      1    UNK   H0O      1     0.0958     1.0080 
    25   opls_824      1    UNK   H0P      1     0.0898     1.0080 
    26   opls_825      1    UNK   H0Q      1     0.0898     1.0080 
    27   opls_826      1    UNK   H0R      1     0.0992     1.0080 
    28   opls_827      1    UNK   H0S      1     0.0819     1.0080 
    29   opls_828      1    UNK   H0T      1     0.0819     1.0080 
    30   opls_829      1    UNK   H0U      1     0.0819     1.0080 
    31   opls_830      1    UNK   H0V      1     0.0828     1.0080 
    32   opls_831      1    UNK   H0W      1     0.0828     1.0080 
    33   opls_832      1    UNK   H0X      2     0.0828     1.0080 
[ bonds ]
    2     1     1      0.1529 224262.400
    3     2     1      0.1529 224262.400
    4     3     1      0.1470 326352.000
    5     4     1      0.1157 543920.000
    6     3     1      0.1529 224262.400
    7     6     1      0.1529 224262.400
    8     6     1      0.1529 224262.400
    9     8     1      0.1529 224262.400
   10     9     1      0.1529 224262.400
   11    10     1      0.1529 224262.400
   12    10     1      0.1529 224262.400
   13     1     1      0.1090 284512.000
   14     1     1      0.1090 284512.000
   15     1     1      0.1090 284512.000
   16     2     1      0.1090 284512.000
   17     2     1      0.1090 284512.000
   18     3     1      0.1090 284512.000
   19     6     1      0.1090 284512.000
   20     7     1      0.1090 284512.000
   21     7     1      0.1090 284512.000
   22     7     1      0.1090 284512.000
   23     8     1      0.1090 284512.000
   24     8     1      0.1090 284512.000
   25     9     1      0.1090 284512.000
   26     9     1      0.1090 284512.000
   27    10     1      0.1090 284512.000
   28    11     1      0.1090 284512.000
   29    11     1      0.1090 284512.000
   30    11     1      0.1090 284512.000
   31    12     1      0.1090 284512.000
   32    12     1      0.1090 284512.000
   33    12     1      0.1090 284512.000

[ angles ]
;  ai    aj    ak funct            c0            c1            c2            c3 
    1     2     3     1    112.700    488.273
    2     3     4     1    112.700    488.273
    3     4     5     1    180.000   1255.200
    2     3     6     1    112.700    488.273
    3     6     7     1    112.700    488.273
    3     6     8     1    112.700    488.273
    6     8     9     1    112.700    488.273
    8     9    10     1    112.700    488.273
    9    10    11     1    112.700    488.273
    9    10    12     1    112.700    488.273
    2     1    13     1    110.700    313.800
    2     1    14     1    110.700    313.800
    2     1    15     1    110.700    313.800
    1     2    16     1    110.700    313.800
    1     2    17     1    110.700    313.800
    2     3    18     1    110.700    313.800
    3     6    19     1    110.700    313.800
    6     7    20     1    110.700    313.800
    6     7    21     1    110.700    313.800
    6     7    22     1    110.700    313.800
    6     8    23     1    110.700    313.800
    6     8    24     1    110.700    313.800
    8     9    25     1    110.700    313.800
    8     9    26     1    110.700    313.800
    9    10    27     1    110.700    313.800
   10    11    28     1    110.700    313.800
   10    11    29     1    110.700    313.800
   10    11    30     1    110.700    313.800
   10    12    31     1    110.700    313.800
   10    12    32     1    110.700    313.800
   10    12    33     1    110.700    313.800
   31    12    32     1    107.800    276.144
   11    10    27     1    110.700    313.800
   23     8    24     1    107.800    276.144
   13     1    14     1    107.800    276.144
   31    12    33     1    107.800    276.144
   11    10    12     1    112.700    488.273
   25     9    26     1    107.800    276.144
   21     7    22     1    107.800    276.144
    3     2    17     1    110.700    313.800
    9     8    23     1    110.700    313.800
   28    11    29     1    107.800    276.144
   29    11    30     1    107.800    276.144
    7     6    19     1    110.700    313.800
   28    11    30     1    107.800    276.144
   32    12    33     1    107.800    276.144
    3     2    16     1    110.700    313.800
   20     7    22     1    107.800    276.144
    4     3    18     1    108.500    292.880
    9     8    24     1    110.700    313.800
   20     7    21     1    107.800    276.144
   16     2    17     1    107.800    276.144
   14     1    15     1    107.800    276.144
   10     9    25     1    110.700    313.800
    7     6     8     1    112.700    488.273
    4     3     6     1    112.700    488.273
    6     3    18     1    110.700    313.800
   10     9    26     1    110.700    313.800
    8     6    19     1    110.700    313.800
   12    10    27     1    110.700    313.800
   13     1    15     1    107.800    276.144

[ dihedrals ]
; IMPROPER DIHEDRAL ANGLES 
;  ai    aj    ak    al funct            c0            c1            c2            c3            c4            c5

[ dihedrals ]
; PROPER DIHEDRAL ANGLES
;  ai    aj    ak    al funct            c0            c1            c2            c3            c4            c5
    7    6    3    2        3       2.301  -1.464   0.837  -1.674  -0.000   0.000
    9    8    6    3        3       2.301  -1.464   0.837  -1.674  -0.000   0.000
   10    9    8    6        3       2.301  -1.464   0.837  -1.674  -0.000   0.000
   11   10    9    8        3       2.301  -1.464   0.837  -1.674  -0.000   0.000
    9    8    6    7        3       2.301  -1.464   0.837  -1.674  -0.000   0.000
   12   10    9    8        3       2.301  -1.464   0.837  -1.674  -0.000   0.000
    6    3    2    1        3       2.301  -1.464   0.837  -1.674  -0.000   0.000
    8    6    3    2        3       2.301  -1.464   0.837  -1.674  -0.000   0.000
    8    6    3    4        3      -2.720   0.000   2.720  -0.000  -0.000   0.000
    7    6    3    4        3      -2.720   0.000   2.720  -0.000  -0.000   0.000
    6    3    4    5        3       0.000   0.000   0.000  -0.000  -0.000   0.000
    4    3    2    1        3      -2.720   0.000   2.720  -0.000  -0.000   0.000
   14    1    2    3        3       0.628   1.883   0.000  -2.510  -0.000   0.000
   25    9   10   11        3       0.628   1.883   0.000  -2.510  -0.000   0.000
   18    3    6    8        3       0.628   1.883   0.000  -2.510  -0.000   0.000
   23    8    6    3        3       0.628   1.883   0.000  -2.510  -0.000   0.000
   21    7    6    3        3       0.628   1.883   0.000  -2.510  -0.000   0.000
   26    9    8    6        3       0.628   1.883   0.000  -2.510  -0.000   0.000
   25    9    8    6        3       0.628   1.883   0.000  -2.510  -0.000   0.000
   19    6    8    9        3       0.628   1.883   0.000  -2.510  -0.000   0.000
   17    2    3    6        3       0.628   1.883   0.000  -2.510  -0.000   0.000
   32   12   10   11        3       0.628   1.883   0.000  -2.510  -0.000   0.000
   31   12   10   11        3       0.628   1.883   0.000  -2.510  -0.000   0.000
   24    8    6    3        3       0.628   1.883   0.000  -2.510  -0.000   0.000
   33   12   10    9        3       0.628   1.883   0.000  -2.510  -0.000   0.000
   25    9   10   12        3       0.628   1.883   0.000  -2.510  -0.000   0.000
   24    8    9   10        3       0.628   1.883   0.000  -2.510  -0.000   0.000
   22    7    6    8        3       0.628   1.883   0.000  -2.510  -0.000   0.000
   32   12   10    9        3       0.628   1.883   0.000  -2.510  -0.000   0.000
   20    7    6    8        3       0.628   1.883   0.000  -2.510  -0.000   0.000
   27   10    9    8        3       0.628   1.883   0.000  -2.510  -0.000   0.000
   23    8    6    7        3       0.628   1.883   0.000  -2.510  -0.000   0.000
   24    8    6    7        3       0.628   1.883   0.000  -2.510  -0.000   0.000
   30   11   10    9        3       0.628   1.883   0.000  -2.510  -0.000   0.000
   29   11   10    9        3       0.628   1.883   0.000  -2.510  -0.000   0.000
   26    9   10   11        3       0.628   1.883   0.000  -2.510  -0.000   0.000
   21    7    6    8        3       0.628   1.883   0.000  -2.510  -0.000   0.000
   23    8    9   10        3       0.628   1.883   0.000  -2.510  -0.000   0.000
   13    1    2    3        3       0.628   1.883   0.000  -2.510  -0.000   0.000
   29   11   10   12        3       0.628   1.883   0.000  -2.510  -0.000   0.000
   22    7    6    3        3       0.628   1.883   0.000  -2.510  -0.000   0.000
   20    7    6    3        3       0.628   1.883   0.000  -2.510  -0.000   0.000
   15    1    2    3        3       0.628   1.883   0.000  -2.510  -0.000   0.000
   26    9   10   12        3       0.628   1.883   0.000  -2.510  -0.000   0.000
   28   11   10    9        3       0.628   1.883   0.000  -2.510  -0.000   0.000
   30   11   10   12        3       0.628   1.883   0.000  -2.510  -0.000   0.000
   33   12   10   11        3       0.628   1.883   0.000  -2.510  -0.000   0.000
   18    3    2    1        3       0.628   1.883   0.000  -2.510  -0.000   0.000
   18    3    6    7        3       0.628   1.883   0.000  -2.510  -0.000   0.000
   19    6    3    2        3       0.628   1.883   0.000  -2.510  -0.000   0.000
   16    2    3    6        3       0.628   1.883   0.000  -2.510  -0.000   0.000
   28   11   10   12        3       0.628   1.883   0.000  -2.510  -0.000   0.000
   31   12   10    9        3       0.628   1.883   0.000  -2.510  -0.000   0.000
   19    6    3    4        3       0.766   2.297   0.000  -3.063  -0.000   0.000
   17    2    3    4        3       0.766   2.297   0.000  -3.063  -0.000   0.000
   16    2    3    4        3       0.766   2.297   0.000  -3.063  -0.000   0.000
   24    8    6   19        3       0.628   1.883   0.000  -2.510  -0.000   0.000
   19    6    3   18        3       0.628   1.883   0.000  -2.510  -0.000   0.000
   18    3    2   17        3       0.628   1.883   0.000  -2.510  -0.000   0.000
   25    9    8   23        3       0.628   1.883   0.000  -2.510  -0.000   0.000
   26    9    8   23        3       0.628   1.883   0.000  -2.510  -0.000   0.000
   16    2    1   14        3       0.628   1.883   0.000  -2.510  -0.000   0.000
   18    3    2   16        3       0.628   1.883   0.000  -2.510  -0.000   0.000
   33   12   10   27        3       0.628   1.883   0.000  -2.510  -0.000   0.000
   17    2    1   14        3       0.628   1.883   0.000  -2.510  -0.000   0.000
   27   10    9   25        3       0.628   1.883   0.000  -2.510  -0.000   0.000
   22    7    6   19        3       0.628   1.883   0.000  -2.510  -0.000   0.000
   20    7    6   19        3       0.628   1.883   0.000  -2.510  -0.000   0.000
   17    2    1   13        3       0.628   1.883   0.000  -2.510  -0.000   0.000
   17    2    1   15        3       0.628   1.883   0.000  -2.510  -0.000   0.000
   26    9    8   24        3       0.628   1.883   0.000  -2.510  -0.000   0.000
   29   11   10   27        3       0.628   1.883   0.000  -2.510  -0.000   0.000
   27   10    9   26        3       0.628   1.883   0.000  -2.510  -0.000   0.000
   16    2    1   15        3       0.628   1.883   0.000  -2.510  -0.000   0.000
   28   11   10   27        3       0.628   1.883   0.000  -2.510  -0.000   0.000
   23    8    6   19        3       0.628   1.883   0.000  -2.510  -0.000   0.000
   30   11   10   27        3       0.628   1.883   0.000  -2.510  -0.000   0.000
   16    2    1   13        3       0.628   1.883   0.000  -2.510  -0.000   0.000
   21    7    6   19        3       0.628   1.883   0.000  -2.510  -0.000   0.000
   31   12   10   27        3       0.628   1.883   0.000  -2.510  -0.000   0.000
   25    9    8   24        3       0.628   1.883   0.000  -2.510  -0.000   0.000
   32   12   10   27        3       0.628   1.883   0.000  -2.510  -0.000   0.000
   18    3    4    5        3       0.000   0.000   0.000  -0.000  -0.000   0.000
    5    4    3    2        3       0.000   0.000   0.000  -0.000  -0.000   0.000

[ pairs ]
     1     4    1
     2     5    1
     1     6    1
     2     7    1
     2     8    1
     5     6    1
     4     7    1
     4     8    1
     3     9    1
     7     9    1
     6    10    1
     3    13    1
     3    14    1
     3    15    1
     8    11    1
     1    18    1
     8    12    1
     4    16    1
     4    17    1
     2    19    1
     6    16    1
     6    17    1
     5    18    1
     4    19    1
     3    20    1
     3    21    1
     7    18    1
     3    22    1
     8    18    1
     3    23    1
     3    24    1
     9    19    1
     8    20    1
    13    16    1
     8    21    1
    14    16    1
    13    17    1
     8    22    1
     7    23    1
    15    16    1
    14    17    1
     7    24    1
     6    25    1
    15    17    1
     6    26    1
    10    23    1
    16    18    1
    10    24    1
    17    18    1
     8    27    1
    11    25    1
    18    19    1
    12    25    1
    11    26    1
     9    28    1
    12    26    1
     9    29    1
    19    20    1
     9    30    1
    19    21    1
    12    28    1
     9    31    1
    19    22    1
    12    29    1
     9    32    1
    19    23    1
    12    30    1
    11    31    1
     9    33    1
    19    24    1
    11    32    1
    11    33    1
    23    25    1
    24    25    1
    23    26    1
    24    26    1
    25    27    1
    26    27    1
    27    28    1
    27    29    1
    27    30    1
    27    31    1
    27    32    1
    27    33    1

