LIGPARGEN GENERATED GRO FILE
   33
    1UNK    C00    1   0.100   0.100   0.000
    1UNK    C01    2  -0.053   0.100   0.000
    1UNK    C02    3  -0.115   0.100   0.142
    1UNK    C03    4  -0.068   0.225   0.215
    1UNK    N04    5  -0.028   0.328   0.275
    1UNK    C05    6  -0.270   0.088   0.141
    1UNK    C06    7  -0.338   0.206   0.071
    1UNK    C07    8  -0.320  -0.044   0.077
    1UNK    C08    9  -0.264  -0.170   0.144
    1UNK    C09   10  -0.313  -0.301   0.080
    1UNK    C0A   11  -0.266  -0.316  -0.065
    1UNK    C0B   12  -0.261  -0.419   0.163
    1UNK    H0C   13   0.137   0.095  -0.103
    1UNK    H0D   14   0.139   0.014   0.054
    1UNK    H0E   15   0.141   0.191   0.045
    1UNK    H0F   16  -0.085   0.011  -0.055
    1UNK    H0G   17  -0.086   0.188  -0.057
    1UNK    H0H   18  -0.073   0.016   0.198
    1UNK    H0I   19  -0.304   0.089   0.246
    1UNK    H0J   20  -0.313   0.211  -0.035
    1UNK    H0K   21  -0.311   0.302   0.117
    1UNK    H0M   22  -0.447   0.197   0.078
    1UNK    H0N   23  -0.295  -0.043  -0.030
    1UNK    H0O   24  -0.429  -0.047   0.082
    1UNK    H0P   25  -0.293  -0.168   0.250
    1UNK    H0Q   26  -0.155  -0.170   0.141
    1UNK    H0R   27  -0.422  -0.303   0.082
    1UNK    H0S   28  -0.158  -0.305  -0.073
    1UNK    H0T   29  -0.313  -0.241  -0.130
    1UNK    H0U   30  -0.293  -0.414  -0.104
    1UNK    H0V   31  -0.152  -0.422   0.164
    1UNK    H0W   32  -0.297  -0.514   0.122
    1UNK    H0X   33  -0.296  -0.413   0.266
   1.00000   1.00000   1.00000

