LIGPARGEN GENERATED GRO FILE
   37
    1UNK    C00    1   0.100   0.100   0.000
    1UNK    C01    2  -0.052   0.100   0.000
    1UNK    C02    3  -0.113   0.100   0.140
    1UNK    C03    4  -0.263   0.138   0.124
    1UNK    C04    5  -0.354   0.019   0.082
    1UNK    C05    6  -0.351  -0.092   0.190
    1UNK    C06    7  -0.461  -0.200   0.182
    1UNK    C07    8  -0.604  -0.145   0.197
    1UNK    C08    9  -0.662  -0.093   0.066
    1UNK    C09   10  -0.564  -0.008  -0.010
    1UNK    O0A   11  -0.551  -0.007  -0.132
    1UNK    O0B   12  -0.489   0.067   0.074
    1UNK    C0C   13  -0.260   0.265   0.033
    1UNK    C0D   14  -0.386   0.306  -0.041
    1UNK    S0E   15  -0.121   0.245  -0.079
    1UNK    O0F   16  -0.031   0.358  -0.058
    1UNK    O0G   17  -0.166   0.206  -0.210
    1UNK    H0H   18   0.139   0.008   0.045
    1UNK    H0I   19   0.141   0.184   0.057
    1UNK    H0J   20   0.139   0.107  -0.102
    1UNK    H0K   21  -0.088   0.014  -0.057
    1UNK    H0M   22  -0.064   0.176   0.202
    1UNK    H0N   23  -0.098   0.004   0.190
    1UNK    H0O   24  -0.300   0.172   0.222
    1UNK    H0P   25  -0.321  -0.021  -0.014
    1UNK    H0Q   26  -0.359  -0.046   0.289
    1UNK    H0R   27  -0.254  -0.143   0.187
    1UNK    H0S   28  -0.443  -0.270   0.264
    1UNK    H0T   29  -0.451  -0.257   0.089
    1UNK    H0U   30  -0.606  -0.067   0.273
    1UNK    H0V   31  -0.669  -0.226   0.234
    1UNK    H0W   32  -0.753  -0.035   0.084
    1UNK    H0X   33  -0.688  -0.179   0.002
    1UNK    H0Y   34  -0.232   0.349   0.098
    1UNK    H0Z   35  -0.410   0.238  -0.124
    1UNK    H10   36  -0.373   0.405  -0.085
    1UNK    H11   37  -0.472   0.311   0.026
   1.00000   1.00000   1.00000

