
;
; GENERATED BY LigParGen Server
; Jorgensen Lab @ Yale University 
;
[ atomtypes ]
  opls_818  H818     1.0080     0.000    A    2.50000E-01   1.25520E-01
  opls_824  H824     1.0080     0.000    A    2.50000E-01   1.25520E-01
  opls_805  C805    12.0110     0.000    A    3.50000E-01   2.76144E-01
  opls_816  O816    15.9990     0.000    A    2.96000E-01   7.11280E-01
  opls_836  H836     1.0080     0.000    A    2.50000E-01   1.25520E-01
  opls_834  H834     1.0080     0.000    A    2.50000E-01   1.25520E-01
  opls_828  H828     1.0080     0.000    A    2.50000E-01   1.25520E-01
  opls_802  C802    12.0110     0.000    A    3.50000E-01   2.76144E-01
  opls_827  H827     1.0080     0.000    A    2.50000E-01   1.25520E-01
  opls_801  C801    12.0110     0.000    A    3.50000E-01   2.76144E-01
  opls_822  H822     1.0080     0.000    A    2.50000E-01   1.25520E-01
  opls_803  C803    12.0110     0.000    A    3.50000E-01   2.76144E-01
  opls_825  H825     1.0080     0.000    A    2.50000E-01   1.25520E-01
  opls_830  H830     1.0080     0.000    A    2.50000E-01   1.25520E-01
  opls_810  O810    15.9990     0.000    A    2.96000E-01   8.78640E-01
  opls_821  H821     1.0080     0.000    A    2.50000E-01   1.25520E-01
  opls_820  H820     1.0080     0.000    A    2.50000E-01   1.25520E-01
  opls_809  C809    12.0110     0.000    A    3.55000E-01   2.92880E-01
  opls_814  S814    32.0600     0.000    A    3.55000E-01   1.04600E+00
  opls_831  H831     1.0080     0.000    A    2.50000E-01   1.25520E-01
  opls_832  H832     1.0080     0.000    A    2.50000E-01   1.25520E-01
  opls_800  C800    12.0110     0.000    A    3.50000E-01   2.76144E-01
  opls_806  C806    12.0110     0.000    A    3.50000E-01   2.76144E-01
  opls_823  H823     1.0080     0.000    A    2.50000E-01   1.25520E-01
  opls_813  C813    12.0110     0.000    A    3.50000E-01   2.76144E-01
  opls_826  H826     1.0080     0.000    A    2.50000E-01   1.25520E-01
  opls_835  H835     1.0080     0.000    A    2.50000E-01   1.25520E-01
  opls_819  H819     1.0080     0.000    A    2.50000E-01   1.25520E-01
  opls_804  C804    12.0110     0.000    A    3.50000E-01   2.76144E-01
  opls_833  H833     1.0080     0.000    A    2.50000E-01   1.25520E-01
  opls_811  O811    15.9990     0.000    A    2.90000E-01   5.85760E-01
  opls_812  C812    12.0110     0.000    A    3.50000E-01   2.76144E-01
  opls_808  C808    12.0110     0.000    A    3.50000E-01   2.76144E-01
  opls_817  H817     1.0080     0.000    A    2.50000E-01   1.25520E-01
  opls_815  O815    15.9990     0.000    A    2.96000E-01   7.11280E-01
  opls_829  H829     1.0080     0.000    A    2.50000E-01   1.25520E-01
  opls_807  C807    12.0110     0.000    A    3.50000E-01   2.76144E-01
[ moleculetype ]
; Name               nrexcl
UNK                   3
[ atoms ]
;   nr       type  resnr residue  atom   cgnr     charge       mass  
     1   opls_800      1    UNK   C00      1     -0.202    12.0110 
     2   opls_801      1    UNK   C01      1    -0.4482    12.0110 
     3   opls_802      1    UNK   C02      1     -0.165    12.0110 
     4   opls_803      1    UNK   C03      1    -0.0981    12.0110 
     5   opls_804      1    UNK   C04      1     0.1033    12.0110 
     6   opls_805      1    UNK   C05      1    -0.2117    12.0110 
     7   opls_806      1    UNK   C06      1    -0.1791    12.0110 
     8   opls_807      1    UNK   C07      1    -0.1677    12.0110 
     9   opls_808      1    UNK   C08      1    -0.2173    12.0110 
    10   opls_809      1    UNK   C09      1     0.4577    12.0110 
    11   opls_810      1    UNK   O0A      1    -0.3966    15.9990 
    12   opls_811      1    UNK   O0B      1     -0.389    15.9990 
    13   opls_812      1    UNK   C0C      1    -0.4034    12.0110 
    14   opls_813      1    UNK   C0D      1    -0.2058    12.0110 
    15   opls_814      1    UNK   S0E      1      1.289    32.0600 
    16   opls_815      1    UNK   O0F      1    -0.5609    15.9990 
    17   opls_816      1    UNK   O0G      1    -0.5609    15.9990 
    18   opls_817      1    UNK   H0H      1     0.1036     1.0080 
    19   opls_818      1    UNK   H0I      1     0.1036     1.0080 
    20   opls_819      1    UNK   H0J      1     0.1036     1.0080 
    21   opls_820      1    UNK   H0K      1     0.1732     1.0080 
    22   opls_821      1    UNK   H0M      1     0.1217     1.0080 
    23   opls_822      1    UNK   H0N      1     0.1217     1.0080 
    24   opls_823      1    UNK   H0O      1     0.1331     1.0080 
    25   opls_824      1    UNK   H0P      1      0.121     1.0080 
    26   opls_825      1    UNK   H0Q      1     0.1022     1.0080 
    27   opls_826      1    UNK   H0R      1     0.1022     1.0080 
    28   opls_827      1    UNK   H0S      1     0.0983     1.0080 
    29   opls_828      1    UNK   H0T      1     0.0983     1.0080 
    30   opls_829      1    UNK   H0U      1     0.1037     1.0080 
    31   opls_830      1    UNK   H0V      1     0.1037     1.0080 
    32   opls_831      1    UNK   H0W      1     0.1332     1.0080 
    33   opls_832      1    UNK   H0X      2     0.1332     1.0080 
    34   opls_833      1    UNK   H0Y      2     0.1663     1.0080 
    35   opls_834      1    UNK   H0Z      2     0.1111     1.0080 
    36   opls_835      1    UNK   H10      2     0.1111     1.0080 
    37   opls_836      1    UNK   H11      2     0.1111     1.0080 
[ bonds ]
    2     1     1      0.1529 224262.400
    3     2     1      0.1529 224262.400
    4     3     1      0.1529 224262.400
    5     4     1      0.1529 224262.400
    6     5     1      0.1529 224262.400
    7     6     1      0.1529 224262.400
    8     7     1      0.1529 224262.400
    9     8     1      0.1529 224262.400
   10     9     1      0.1522 265265.600
   11    10     1      0.1229 476976.000
   12     5     1      0.1410 267776.000
   13     4     1      0.1529 224262.400
   14    13     1      0.1529 224262.400
   15     2     1      0.1770 284512.000
   16    15     1      0.1440 585760.000
   17    15     1      0.1440 585760.000
   18     1     1      0.1090 284512.000
   19     1     1      0.1090 284512.000
   20     1     1      0.1090 284512.000
   21     2     1      0.1090 284512.000
   22     3     1      0.1090 284512.000
   23     3     1      0.1090 284512.000
   24     4     1      0.1090 284512.000
   25     5     1      0.1090 284512.000
   26     6     1      0.1090 284512.000
   27     6     1      0.1090 284512.000
   28     7     1      0.1090 284512.000
   29     7     1      0.1090 284512.000
   30     8     1      0.1090 284512.000
   31     8     1      0.1090 284512.000
   32     9     1      0.1090 284512.000
   33     9     1      0.1090 284512.000
   34    13     1      0.1090 284512.000
   35    14     1      0.1090 284512.000
   36    14     1      0.1090 284512.000
   37    14     1      0.1090 284512.000
   12    10     1      0.1327 179075.200
   15    13     1      0.1770 284512.000

[ angles ]
;  ai    aj    ak funct            c0            c1            c2            c3 
    1     2     3     1    112.700    488.273
    2     3     4     1    112.700    488.273
    3     4     5     1    112.700    488.273
    4     5     6     1    112.700    488.273
    5     6     7     1    112.700    488.273
    6     7     8     1    112.700    488.273
    7     8     9     1    112.700    488.273
    8     9    10     1    111.100    527.184
    9    10    11     1    120.400    669.440
    4     5    12     1    109.500    418.400
    3     4    13     1    112.700    488.273
    4    13    14     1    112.700    488.273
    1     2    15     1    108.600    418.400
    2    15    16     1    108.900    619.232
    2    15    17     1    108.900    619.232
    2     1    18     1    110.700    313.800
    2     1    19     1    110.700    313.800
    2     1    20     1    110.700    313.800
    1     2    21     1    110.700    313.800
    2     3    22     1    110.700    313.800
    2     3    23     1    110.700    313.800
    3     4    24     1    110.700    313.800
    4     5    25     1    110.700    313.800
    5     6    26     1    110.700    313.800
    5     6    27     1    110.700    313.800
    6     7    28     1    110.700    313.800
    6     7    29     1    110.700    313.800
    7     8    30     1    110.700    313.800
    7     8    31     1    110.700    313.800
    8     9    32     1    110.700    313.800
    8     9    33     1    110.700    313.800
    4    13    34     1    110.700    313.800
   13    14    35     1    110.700    313.800
   13    14    36     1    110.700    313.800
   13    14    37     1    110.700    313.800
    5    12    10     1    116.900    694.544
   19     1    20     1    107.800    276.144
    3     2    15     1    108.600    418.400
    9     8    30     1    110.700    313.800
    3     2    21     1    110.700    313.800
   13    15    17     1    108.900    619.232
    5     4    24     1    110.700    313.800
    7     6    27     1    110.700    313.800
   13     4    24     1    110.700    313.800
    4     3    22     1    110.700    313.800
    9     8    31     1    110.700    313.800
   35    14    36     1    107.800    276.144
   15    13    34     1    109.500    292.880
   22     3    23     1    107.800    276.144
   14    13    15     1    108.600    418.400
    5     4    13     1    112.700    488.273
    4     3    23     1    110.700    313.800
   14    13    34     1    110.700    313.800
    7     6    26     1    110.700    313.800
   10     9    33     1    109.500    292.880
    8     7    29     1    110.700    313.800
   18     1    19     1    107.800    276.144
    8     7    28     1    110.700    313.800
    9    10    12     1    111.400    677.808
   28     7    29     1    107.800    276.144
    4    13    15     1    108.600    418.400
   12     5    25     1    109.500    292.880
    6     5    12     1    109.500    418.400
   16    15    17     1    119.000    870.272
   26     6    27     1    107.800    276.144
   18     1    20     1    107.800    276.144
    2    15    13     1    102.000    518.816
   15     2    21     1    109.500    292.880
   30     8    31     1    107.800    276.144
    6     5    25     1    110.700    313.800
   32     9    33     1    107.800    276.144
   35    14    37     1    107.800    276.144
   10     9    32     1    109.500    292.880
   11    10    12     1    123.400    694.544
   36    14    37     1    107.800    276.144
   13    15    16     1    108.900    619.232

[ dihedrals ]
; IMPROPER DIHEDRAL ANGLES 
;  ai    aj    ak    al funct            c0            c1            c2            c3            c4            c5
     9    10    11    12    4        180.000     43.932     2  

[ dihedrals ]
; PROPER DIHEDRAL ANGLES
;  ai    aj    ak    al funct            c0            c1            c2            c3            c4            c5
   10    9    8    7        3      -4.960   6.286   1.310  -2.636  -0.000   0.000
   10   12    5    6        3      -2.197   5.201   0.527  -3.531  -0.000   0.000
   10   12    5    4        3      -2.197   5.201   0.527  -3.531  -0.000   0.000
    9   10   12    5        3      31.206  -9.768  -21.439  -0.000  -0.000   0.000
   13    4    3    2        3       2.301  -1.464   0.837  -1.674  -0.000   0.000
   14   13    4    5        3       2.301  -1.464   0.837  -1.674  -0.000   0.000
   13    4    5    6        3       2.301  -1.464   0.837  -1.674  -0.000   0.000
   14   13    4    3        3       2.301  -1.464   0.837  -1.674  -0.000   0.000
    4    3    2    1        3       2.301  -1.464   0.837  -1.674  -0.000   0.000
    8    7    6    5        3       2.301  -1.464   0.837  -1.674  -0.000   0.000
    5    4    3    2        3       2.301  -1.464   0.837  -1.674  -0.000   0.000
    9    8    7    6        3       2.301  -1.464   0.837  -1.674  -0.000   0.000
    7    6    5    4        3       2.301  -1.464   0.837  -1.674  -0.000   0.000
    6    5    4    3        3       2.301  -1.464   0.837  -1.674  -0.000   0.000
   13    4    5   12        3       2.874   0.582   2.092  -5.548  -0.000   0.000
   14   13   15    2        3       0.000   0.000   0.000  -0.000  -0.000   0.000
    4   13   15    2        3       0.000   0.000   0.000  -0.000  -0.000   0.000
   13   15    2    3        3       0.000   0.000   0.000  -0.000  -0.000   0.000
   13   15    2    1        3       0.000   0.000   0.000  -0.000  -0.000   0.000
   32    9   10   11        3       0.000   0.000   0.000  -0.000  -0.000   0.000
   33    9   10   11        3       0.000   0.000   0.000  -0.000  -0.000   0.000
   32    9   10   12        3       0.276   0.828   0.000  -1.105  -0.000   0.000
   33    9   10   12        3       0.276   0.828   0.000  -1.105  -0.000   0.000
   30    8    9   10        3      -0.209  -0.628   0.000   0.837  -0.000   0.000
   31    8    9   10        3      -0.209  -0.628   0.000   0.837  -0.000   0.000
   30    8    7    6        3       0.628   1.883   0.000  -2.510  -0.000   0.000
   32    9    8    7        3       0.628   1.883   0.000  -2.510  -0.000   0.000
   23    3    2    1        3       0.628   1.883   0.000  -2.510  -0.000   0.000
   23    3    4    5        3       0.628   1.883   0.000  -2.510  -0.000   0.000
   28    7    6    5        3       0.628   1.883   0.000  -2.510  -0.000   0.000
   33    9    8    7        3       0.628   1.883   0.000  -2.510  -0.000   0.000
   34   13    4    5        3       0.628   1.883   0.000  -2.510  -0.000   0.000
   26    6    5    4        3       0.628   1.883   0.000  -2.510  -0.000   0.000
   22    3    4   13        3       0.628   1.883   0.000  -2.510  -0.000   0.000
   29    7    6    5        3       0.628   1.883   0.000  -2.510  -0.000   0.000
   26    6    7    8        3       0.628   1.883   0.000  -2.510  -0.000   0.000
   22    3    2    1        3       0.628   1.883   0.000  -2.510  -0.000   0.000
   20    1    2    3        3       0.628   1.883   0.000  -2.510  -0.000   0.000
   27    6    5    4        3       0.628   1.883   0.000  -2.510  -0.000   0.000
   24    4   13   14        3       0.628   1.883   0.000  -2.510  -0.000   0.000
   23    3    4   13        3       0.628   1.883   0.000  -2.510  -0.000   0.000
   37   14   13    4        3       0.628   1.883   0.000  -2.510  -0.000   0.000
   21    2    3    4        3       0.628   1.883   0.000  -2.510  -0.000   0.000
   24    4    3    2        3       0.628   1.883   0.000  -2.510  -0.000   0.000
   24    4    5    6        3       0.628   1.883   0.000  -2.510  -0.000   0.000
   25    5    4   13        3       0.628   1.883   0.000  -2.510  -0.000   0.000
   29    7    8    9        3       0.628   1.883   0.000  -2.510  -0.000   0.000
   27    6    7    8        3       0.628   1.883   0.000  -2.510  -0.000   0.000
   25    5    6    7        3       0.628   1.883   0.000  -2.510  -0.000   0.000
   35   14   13    4        3       0.628   1.883   0.000  -2.510  -0.000   0.000
   28    7    8    9        3       0.628   1.883   0.000  -2.510  -0.000   0.000
   36   14   13    4        3       0.628   1.883   0.000  -2.510  -0.000   0.000
   34   13    4    3        3       0.628   1.883   0.000  -2.510  -0.000   0.000
   22    3    4    5        3       0.628   1.883   0.000  -2.510  -0.000   0.000
   18    1    2    3        3       0.628   1.883   0.000  -2.510  -0.000   0.000
   19    1    2    3        3       0.628   1.883   0.000  -2.510  -0.000   0.000
   25    5    4    3        3       0.628   1.883   0.000  -2.510  -0.000   0.000
   31    8    7    6        3       0.628   1.883   0.000  -2.510  -0.000   0.000
   31    8    7   29        3       0.628   1.883   0.000  -2.510  -0.000   0.000
   35   14   13   34        3       0.628   1.883   0.000  -2.510  -0.000   0.000
   29    7    6   27        3       0.628   1.883   0.000  -2.510  -0.000   0.000
   23    3    2   21        3       0.628   1.883   0.000  -2.510  -0.000   0.000
   33    9    8   31        3       0.628   1.883   0.000  -2.510  -0.000   0.000
   36   14   13   34        3       0.628   1.883   0.000  -2.510  -0.000   0.000
   30    8    7   29        3       0.628   1.883   0.000  -2.510  -0.000   0.000
   29    7    6   26        3       0.628   1.883   0.000  -2.510  -0.000   0.000
   31    8    7   28        3       0.628   1.883   0.000  -2.510  -0.000   0.000
   26    6    5   25        3       0.628   1.883   0.000  -2.510  -0.000   0.000
   22    3    2   21        3       0.628   1.883   0.000  -2.510  -0.000   0.000
   21    2    1   18        3       0.628   1.883   0.000  -2.510  -0.000   0.000
   34   13    4   24        3       0.628   1.883   0.000  -2.510  -0.000   0.000
   28    7    6   26        3       0.628   1.883   0.000  -2.510  -0.000   0.000
   37   14   13   34        3       0.628   1.883   0.000  -2.510  -0.000   0.000
   28    7    6   27        3       0.628   1.883   0.000  -2.510  -0.000   0.000
   30    8    7   28        3       0.628   1.883   0.000  -2.510  -0.000   0.000
   32    9    8   31        3       0.628   1.883   0.000  -2.510  -0.000   0.000
   27    6    5   25        3       0.628   1.883   0.000  -2.510  -0.000   0.000
   21    2    1   19        3       0.628   1.883   0.000  -2.510  -0.000   0.000
   33    9    8   30        3       0.628   1.883   0.000  -2.510  -0.000   0.000
   32    9    8   30        3       0.628   1.883   0.000  -2.510  -0.000   0.000
   21    2    1   20        3       0.628   1.883   0.000  -2.510  -0.000   0.000
   25    5    4   24        3       0.628   1.883   0.000  -2.510  -0.000   0.000
   24    4    3   22        3       0.628   1.883   0.000  -2.510  -0.000   0.000
   24    4    3   23        3       0.628   1.883   0.000  -2.510  -0.000   0.000
   27    6    5   12        3       0.979   2.937   0.000  -3.916  -0.000   0.000
   26    6    5   12        3       0.979   2.937   0.000  -3.916  -0.000   0.000
   24    4    5   12        3       0.979   2.937   0.000  -3.916  -0.000   0.000
   37   14   13   15        3       0.946   2.837   0.000  -3.782  -0.000   0.000
   22    3    2   15        3       0.946   2.837   0.000  -3.782  -0.000   0.000
   35   14   13   15        3       0.946   2.837   0.000  -3.782  -0.000   0.000
   23    3    2   15        3       0.946   2.837   0.000  -3.782  -0.000   0.000
   20    1    2   15        3       0.946   2.837   0.000  -3.782  -0.000   0.000
   18    1    2   15        3       0.946   2.837   0.000  -3.782  -0.000   0.000
   24    4   13   15        3       0.946   2.837   0.000  -3.782  -0.000   0.000
   36   14   13   15        3       0.946   2.837   0.000  -3.782  -0.000   0.000
   19    1    2   15        3       0.946   2.837   0.000  -3.782  -0.000   0.000
   25    5   12   10        3       0.414   1.243   0.000  -1.657  -0.000   0.000
   34   13   15    2        3       0.732   2.197   0.000  -2.929  -0.000   0.000
   21    2   15   13        3       0.732   2.197   0.000  -2.929  -0.000   0.000
   34   13   15   16        3       0.732   2.197   0.000  -2.929  -0.000   0.000
   21    2   15   17        3       0.732   2.197   0.000  -2.929  -0.000   0.000
   34   13   15   17        3       0.732   2.197   0.000  -2.929  -0.000   0.000
   21    2   15   16        3       0.732   2.197   0.000  -2.929  -0.000   0.000
   11   10    9    8        3       0.000   0.000   0.000  -0.000  -0.000   0.000
   11   10   12    5        3      21.439   0.000  -21.439  -0.000  -0.000   0.000
   12   10    9    8        3      -1.157  -3.471   0.000   4.628  -0.000   0.000
   12    5    4    3        3       2.874   0.582   2.092  -5.548  -0.000   0.000
   12    5    6    7        3       2.874   0.582   2.092  -5.548  -0.000   0.000
   17   15    2    3        3       0.000   0.000   0.000  -0.000  -0.000   0.000
   17   15   13    4        3       0.000   0.000   0.000  -0.000  -0.000   0.000
   16   15   13   14        3       0.000   0.000   0.000  -0.000  -0.000   0.000
   16   15   13    4        3       0.000   0.000   0.000  -0.000  -0.000   0.000
   16   15    2    3        3       0.000   0.000   0.000  -0.000  -0.000   0.000
   17   15   13   14        3       0.000   0.000   0.000  -0.000  -0.000   0.000
   16   15    2    1        3       0.000   0.000   0.000  -0.000  -0.000   0.000
   17   15    2    1        3       0.000   0.000   0.000  -0.000  -0.000   0.000
   15   13    4    5        3       2.784   0.278   0.828  -3.891  -0.000   0.000
   15   13    4    3        3       2.784   0.278   0.828  -3.891  -0.000   0.000
   15    2    3    4        3       2.784   0.278   0.828  -3.891  -0.000   0.000

[ pairs ]
     1     4    1
     2     5    1
     3     6    1
     4     7    1
     5     8    1
     5     9    1
     4    10    1
     1    13    1
     6     9    1
     3    12    1
     6    10    1
     5    11    1
     2    14    1
     7    10    1
     3    14    1
     1    16    1
     1    17    1
     8    11    1
     7    12    1
     6    13    1
     5    14    1
     3    16    1
     8    12    1
     5    15    1
     4    16    1
     3    17    1
     4    17    1
     3    18    1
     3    19    1
     3    20    1
     1    22    1
     1    23    1
    12    13    1
     4    21    1
     2    24    1
     5    22    1
     5    23    1
     3    25    1
    14    16    1
     6    24    1
     4    26    1
    14    17    1
     4    27    1
     7    25    1
    15    18    1
     5    28    1
    15    19    1
    13    21    1
     8    26    1
     5    29    1
    15    20    1
    13    22    1
    10    25    1
     8    27    1
    13    23    1
    12    24    1
     6    30    1
     2    34    1
    16    21    1
    15    22    1
     9    28    1
     6    31    1
     3    34    1
    17    21    1
    15    23    1
    14    24    1
    13    25    1
    12    26    1
     9    29    1
    18    21    1
    15    24    1
    12    27    1
     7    32    1
     5    34    1
     4    35    1
    19    21    1
    10    30    1
     7    33    1
     4    36    1
    20    21    1
    10    31    1
     4    37    1
    21    22    1
    11    32    1
    21    23    1
    12    32    1
    11    33    1
    12    33    1
    22    24    1
    23    24    1
    24    25    1
    16    34    1
    15    35    1
    25    26    1
    17    34    1
    15    36    1
    25    27    1
    15    37    1
    26    28    1
    27    28    1
    26    29    1
    27    29    1
    28    30    1
    24    34    1
    29    30    1
    28    31    1
    29    31    1
    30    32    1
    31    32    1
    30    33    1
    31    33    1
    34    35    1
    34    36    1
    34    37    1

