LIGPARGEN GENERATED GRO FILE
   33
    1UNK    C00    1   0.100   0.100   0.000
    1UNK    C01    2  -0.056   0.100   0.000
    1UNK    C02    3  -0.118   0.100   0.142
    1UNK    C03    4  -0.279   0.091   0.150
    1UNK    C04    5  -0.341   0.217   0.206
    1UNK    C05    6  -0.464   0.301   0.203
    1UNK    C06    7  -0.354   0.333   0.104
    1UNK    C07    8  -0.225   0.408   0.101
    1UNK    C08    9  -0.234   0.559   0.109
    1UNK    N09   10  -0.242   0.685   0.116
    1UNK    C0A   11  -0.100   0.331   0.065
    1UNK    C0B   12  -0.066   0.238   0.187
    1UNK    C0C   13  -0.101   0.235  -0.060
    1UNK    C0D   14  -0.223   0.213  -0.149
    1UNK    H0E   15   0.141   0.011   0.050
    1UNK    H0F   16   0.144   0.190   0.046
    1UNK    H0G   17   0.137   0.102  -0.105
    1UNK    H0H   18  -0.090   0.013  -0.057
    1UNK    H0I   19  -0.076   0.020   0.202
    1UNK    H0J   20  -0.303   0.009   0.219
    1UNK    H0K   21  -0.323   0.060   0.055
    1UNK    H0M   22  -0.298   0.228   0.306
    1UNK    H0N   23  -0.479   0.373   0.283
    1UNK    H0O   24  -0.555   0.255   0.166
    1UNK    H0P   25  -0.397   0.328   0.005
    1UNK    H0Q   26  -0.210   0.412   0.210
    1UNK    H0R   27  -0.017   0.401   0.054
    1UNK    H0S   28  -0.104   0.268   0.285
    1UNK    H0T   29   0.043   0.235   0.206
    1UNK    H0U   30  -0.023   0.272  -0.129
    1UNK    H0V   31  -0.317   0.192  -0.098
    1UNK    H0W   32  -0.207   0.123  -0.213
    1UNK    H0X   33  -0.239   0.297  -0.217
   1.00000   1.00000   1.00000

