
;
; GENERATED BY LigParGen Server
; Jorgensen Lab @ Yale University 
;
[ atomtypes ]
  opls_818  H818     1.0080     0.000    A    2.50000E-01   1.25520E-01
  opls_804  C804    12.0110     0.000    A    3.45000E-01   3.47272E-01
  opls_809  N809    14.0070     0.000    A    3.20000E-01   7.11280E-01
  opls_824  H824     1.0080     0.000    A    2.50000E-01   1.25520E-01
  opls_805  C805    12.0110     0.000    A    3.45000E-01   3.47272E-01
  opls_828  H828     1.0080     0.000    A    2.50000E-01   1.25520E-01
  opls_832  H832     1.0080     0.000    A    2.50000E-01   1.25520E-01
  opls_802  C802    12.0110     0.000    A    3.50000E-01   2.76144E-01
  opls_815  H815     1.0080     0.000    A    2.50000E-01   1.25520E-01
  opls_801  C801    12.0110     0.000    A    3.50000E-01   2.76144E-01
  opls_830  H830     1.0080     0.000    A    2.50000E-01   1.25520E-01
  opls_822  H822     1.0080     0.000    A    2.50000E-01   1.25520E-01
  opls_803  C803    12.0110     0.000    A    3.50000E-01   2.76144E-01
  opls_825  H825     1.0080     0.000    A    2.50000E-01   1.25520E-01
  opls_826  H826     1.0080     0.000    A    2.50000E-01   1.25520E-01
  opls_814  H814     1.0080     0.000    A    2.50000E-01   1.25520E-01
  opls_808  C808    12.0110     0.000    A    3.30000E-01   2.76144E-01
  opls_821  H821     1.0080     0.000    A    2.50000E-01   1.25520E-01
  opls_820  H820     1.0080     0.000    A    2.50000E-01   1.25520E-01
  opls_829  H829     1.0080     0.000    A    2.50000E-01   1.25520E-01
  opls_831  H831     1.0080     0.000    A    2.50000E-01   1.25520E-01
  opls_816  H816     1.0080     0.000    A    2.50000E-01   1.25520E-01
  opls_800  C800    12.0110     0.000    A    3.50000E-01   2.76144E-01
  opls_811  C811    12.0110     0.000    A    3.50000E-01   2.76144E-01
  opls_823  H823     1.0080     0.000    A    2.50000E-01   1.25520E-01
  opls_813  C813    12.0110     0.000    A    3.50000E-01   2.76144E-01
  opls_806  C806    12.0110     0.000    A    3.45000E-01   3.47272E-01
  opls_819  H819     1.0080     0.000    A    2.50000E-01   1.25520E-01
  opls_810  C810    12.0110     0.000    A    3.50000E-01   2.76144E-01
  opls_827  H827     1.0080     0.000    A    2.50000E-01   1.25520E-01
  opls_812  C812    12.0110     0.000    A    3.50000E-01   2.76144E-01
  opls_817  H817     1.0080     0.000    A    2.50000E-01   1.25520E-01
  opls_807  C807    12.0110     0.000    A    3.50000E-01   2.76144E-01
[ moleculetype ]
; Name               nrexcl
UNK                   3
[ atoms ]
;   nr       type  resnr residue  atom   cgnr     charge       mass  
     1   opls_800      1    UNK   C00      1    -0.2391    12.0110 
     2   opls_801      1    UNK   C01      1    -0.1195    12.0110 
     3   opls_802      1    UNK   C02      1    -0.1056    12.0110 
     4   opls_803      1    UNK   C03      1    -0.1105    12.0110 
     5   opls_804      1    UNK   C04      1     -0.216    12.0110 
     6   opls_805      1    UNK   C05      1    -0.1601    12.0110 
     7   opls_806      1    UNK   C06      1    -0.2047    12.0110 
     8   opls_807      1    UNK   C07      1     0.0431    12.0110 
     9   opls_808      1    UNK   C08      1     0.1477    12.0110 
    10   opls_809      1    UNK   N09      1    -0.4136    14.0070 
    11   opls_810      1    UNK   C0A      1    -0.0462    12.0110 
    12   opls_811      1    UNK   C0B      1    -0.1972    12.0110 
    13   opls_812      1    UNK   C0C      1    -0.0988    12.0110 
    14   opls_813      1    UNK   C0D      1     -0.231    12.0110 
    15   opls_814      1    UNK   H0E      1     0.0841     1.0080 
    16   opls_815      1    UNK   H0F      1     0.0841     1.0080 
    17   opls_816      1    UNK   H0G      1     0.0841     1.0080 
    18   opls_817      1    UNK   H0H      1     0.1098     1.0080 
    19   opls_818      1    UNK   H0I      1     0.1075     1.0080 
    20   opls_819      1    UNK   H0J      1     0.0903     1.0080 
    21   opls_820      1    UNK   H0K      1     0.0903     1.0080 
    22   opls_821      1    UNK   H0M      1     0.1297     1.0080 
    23   opls_822      1    UNK   H0N      1     0.1321     1.0080 
    24   opls_823      1    UNK   H0O      1     0.1321     1.0080 
    25   opls_824      1    UNK   H0P      1     0.1484     1.0080 
    26   opls_825      1    UNK   H0Q      1     0.0976     1.0080 
    27   opls_826      1    UNK   H0R      1     0.1151     1.0080 
    28   opls_827      1    UNK   H0S      1     0.0979     1.0080 
    29   opls_828      1    UNK   H0T      1     0.0979     1.0080 
    30   opls_829      1    UNK   H0U      1     0.0976     1.0080 
    31   opls_830      1    UNK   H0V      1     0.0844     1.0080 
    32   opls_831      1    UNK   H0W      1     0.0844     1.0080 
    33   opls_832      1    UNK   H0X      2     0.0844     1.0080 
[ bonds ]
    2     1     1      0.1529 224262.400
    3     2     1      0.1529 224262.400
    4     3     1      0.1529 224262.400
    5     4     1      0.1510 234304.000
    6     5     1      0.1520 217568.000
    7     5     1      0.1520 217568.000
    8     7     1      0.1510 234304.000
    9     8     1      0.1470 326352.000
   10     9     1      0.1157 543920.000
   11     8     1      0.1529 224262.400
   12     3     1      0.1529 224262.400
   13     2     1      0.1529 224262.400
   14    13     1      0.1529 224262.400
   15     1     1      0.1090 284512.000
   16     1     1      0.1090 284512.000
   17     1     1      0.1090 284512.000
   18     2     1      0.1090 284512.000
   19     3     1      0.1090 284512.000
   20     4     1      0.1090 284512.000
   21     4     1      0.1090 284512.000
   22     5     1      0.1088 284512.000
   23     6     1      0.1088 284512.000
   24     6     1      0.1088 284512.000
   25     7     1      0.1088 284512.000
   26     8     1      0.1090 284512.000
   27    11     1      0.1090 284512.000
   28    12     1      0.1090 284512.000
   29    12     1      0.1090 284512.000
   30    13     1      0.1090 284512.000
   31    14     1      0.1090 284512.000
   32    14     1      0.1090 284512.000
   33    14     1      0.1090 284512.000
    7     6     1      0.1520 217568.000
   12    11     1      0.1529 224262.400
   13    11     1      0.1529 224262.400

[ angles ]
;  ai    aj    ak funct            c0            c1            c2            c3 
    1     2     3     1    112.700    488.273
    2     3     4     1    112.700    488.273
    3     4     5     1    112.700    488.273
    4     5     6     1    117.200    313.800
    4     5     7     1    117.200    313.800
    5     7     8     1    117.200    313.800
    7     8     9     1    112.700    488.273
    8     9    10     1    180.000   1255.200
    7     8    11     1    112.700    488.273
    2     3    12     1    112.700    488.273
    1     2    13     1    112.700    488.273
    2    13    14     1    112.700    488.273
    2     1    15     1    110.700    313.800
    2     1    16     1    110.700    313.800
    2     1    17     1    110.700    313.800
    1     2    18     1    110.700    313.800
    2     3    19     1    110.700    313.800
    3     4    20     1    110.700    313.800
    3     4    21     1    110.700    313.800
    4     5    22     1    114.300    292.880
    5     6    23     1    117.200    313.800
    5     6    24     1    117.200    313.800
    5     7    25     1    117.200    313.800
    7     8    26     1    110.700    313.800
    8    11    27     1    110.700    313.800
    3    12    28     1    110.700    313.800
    3    12    29     1    110.700    313.800
    2    13    30     1    110.700    313.800
   13    14    31     1    110.700    313.800
   13    14    32     1    110.700    313.800
   13    14    33     1    110.700    313.800
   11    12    28     1    110.700    313.800
   11    13    30     1    110.700    313.800
    3     2    18     1    110.700    313.800
   11    12    29     1    110.700    313.800
    2    13    11     1    112.700    488.273
    6     5    22     1    117.200    313.800
    8    11    12     1    112.700    488.273
   31    14    32     1    107.800    276.144
   13     2    18     1    110.700    313.800
    9     8    11     1    112.700    488.273
    4     3    19     1    110.700    313.800
    6     7    25     1    117.200    313.800
   16     1    17     1    107.800    276.144
    7     6    23     1    117.200    313.800
    6     7     8     1    117.200    313.800
   12    11    13     1    112.700    488.273
   14    13    30     1    110.700    313.800
   13    11    27     1    110.700    313.800
   11    13    14     1    112.700    488.273
   11     8    26     1    110.700    313.800
    8    11    13     1    112.700    488.273
    7     6    24     1    117.200    313.800
    8     7    25     1    114.300    292.880
    6     5     7     1     83.000    251.040
   15     1    16     1    107.800    276.144
   31    14    33     1    107.800    276.144
   23     6    24     1    114.300    292.880
    3     2    13     1    112.700    488.273
   15     1    17     1    107.800    276.144
    5     4    20     1    110.700    313.800
    4     3    12     1    112.700    488.273
    9     8    26     1    108.500    292.880
   12    11    27     1    110.700    313.800
    5     7     6     1     83.000    251.040
   28    12    29     1    107.800    276.144
    5     4    21     1    110.700    313.800
   32    14    33     1    107.800    276.144
    7     5    22     1    117.200    313.800
   12     3    19     1    110.700    313.800
    5     6     7     1     83.000    251.040
   20     4    21     1    107.800    276.144
    3    12    11     1    112.700    488.273

[ dihedrals ]
; IMPROPER DIHEDRAL ANGLES 
;  ai    aj    ak    al funct            c0            c1            c2            c3            c4            c5

[ dihedrals ]
; PROPER DIHEDRAL ANGLES
;  ai    aj    ak    al funct            c0            c1            c2            c3            c4            c5
    4    3    2    1        3       2.301  -1.464   0.837  -1.674  -0.000   0.000
    8   11   13    2        3       2.301  -1.464   0.837  -1.674  -0.000   0.000
   11   13    2    1        3       2.301  -1.464   0.837  -1.674  -0.000   0.000
    8   11   12    3        3       2.301  -1.464   0.837  -1.674  -0.000   0.000
   14   13    2    1        3       2.301  -1.464   0.837  -1.674  -0.000   0.000
   12   11   13    2        3       2.301  -1.464   0.837  -1.674  -0.000   0.000
   14   13   11   12        3       2.301  -1.464   0.837  -1.674  -0.000   0.000
   13    2    3    4        3       2.301  -1.464   0.837  -1.674  -0.000   0.000
   12    3    2    1        3       2.301  -1.464   0.837  -1.674  -0.000   0.000
   13    2    3   12        3       2.301  -1.464   0.837  -1.674  -0.000   0.000
   14   13    2    3        3       2.301  -1.464   0.837  -1.674  -0.000   0.000
   11   12    3    2        3       2.301  -1.464   0.837  -1.674  -0.000   0.000
   11   13    2    3        3       2.301  -1.464   0.837  -1.674  -0.000   0.000
   11   12    3    4        3       2.301  -1.464   0.837  -1.674  -0.000   0.000
   14   13   11    8        3       2.301  -1.464   0.837  -1.674  -0.000   0.000
   13   11   12    3        3       2.301  -1.464   0.837  -1.674  -0.000   0.000
   12    3    4    5        3       2.301  -1.464   0.837  -1.674  -0.000   0.000
   13   11    8    7        3       2.301  -1.464   0.837  -1.674  -0.000   0.000
   12   11    8    7        3       2.301  -1.464   0.837  -1.674  -0.000   0.000
   12   11    8    9        3      -2.720   0.000   2.720  -0.000  -0.000   0.000
   13   11    8    9        3      -2.720   0.000   2.720  -0.000  -0.000   0.000
   11    8    7    5        3       0.000   0.000   0.000  -0.000  -0.000   0.000
   11    8    7    6        3       0.000   0.000   0.000  -0.000  -0.000   0.000
   11    8    9   10        3       0.000   0.000   0.000  -0.000  -0.000   0.000
    8    7    5    4        3       0.000   0.000   0.000  -0.000  -0.000   0.000
    8    7    6    5        3       0.000   0.000   0.000  -0.000  -0.000   0.000
    8    7    5    6        3       0.000   0.000   0.000  -0.000  -0.000   0.000
    5    4    3    2        3       2.301  -1.464   0.837  -1.674  -0.000   0.000
    6    5    4    3        3       0.000   0.000   0.000  -0.000  -0.000   0.000
    7    5    4    3        3       0.000   0.000   0.000  -0.000  -0.000   0.000
    7    5    4    6        3       0.000   0.000   0.000  -0.000  -0.000   0.000
    9    8    7    6        3       0.000   0.000   0.000  -0.000  -0.000   0.000
    9    8    7    5        3       0.000   0.000   0.000  -0.000  -0.000   0.000
   27   11   13   14        3       0.628   1.883   0.000  -2.510  -0.000   0.000
   29   12    3    4        3       0.628   1.883   0.000  -2.510  -0.000   0.000
   19    3    2   13        3       0.628   1.883   0.000  -2.510  -0.000   0.000
   17    1    2    3        3       0.628   1.883   0.000  -2.510  -0.000   0.000
   27   11   13    2        3       0.628   1.883   0.000  -2.510  -0.000   0.000
   32   14   13    2        3       0.628   1.883   0.000  -2.510  -0.000   0.000
   29   12   11    8        3       0.628   1.883   0.000  -2.510  -0.000   0.000
   18    2   13   14        3       0.628   1.883   0.000  -2.510  -0.000   0.000
   17    1    2   13        3       0.628   1.883   0.000  -2.510  -0.000   0.000
   15    1    2   13        3       0.628   1.883   0.000  -2.510  -0.000   0.000
   26    8   11   13        3       0.628   1.883   0.000  -2.510  -0.000   0.000
   28   12    3    2        3       0.628   1.883   0.000  -2.510  -0.000   0.000
   28   12    3    4        3       0.628   1.883   0.000  -2.510  -0.000   0.000
   29   12   11   13        3       0.628   1.883   0.000  -2.510  -0.000   0.000
   20    4    3   12        3       0.628   1.883   0.000  -2.510  -0.000   0.000
   20    4    3    2        3       0.628   1.883   0.000  -2.510  -0.000   0.000
   21    4    3    2        3       0.628   1.883   0.000  -2.510  -0.000   0.000
   33   14   13    2        3       0.628   1.883   0.000  -2.510  -0.000   0.000
   30   13   11   12        3       0.628   1.883   0.000  -2.510  -0.000   0.000
   18    2   13   11        3       0.628   1.883   0.000  -2.510  -0.000   0.000
   19    3   12   11        3       0.628   1.883   0.000  -2.510  -0.000   0.000
   16    1    2   13        3       0.628   1.883   0.000  -2.510  -0.000   0.000
   16    1    2    3        3       0.628   1.883   0.000  -2.510  -0.000   0.000
   28   12   11    8        3       0.628   1.883   0.000  -2.510  -0.000   0.000
   30   13   11    8        3       0.628   1.883   0.000  -2.510  -0.000   0.000
   32   14   13   11        3       0.628   1.883   0.000  -2.510  -0.000   0.000
   30   13    2    3        3       0.628   1.883   0.000  -2.510  -0.000   0.000
   33   14   13   11        3       0.628   1.883   0.000  -2.510  -0.000   0.000
   29   12    3    2        3       0.628   1.883   0.000  -2.510  -0.000   0.000
   31   14   13    2        3       0.628   1.883   0.000  -2.510  -0.000   0.000
   21    4    3   12        3       0.628   1.883   0.000  -2.510  -0.000   0.000
   26    8   11   12        3       0.628   1.883   0.000  -2.510  -0.000   0.000
   18    2    3   12        3       0.628   1.883   0.000  -2.510  -0.000   0.000
   18    2    3    4        3       0.628   1.883   0.000  -2.510  -0.000   0.000
   28   12   11   13        3       0.628   1.883   0.000  -2.510  -0.000   0.000
   27   11   12    3        3       0.628   1.883   0.000  -2.510  -0.000   0.000
   15    1    2    3        3       0.628   1.883   0.000  -2.510  -0.000   0.000
   30   13    2    1        3       0.628   1.883   0.000  -2.510  -0.000   0.000
   31   14   13   11        3       0.628   1.883   0.000  -2.510  -0.000   0.000
   19    3    2    1        3       0.628   1.883   0.000  -2.510  -0.000   0.000
   19    3    4    5        3       0.628   1.883   0.000  -2.510  -0.000   0.000
   27   11    8    7        3       0.628   1.883   0.000  -2.510  -0.000   0.000
   27   11    8    9        3       0.766   2.297   0.000  -3.063  -0.000   0.000
   33   14   13   30        3       0.628   1.883   0.000  -2.510  -0.000   0.000
   28   12   11   27        3       0.628   1.883   0.000  -2.510  -0.000   0.000
   30   13    2   18        3       0.628   1.883   0.000  -2.510  -0.000   0.000
   29   12    3   19        3       0.628   1.883   0.000  -2.510  -0.000   0.000
   27   11    8   26        3       0.628   1.883   0.000  -2.510  -0.000   0.000
   20    4    3   19        3       0.628   1.883   0.000  -2.510  -0.000   0.000
   19    3    2   18        3       0.628   1.883   0.000  -2.510  -0.000   0.000
   21    4    3   19        3       0.628   1.883   0.000  -2.510  -0.000   0.000
   31   14   13   30        3       0.628   1.883   0.000  -2.510  -0.000   0.000
   18    2    1   17        3       0.628   1.883   0.000  -2.510  -0.000   0.000
   29   12   11   27        3       0.628   1.883   0.000  -2.510  -0.000   0.000
   32   14   13   30        3       0.628   1.883   0.000  -2.510  -0.000   0.000
   28   12    3   19        3       0.628   1.883   0.000  -2.510  -0.000   0.000
   18    2    1   16        3       0.628   1.883   0.000  -2.510  -0.000   0.000
   18    2    1   15        3       0.628   1.883   0.000  -2.510  -0.000   0.000
   30   13   11   27        3       0.628   1.883   0.000  -2.510  -0.000   0.000
   20    4    5    7        3       0.628   1.883   0.000  -2.510  -0.000   0.000
   21    4    5    6        3       0.628   1.883   0.000  -2.510  -0.000   0.000
   20    4    5    6        3       0.628   1.883   0.000  -2.510  -0.000   0.000
   26    8    7    6        3       0.628   1.883   0.000  -2.510  -0.000   0.000
   21    4    5    7        3       0.628   1.883   0.000  -2.510  -0.000   0.000
   26    8    7    5        3       0.628   1.883   0.000  -2.510  -0.000   0.000
   26    8    7   25        3       0.628   1.883   0.000  -2.510  -0.000   0.000
   26    8    9   10        3       0.000   0.000   0.000  -0.000  -0.000   0.000
   22    5    4    3        3       0.628   1.883   0.000  -2.510  -0.000   0.000
   25    7    8   11        3       0.628   1.883   0.000  -2.510  -0.000   0.000
   25    7    8    9        3       0.766   2.297   0.000  -3.063  -0.000   0.000
   22    5    4   21        3       0.628   1.883   0.000  -2.510  -0.000   0.000
   22    5    4   20        3       0.628   1.883   0.000  -2.510  -0.000   0.000
   25    7    5    4        3       0.000   0.000   0.000  -0.000  -0.000   0.000
   23    6    5    4        3       0.000   0.000   0.000  -0.000  -0.000   0.000
   23    6    7    8        3       0.000   0.000   0.000  -0.000  -0.000   0.000
   24    6    5    4        3       0.000   0.000   0.000  -0.000  -0.000   0.000
   22    5    7    8        3       0.000   0.000   0.000  -0.000  -0.000   0.000
   24    6    7    8        3       0.000   0.000   0.000  -0.000  -0.000   0.000
   22    5    6    7        3       0.000   0.000   0.000  -0.000  -0.000   0.000
   23    6    7    5        3       0.000   0.000   0.000  -0.000  -0.000   0.000
   24    6    5    7        3       0.000   0.000   0.000  -0.000  -0.000   0.000
   23    6    5    7        3       0.000   0.000   0.000  -0.000  -0.000   0.000
   24    6    7    5        3       0.000   0.000   0.000  -0.000  -0.000   0.000
   25    7    6    5        3       0.000   0.000   0.000  -0.000  -0.000   0.000
   25    7    5    6        3       0.000   0.000   0.000  -0.000  -0.000   0.000
   22    5    7    6        3       0.000   0.000   0.000  -0.000  -0.000   0.000
   25    7    6   24        3       0.000   0.000   0.000  -0.000  -0.000   0.000
   25    7    5   22        3       0.000   0.000   0.000  -0.000  -0.000   0.000
   23    6    5   22        3       0.000   0.000   0.000  -0.000  -0.000   0.000
   25    7    6   23        3       0.000   0.000   0.000  -0.000  -0.000   0.000
   24    6    5   22        3       0.000   0.000   0.000  -0.000  -0.000   0.000
   10    9    8    7        3       0.000   0.000   0.000  -0.000  -0.000   0.000

[ pairs ]
     1     4    1
     2     5    1
     3     6    1
     3     7    1
     2     8    1
     3     8    1
     4     8    1
     1    11    1
     1    12    1
     5     9    1
     6     9    1
     4    11    1
     1    14    1
     5    11    1
     7    10    1
     6    11    1
     5    12    1
     4    13    1
     3    14    1
     3    15    1
     7    12    1
     3    16    1
     7    13    1
     3    17    1
     1    19    1
    10    11    1
     9    12    1
     9    13    1
     8    14    1
     4    18    1
     2    20    1
     2    21    1
     5    19    1
     3    22    1
    12    14    1
     6    20    1
     7    20    1
     6    21    1
     4    23    1
    13    15    1
     7    21    1
     4    24    1
    13    16    1
    11    18    1
     4    25    1
     2    27    1
    13    17    1
    12    18    1
    11    19    1
     8    22    1
     3    27    1
     2    28    1
     8    23    1
     5    26    1
     2    29    1
     1    30    1
    14    18    1
    13    19    1
    12    20    1
     8    24    1
     6    26    1
     4    28    1
    15    18    1
    12    21    1
     4    29    1
     3    30    1
     2    31    1
    16    18    1
     9    25    1
     7    27    1
     2    32    1
    17    18    1
     2    33    1
    11    25    1
    10    26    1
     9    27    1
     8    28    1
    18    19    1
     8    29    1
    12    26    1
     8    30    1
    19    20    1
    13    26    1
    19    21    1
    14    27    1
    13    28    1
    20    22    1
    13    29    1
    12    30    1
    11    31    1
    21    22    1
    11    32    1
    11    33    1
    22    23    1
    22    24    1
    22    25    1
    19    28    1
    23    25    1
    19    29    1
    18    30    1
    24    25    1
    25    26    1
    26    27    1
    27    28    1
    27    29    1
    27    30    1
    30    31    1
    30    32    1
    30    33    1

