LIGPARGEN GENERATED GRO FILE
   33
    1UNK    C00    1   0.100   0.100   0.000
    1UNK    C01    2  -0.052   0.100   0.000
    1UNK    C02    3  -0.107   0.100   0.143
    1UNK    C03    4  -0.260   0.100   0.145
    1UNK    C04    5  -0.311   0.100   0.289
    1UNK    C05    6  -0.463   0.100   0.297
    1UNK    F06    7  -0.509  -0.013   0.236
    1UNK    C07    8  -0.509   0.107   0.442
    1UNK    O08    9  -0.441   0.064   0.536
    1UNK    C09   10  -0.645   0.171   0.470
    1UNK    N0A   11  -0.754   0.102   0.398
    1UNK    C0B   12  -0.768  -0.037   0.444
    1UNK    C0C   13  -0.880   0.174   0.419
    1UNK    H0D   14   0.138   0.100  -0.103
    1UNK    H0E   15   0.139   0.011   0.051
    1UNK    H0F   16   0.139   0.189   0.051
    1UNK    H0G   17  -0.088   0.012  -0.054
    1UNK    H0H   18  -0.088   0.188  -0.054
    1UNK    H0I   19  -0.069   0.188   0.196
    1UNK    H0J   20  -0.069   0.012   0.196
    1UNK    H0K   21  -0.298   0.012   0.092
    1UNK    H0M   22  -0.298   0.189   0.092
    1UNK    H0N   23  -0.271   0.187   0.343
    1UNK    H0O   24  -0.272   0.011   0.340
    1UNK    H0P   25  -0.503   0.186   0.243
    1UNK    H0Q   26  -0.637   0.275   0.437
    1UNK    H0R   27  -0.662   0.171   0.578
    1UNK    H0S   28  -0.678  -0.095   0.423
    1UNK    H0T   29  -0.849  -0.086   0.390
    1UNK    H0U   30  -0.789  -0.043   0.551
    1UNK    H0V   31  -0.871   0.277   0.383
    1UNK    H0W   32  -0.908   0.177   0.525
    1UNK    H0X   33  -0.961   0.127   0.362
   1.00000   1.00000   1.00000

