LIGPARGEN GENERATED GRO FILE
   32
    1UNK    C00    1   0.100   0.100   0.000
    1UNK    C01    2  -0.052   0.100   0.000
    1UNK    C02    3  -0.108   0.100   0.143
    1UNK    C03    4  -0.262   0.106   0.149
    1UNK    C04    5  -0.327  -0.015   0.081
    1UNK    C05    6  -0.313   0.112   0.295
    1UNK    C06    7  -0.268   0.232   0.380
    1UNK    C07    8  -0.313   0.365   0.319
    1UNK    S08    9  -0.331   0.219   0.550
    1UNK    C09   10  -0.254   0.073   0.615
    1UNK    O0A   11  -0.279   0.331   0.625
    1UNK    O0B   12  -0.474   0.195   0.543
    1UNK    H0C   13   0.138   0.100  -0.103
    1UNK    H0D   14   0.139   0.011   0.051
    1UNK    H0E   15   0.139   0.189   0.051
    1UNK    H0F   16  -0.086   0.012  -0.055
    1UNK    H0G   17  -0.088   0.188  -0.054
    1UNK    H0H   18  -0.066   0.187   0.195
    1UNK    H0I   19  -0.073   0.011   0.196
    1UNK    H0J   20  -0.296   0.196   0.096
    1UNK    H0K   21  -0.306  -0.107   0.136
    1UNK    H0M   22  -0.293  -0.028  -0.022
    1UNK    H0N   23  -0.436  -0.002   0.077
    1UNK    H0O   24  -0.282   0.019   0.345
    1UNK    H0P   25  -0.423   0.110   0.294
    1UNK    H0Q   26  -0.159   0.234   0.391
    1UNK    H0R   27  -0.419   0.363   0.293
    1UNK    H0S   28  -0.256   0.388   0.229
    1UNK    H0T   29  -0.299   0.448   0.389
    1UNK    H0U   30  -0.146   0.086   0.612
    1UNK    H0V   31  -0.285  -0.014   0.558
    1UNK    H0W   32  -0.287   0.062   0.719
   1.00000   1.00000   1.00000

