LIGPARGEN GENERATED GRO FILE
   39
    1UNK    C00    1   0.100   0.100   0.000
    1UNK    C01    2  -0.052   0.100   0.000
    1UNK    C02    3  -0.107   0.100   0.142
    1UNK    C03    4  -0.260   0.100   0.142
    1UNK    C04    5  -0.314   0.100   0.285
    1UNK    C05    6  -0.466   0.099   0.287
    1UNK    C06    7  -0.518   0.099   0.430
    1UNK    C07    8  -0.672   0.099   0.433
    1UNK    C08    9  -0.728   0.099   0.577
    1UNK    C09   10  -0.680   0.225   0.648
    1UNK    N0A   11  -0.640   0.328   0.707
    1UNK    C0B   12  -0.884   0.094   0.580
    1UNK    C0C   13  -0.939  -0.032   0.510
    1UNK    C0D   14  -0.938   0.097   0.723
    1UNK    H0E   15   0.138   0.100  -0.103
    1UNK    H0F   16   0.139   0.011   0.051
    1UNK    H0G   17   0.139   0.189   0.051
    1UNK    H0H   18  -0.088   0.012  -0.054
    1UNK    H0I   19  -0.088   0.188  -0.054
    1UNK    H0J   20  -0.070   0.188   0.196
    1UNK    H0K   21  -0.070   0.012   0.196
    1UNK    H0M   22  -0.297   0.012   0.089
    1UNK    H0N   23  -0.297   0.188   0.089
    1UNK    H0O   24  -0.277   0.188   0.339
    1UNK    H0P   25  -0.276   0.011   0.339
    1UNK    H0Q   26  -0.504   0.011   0.234
    1UNK    H0R   27  -0.504   0.188   0.234
    1UNK    H0S   28  -0.479   0.188   0.482
    1UNK    H0T   29  -0.481   0.011   0.483
    1UNK    H0U   30  -0.706   0.010   0.380
    1UNK    H0V   31  -0.709   0.186   0.378
    1UNK    H0W   32  -0.688   0.012   0.631
    1UNK    H0X   33  -0.923   0.181   0.527
    1UNK    H0Y   34  -0.896  -0.123   0.553
    1UNK    H0Z   35  -0.917  -0.031   0.403
    1UNK    H10   36  -1.047  -0.037   0.521
    1UNK    H11   37  -0.899   0.013   0.782
    1UNK    H12   38  -1.047   0.090   0.723
    1UNK    H13   39  -0.912   0.190   0.774
   1.00000   1.00000   1.00000

