LIGPARGEN GENERATED GRO FILE
   18
    1UNK    C00    1   0.100   0.100   0.000
    1UNK    C01    2  -0.052   0.100   0.000
    1UNK    F02    3  -0.092   0.100   0.130
    1UNK    C03    4  -0.109   0.224  -0.069
    1UNK    C04    5  -0.262   0.223  -0.076
    1UNK    C05    6  -0.312   0.342  -0.156
    1UNK    F06    7  -0.300   0.110  -0.143
    1UNK    C07    8  -0.327   0.224   0.057
    1UNK    N08    9  -0.380   0.229   0.160
    1UNK    H09   10   0.137   0.013   0.056
    1UNK    H0A   11   0.139   0.189   0.051
    1UNK    H0B   12   0.140   0.097  -0.102
    1UNK    H0C   13  -0.089   0.008  -0.047
    1UNK    H0D   14  -0.069   0.228  -0.171
    1UNK    H0E   15  -0.075   0.314  -0.016
    1UNK    H0F   16  -0.276   0.338  -0.260
    1UNK    H0G   17  -0.281   0.437  -0.112
    1UNK    H0H   18  -0.422   0.343  -0.161
   1.00000   1.00000   1.00000

