
;
; GENERATED BY LigParGen Server
; Jorgensen Lab @ Yale University 
;
[ atomtypes ]
  opls_810  H810     1.0080     0.000    A    2.50000E-01   1.25520E-01
  opls_802  F802    18.9984     0.000    A    2.90000E-01   2.51040E-01
  opls_800  C800    12.0110     0.000    A    3.50000E-01   2.76144E-01
  opls_801  C801    12.0110     0.000    A    3.50000E-01   2.76144E-01
  opls_814  H814     1.0080     0.000    A    2.50000E-01   1.25520E-01
  opls_817  H817     1.0080     0.000    A    2.50000E-01   1.25520E-01
  opls_803  C803    12.0110     0.000    A    3.50000E-01   2.76144E-01
  opls_812  H812     1.0080     0.000    A    2.50000E-01   1.25520E-01
  opls_807  C807    12.0110     0.000    A    3.30000E-01   2.76144E-01
  opls_809  H809     1.0080     0.000    A    2.50000E-01   1.25520E-01
  opls_806  F806    18.9984     0.000    A    2.90000E-01   2.51040E-01
  opls_804  C804    12.0110     0.000    A    3.50000E-01   2.76144E-01
  opls_816  H816     1.0080     0.000    A    2.50000E-01   1.25520E-01
  opls_808  N808    14.0070     0.000    A    3.20000E-01   7.11280E-01
  opls_813  H813     1.0080     0.000    A    2.50000E-01   1.25520E-01
  opls_811  H811     1.0080     0.000    A    2.50000E-01   1.25520E-01
  opls_805  C805    12.0110     0.000    A    3.50000E-01   2.76144E-01
  opls_815  H815     1.0080     0.000    A    2.50000E-01   1.25520E-01
[ moleculetype ]
; Name               nrexcl
UNK                   3
[ atoms ]
;   nr       type  resnr residue  atom   cgnr     charge       mass  
     1   opls_800      1    UNK   C00      1    -0.2839    12.0110 
     2   opls_801      1    UNK   C01      1     0.0657    12.0110 
     3   opls_802      1    UNK   F02      1    -0.1728    18.9984 
     4   opls_803      1    UNK   C03      1    -0.2453    12.0110 
     5   opls_804      1    UNK   C04      1     0.2553    12.0110 
     6   opls_805      1    UNK   C05      1    -0.2774    12.0110 
     7   opls_806      1    UNK   F06      1    -0.1496    18.9984 
     8   opls_807      1    UNK   C07      1     0.1265    12.0110 
     9   opls_808      1    UNK   N08      1    -0.3342    14.0070 
    10   opls_809      1    UNK   H09      1     0.1017     1.0080 
    11   opls_810      1    UNK   H0A      1     0.1017     1.0080 
    12   opls_811      1    UNK   H0B      1     0.1017     1.0080 
    13   opls_812      1    UNK   H0C      1     0.1177     1.0080 
    14   opls_813      1    UNK   H0D      1     0.1283     1.0080 
    15   opls_814      1    UNK   H0E      1     0.1283     1.0080 
    16   opls_815      1    UNK   H0F      1     0.1121     1.0080 
    17   opls_816      1    UNK   H0G      1     0.1121     1.0080 
    18   opls_817      1    UNK   H0H      1     0.1121     1.0080 
[ bonds ]
    2     1     1      0.1529 224262.400
    3     2     1      0.1360 307105.600
    4     2     1      0.1529 224262.400
    5     4     1      0.1529 224262.400
    6     5     1      0.1529 224262.400
    7     5     1      0.1360 307105.600
    8     5     1      0.1470 326352.000
    9     8     1      0.1157 543920.000
   10     1     1      0.1090 284512.000
   11     1     1      0.1090 284512.000
   12     1     1      0.1090 284512.000
   13     2     1      0.1090 284512.000
   14     4     1      0.1090 284512.000
   15     4     1      0.1090 284512.000
   16     6     1      0.1090 284512.000
   17     6     1      0.1090 284512.000
   18     6     1      0.1090 284512.000

[ angles ]
;  ai    aj    ak funct            c0            c1            c2            c3 
    1     2     3     1    109.500    418.400
    1     2     4     1    112.700    488.273
    2     4     5     1    112.700    488.273
    4     5     6     1    112.700    488.273
    4     5     7     1    109.500    418.400
    4     5     8     1    112.700    488.273
    5     8     9     1    180.000   1255.200
    2     1    10     1    110.700    313.800
    2     1    11     1    110.700    313.800
    2     1    12     1    110.700    313.800
    1     2    13     1    110.700    313.800
    2     4    14     1    110.700    313.800
    2     4    15     1    110.700    313.800
    5     6    16     1    110.700    313.800
    5     6    17     1    110.700    313.800
    5     6    18     1    110.700    313.800
    5     4    14     1    110.700    313.800
   17     6    18     1    107.800    276.144
    4     2    13     1    110.700    313.800
   14     4    15     1    107.800    276.144
   16     6    17     1    107.800    276.144
   11     1    12     1    107.800    276.144
    6     5     7     1    109.500    418.400
    3     2     4     1    109.500    418.400
    5     4    15     1    110.700    313.800
    6     5     8     1    112.700    488.273
   10     1    11     1    107.800    276.144
    3     2    13     1    107.000    334.720
    7     5     8     1    110.580    432.207
   16     6    18     1    107.800    276.144
   10     1    12     1    107.800    276.144

[ dihedrals ]
; IMPROPER DIHEDRAL ANGLES 
;  ai    aj    ak    al funct            c0            c1            c2            c3            c4            c5

[ dihedrals ]
; PROPER DIHEDRAL ANGLES
;  ai    aj    ak    al funct            c0            c1            c2            c3            c4            c5
    5    4    2    1        3       2.301  -1.464   0.837  -1.674  -0.000   0.000
    6    5    4    2        3       2.301  -1.464   0.837  -1.674  -0.000   0.000
    5    4    2    3        3      -0.209   1.883   1.674  -3.347  -0.000   0.000
    8    5    4    2        3      -2.720   0.000   2.720  -0.000  -0.000   0.000
    7    5    4    2        3      -0.209   1.883   1.674  -3.347  -0.000   0.000
   15    4    5    6        3       0.628   1.883   0.000  -2.510  -0.000   0.000
   14    4    2    1        3       0.628   1.883   0.000  -2.510  -0.000   0.000
   15    4    2    1        3       0.628   1.883   0.000  -2.510  -0.000   0.000
   12    1    2    4        3       0.628   1.883   0.000  -2.510  -0.000   0.000
   17    6    5    4        3       0.628   1.883   0.000  -2.510  -0.000   0.000
   11    1    2    4        3       0.628   1.883   0.000  -2.510  -0.000   0.000
   10    1    2    4        3       0.628   1.883   0.000  -2.510  -0.000   0.000
   18    6    5    4        3       0.628   1.883   0.000  -2.510  -0.000   0.000
   13    2    4    5        3       0.628   1.883   0.000  -2.510  -0.000   0.000
   16    6    5    4        3       0.628   1.883   0.000  -2.510  -0.000   0.000
   14    4    5    6        3       0.628   1.883   0.000  -2.510  -0.000   0.000
   16    6    5    8        3       0.766   2.297   0.000  -3.063  -0.000   0.000
   15    4    5    8        3       0.766   2.297   0.000  -3.063  -0.000   0.000
   18    6    5    8        3       0.766   2.297   0.000  -3.063  -0.000   0.000
   14    4    5    8        3       0.766   2.297   0.000  -3.063  -0.000   0.000
   17    6    5    8        3       0.766   2.297   0.000  -3.063  -0.000   0.000
   10    1    2    3        3       0.837   2.510   0.000  -3.347  -0.000   0.000
   15    4    5    7        3       0.837   2.510   0.000  -3.347  -0.000   0.000
   17    6    5    7        3       0.837   2.510   0.000  -3.347  -0.000   0.000
   14    4    5    7        3       0.837   2.510   0.000  -3.347  -0.000   0.000
   16    6    5    7        3       0.837   2.510   0.000  -3.347  -0.000   0.000
   18    6    5    7        3       0.837   2.510   0.000  -3.347  -0.000   0.000
   12    1    2    3        3       0.837   2.510   0.000  -3.347  -0.000   0.000
   15    4    2    3        3       0.837   2.510   0.000  -3.347  -0.000   0.000
   11    1    2    3        3       0.837   2.510   0.000  -3.347  -0.000   0.000
   14    4    2    3        3       0.837   2.510   0.000  -3.347  -0.000   0.000
   13    2    1   12        3       0.628   1.883   0.000  -2.510  -0.000   0.000
   13    2    1   11        3       0.628   1.883   0.000  -2.510  -0.000   0.000
   13    2    1   10        3       0.628   1.883   0.000  -2.510  -0.000   0.000
   14    4    2   13        3       0.628   1.883   0.000  -2.510  -0.000   0.000
   15    4    2   13        3       0.628   1.883   0.000  -2.510  -0.000   0.000
    9    8    5    6        3       0.000   0.000   0.000  -0.000  -0.000   0.000
    9    8    5    4        3       0.000   0.000   0.000  -0.000  -0.000   0.000
    9    8    5    7        3       0.000   0.000   0.000  -0.000  -0.000   0.000

[ pairs ]
     1     5    1
     3     5    1
     2     6    1
     2     7    1
     2     8    1
     4     9    1
     3    10    1
     4    10    1
     3    11    1
     6     9    1
     4    11    1
     3    12    1
     1    14    1
     7     9    1
     4    12    1
     1    15    1
     3    14    1
     5    13    1
     3    15    1
     6    14    1
     4    16    1
     7    14    1
     6    15    1
     4    17    1
     8    14    1
     7    15    1
     4    18    1
    10    13    1
     8    15    1
     7    16    1
    11    13    1
     8    16    1
     7    17    1
    12    13    1
     8    17    1
     7    18    1
     8    18    1
    13    14    1
    13    15    1

