
;
; GENERATED BY LigParGen Server
; Jorgensen Lab @ Yale University 
;
[ atomtypes ]
  opls_818  H818     1.0080     0.000    A    2.50000E-01   1.25520E-01
  opls_814  C814    12.0110     0.000    A    3.50000E-01   2.76144E-01
  opls_824  H824     1.0080     0.000    A    2.50000E-01   1.25520E-01
  opls_815  C815    12.0110     0.000    A    3.50000E-01   2.76144E-01
  opls_813  N813    14.0070     0.000    A    3.30000E-01   7.11280E-01
  opls_804  O804    15.9990     0.000    A    2.96000E-01   8.78640E-01
  opls_836  H836     1.0080     0.000    A    2.50000E-01   1.25520E-01
  opls_834  H834     1.0080     0.000    A    2.50000E-01   1.25520E-01
  opls_828  H828     1.0080     0.000    A    2.50000E-01   1.25520E-01
  opls_812  C812    12.0110     0.000    A    3.50000E-01   2.76144E-01
  opls_806  C806    12.0110     0.000    A    3.50000E-01   2.76144E-01
  opls_827  H827     1.0080     0.000    A    2.50000E-01   1.25520E-01
  opls_801  C801    12.0110     0.000    A    3.50000E-01   2.76144E-01
  opls_838  H838     1.0080     0.000    A    2.50000E-01   1.25520E-01
  opls_822  H822     1.0080     0.000    A    2.50000E-01   1.25520E-01
  opls_807  C807    12.0110     0.000    A    3.50000E-01   2.76144E-01
  opls_825  H825     1.0080     0.000    A    2.50000E-01   1.25520E-01
  opls_830  H830     1.0080     0.000    A    2.50000E-01   1.25520E-01
  opls_821  H821     1.0080     0.000    A    2.50000E-01   1.25520E-01
  opls_820  H820     1.0080     0.000    A    2.50000E-01   1.25520E-01
  opls_837  H837     1.0080     0.000    A    2.50000E-01   1.25520E-01
  opls_829  H829     1.0080     0.000    A    2.50000E-01   1.25520E-01
  opls_831  H831     1.0080     0.000    A    2.50000E-01   1.25520E-01
  opls_832  H832     1.0080     0.000    A    2.50000E-01   1.25520E-01
  opls_816  H816     1.0080     0.000    A    2.50000E-01   1.25520E-01
  opls_800  C800    12.0110     0.000    A    3.50000E-01   2.76144E-01
  opls_809  N809    14.0070     0.000    A    3.30000E-01   7.11280E-01
  opls_811  C811    12.0110     0.000    A    3.50000E-01   2.76144E-01
  opls_823  H823     1.0080     0.000    A    2.50000E-01   1.25520E-01
  opls_805  O805    15.9990     0.000    A    2.90000E-01   5.85760E-01
  opls_826  H826     1.0080     0.000    A    2.50000E-01   1.25520E-01
  opls_835  H835     1.0080     0.000    A    2.50000E-01   1.25520E-01
  opls_819  H819     1.0080     0.000    A    2.50000E-01   1.25520E-01
  opls_810  C810    12.0110     0.000    A    3.50000E-01   2.76144E-01
  opls_833  H833     1.0080     0.000    A    2.50000E-01   1.25520E-01
  opls_802  O802    15.9990     0.000    A    2.90000E-01   5.85760E-01
  opls_839  H839     1.0080     0.000    A    2.50000E-01   1.25520E-01
  opls_803  C803    12.0110     0.000    A    3.55000E-01   2.92880E-01
  opls_808  C808    12.0110     0.000    A    3.50000E-01   2.76144E-01
  opls_817  H817     1.0080     0.000    A    2.50000E-01   1.25520E-01
[ moleculetype ]
; Name               nrexcl
UNK                   3
[ atoms ]
;   nr       type  resnr residue  atom   cgnr     charge       mass  
     1   opls_800      1    UNK   C00      1    -0.2799    12.0110 
     2   opls_801      1    UNK   C01      1     0.0141    12.0110 
     3   opls_802      1    UNK   O02      1    -0.3219    15.9990 
     4   opls_803      1    UNK   C03      1     0.5744    12.0110 
     5   opls_804      1    UNK   O04      1    -0.5025    15.9990 
     6   opls_805      1    UNK   O05      1     -0.305    15.9990 
     7   opls_806      1    UNK   C06      1     0.0827    12.0110 
     8   opls_807      1    UNK   C07      1    -0.2765    12.0110 
     9   opls_808      1    UNK   C08      1     0.0026    12.0110 
    10   opls_809      1    UNK   N09      1    -0.5571    14.0070 
    11   opls_810      1    UNK   C0A      1    -0.0576    12.0110 
    12   opls_811      1    UNK   C0B      1     0.0078    12.0110 
    13   opls_812      1    UNK   C0C      1    -0.0021    12.0110 
    14   opls_813      1    UNK   N0D      1    -0.5547    14.0070 
    15   opls_814      1    UNK   C0E      1    -0.0622    12.0110 
    16   opls_815      1    UNK   C0F      1    -0.0586    12.0110 
    17   opls_816      1    UNK   H0G      1     0.0991     1.0080 
    18   opls_817      1    UNK   H0H      1     0.0991     1.0080 
    19   opls_818      1    UNK   H0I      1     0.0991     1.0080 
    20   opls_819      1    UNK   H0J      1     0.1249     1.0080 
    21   opls_820      1    UNK   H0K      1     0.1249     1.0080 
    22   opls_821      1    UNK   H0M      1     0.1268     1.0080 
    23   opls_822      1    UNK   H0N      1     0.1012     1.0080 
    24   opls_823      1    UNK   H0O      1     0.1012     1.0080 
    25   opls_824      1    UNK   H0P      1     0.1012     1.0080 
    26   opls_825      1    UNK   H0Q      1     0.0998     1.0080 
    27   opls_826      1    UNK   H0R      1     0.0998     1.0080 
    28   opls_827      1    UNK   H0S      1     0.0854     1.0080 
    29   opls_828      1    UNK   H0T      1     0.0854     1.0080 
    30   opls_829      1    UNK   H0U      1     0.0854     1.0080 
    31   opls_830      1    UNK   H0V      1     0.0917     1.0080 
    32   opls_831      1    UNK   H0W      1     0.0917     1.0080 
    33   opls_832      1    UNK   H0X      2      0.092     1.0080 
    34   opls_833      1    UNK   H0Y      2      0.092     1.0080 
    35   opls_834      1    UNK   H0Z      2     0.0814     1.0080 
    36   opls_835      1    UNK   H10      2     0.0814     1.0080 
    37   opls_836      1    UNK   H11      2     0.0814     1.0080 
    38   opls_837      1    UNK   H12      2      0.084     1.0080 
    39   opls_838      1    UNK   H13      2      0.084     1.0080 
    40   opls_839      1    UNK   H14      2      0.084     1.0080 
[ bonds ]
    2     1     1      0.1529 224262.400
    3     2     1      0.1410 267776.000
    4     3     1      0.1327 179075.200
    5     4     1      0.1229 476976.000
    6     4     1      0.1327 179075.200
    7     6     1      0.1410 267776.000
    8     7     1      0.1529 224262.400
    9     7     1      0.1529 224262.400
   10     9     1      0.1448 319657.600
   11    10     1      0.1448 319657.600
   12    10     1      0.1448 319657.600
   13    12     1      0.1529 224262.400
   14    13     1      0.1448 319657.600
   15    14     1      0.1448 319657.600
   16    14     1      0.1448 319657.600
   17     1     1      0.1090 284512.000
   18     1     1      0.1090 284512.000
   19     1     1      0.1090 284512.000
   20     2     1      0.1090 284512.000
   21     2     1      0.1090 284512.000
   22     7     1      0.1090 284512.000
   23     8     1      0.1090 284512.000
   24     8     1      0.1090 284512.000
   25     8     1      0.1090 284512.000
   26     9     1      0.1090 284512.000
   27     9     1      0.1090 284512.000
   28    11     1      0.1090 284512.000
   29    11     1      0.1090 284512.000
   30    11     1      0.1090 284512.000
   31    12     1      0.1090 284512.000
   32    12     1      0.1090 284512.000
   33    13     1      0.1090 284512.000
   34    13     1      0.1090 284512.000
   35    15     1      0.1090 284512.000
   36    15     1      0.1090 284512.000
   37    15     1      0.1090 284512.000
   38    16     1      0.1090 284512.000
   39    16     1      0.1090 284512.000
   40    16     1      0.1090 284512.000

[ angles ]
;  ai    aj    ak funct            c0            c1            c2            c3 
    1     2     3     1    109.500    418.400
    2     3     4     1    116.900    694.544
    3     4     5     1    123.400    694.544
    3     4     6     1    118.180    584.923
    4     6     7     1    116.900    694.544
    6     7     8     1    109.500    418.400
    6     7     9     1    109.500    418.400
    7     9    10     1    109.470    470.282
    9    10    11     1    107.200    433.462
    9    10    12     1    107.200    433.462
   10    12    13     1    109.470    470.282
   12    13    14     1    109.470    470.282
   13    14    15     1    107.200    433.462
   13    14    16     1    107.200    433.462
    2     1    17     1    110.700    313.800
    2     1    18     1    110.700    313.800
    2     1    19     1    110.700    313.800
    1     2    20     1    110.700    313.800
    1     2    21     1    110.700    313.800
    6     7    22     1    109.500    292.880
    7     8    23     1    110.700    313.800
    7     8    24     1    110.700    313.800
    7     8    25     1    110.700    313.800
    7     9    26     1    110.700    313.800
    7     9    27     1    110.700    313.800
   10    11    28     1    109.500    292.880
   10    11    29     1    109.500    292.880
   10    11    30     1    109.500    292.880
   10    12    31     1    109.500    292.880
   10    12    32     1    109.500    292.880
   12    13    33     1    110.700    313.800
   12    13    34     1    110.700    313.800
   14    15    35     1    109.500    292.880
   14    15    36     1    109.500    292.880
   14    15    37     1    109.500    292.880
   14    16    38     1    109.500    292.880
   14    16    39     1    109.500    292.880
   14    16    40     1    109.500    292.880
   33    13    34     1    107.800    276.144
    5     4     6     1    123.400    694.544
   35    15    37     1    107.800    276.144
    3     2    20     1    109.500    292.880
   23     8    24     1    107.800    276.144
   24     8    25     1    107.800    276.144
   14    13    33     1    109.500    292.880
   31    12    32     1    107.800    276.144
    3     2    21     1    109.500    292.880
    8     7    22     1    110.700    313.800
   39    16    40     1    107.800    276.144
   13    12    31     1    110.700    313.800
   15    14    16     1    107.200    433.462
   10     9    26     1    109.500    292.880
    8     7     9     1    112.700    488.273
   28    11    30     1    107.800    276.144
   14    13    34     1    109.500    292.880
   18     1    19     1    107.800    276.144
   35    15    36     1    107.800    276.144
   23     8    25     1    107.800    276.144
   17     1    19     1    107.800    276.144
    9     7    22     1    110.700    313.800
   20     2    21     1    107.800    276.144
   26     9    27     1    107.800    276.144
   17     1    18     1    107.800    276.144
   13    12    32     1    110.700    313.800
   36    15    37     1    107.800    276.144
   28    11    29     1    107.800    276.144
   11    10    12     1    107.200    433.462
   29    11    30     1    107.800    276.144
   10     9    27     1    109.500    292.880
   38    16    40     1    107.800    276.144
   38    16    39     1    107.800    276.144

[ dihedrals ]
; IMPROPER DIHEDRAL ANGLES 
;  ai    aj    ak    al funct            c0            c1            c2            c3            c4            c5
     6     4     3     5    4        180.000     43.932     2  

[ dihedrals ]
; PROPER DIHEDRAL ANGLES
;  ai    aj    ak    al funct            c0            c1            c2            c3            c4            c5
    4    3    2    1        3      -2.197   5.201   0.527  -3.531  -0.000   0.000
   13   12   10   11        3       1.789   3.492   0.536  -5.816  -0.000   0.000
   13   12   10    9        3       1.789   3.492   0.536  -5.816  -0.000   0.000
    9    7    6    4        3      -2.197   5.201   0.527  -3.531  -0.000   0.000
    8    7    6    4        3      -2.197   5.201   0.527  -3.531  -0.000   0.000
   12   10    9    7        3       1.789   3.492   0.536  -5.816  -0.000   0.000
   16   14   13   12        3       1.789   3.492   0.536  -5.816  -0.000   0.000
   11   10    9    7        3       1.789   3.492   0.536  -5.816  -0.000   0.000
   15   14   13   12        3       1.789   3.492   0.536  -5.816  -0.000   0.000
    7    6    4    5        3      21.439   0.000  -21.439  -0.000  -0.000   0.000
    7    6    4    3        3      31.206  -9.768  -21.439  -0.000  -0.000   0.000
   24    8    7    9        3       0.628   1.883   0.000  -2.510  -0.000   0.000
   26    9    7    8        3       0.628   1.883   0.000  -2.510  -0.000   0.000
   25    8    7    9        3       0.628   1.883   0.000  -2.510  -0.000   0.000
   23    8    7    9        3       0.628   1.883   0.000  -2.510  -0.000   0.000
   27    9    7    8        3       0.628   1.883   0.000  -2.510  -0.000   0.000
   20    2    1   17        3       0.628   1.883   0.000  -2.510  -0.000   0.000
   26    9    7   22        3       0.628   1.883   0.000  -2.510  -0.000   0.000
   20    2    1   19        3       0.628   1.883   0.000  -2.510  -0.000   0.000
   25    8    7   22        3       0.628   1.883   0.000  -2.510  -0.000   0.000
   21    2    1   17        3       0.628   1.883   0.000  -2.510  -0.000   0.000
   27    9    7   22        3       0.628   1.883   0.000  -2.510  -0.000   0.000
   21    2    1   19        3       0.628   1.883   0.000  -2.510  -0.000   0.000
   24    8    7   22        3       0.628   1.883   0.000  -2.510  -0.000   0.000
   34   13   12   31        3       0.628   1.883   0.000  -2.510  -0.000   0.000
   34   13   12   32        3       0.628   1.883   0.000  -2.510  -0.000   0.000
   23    8    7   22        3       0.628   1.883   0.000  -2.510  -0.000   0.000
   20    2    1   18        3       0.628   1.883   0.000  -2.510  -0.000   0.000
   21    2    1   18        3       0.628   1.883   0.000  -2.510  -0.000   0.000
   33   13   12   31        3       0.628   1.883   0.000  -2.510  -0.000   0.000
   33   13   12   32        3       0.628   1.883   0.000  -2.510  -0.000   0.000
   32   12   13   14        3      -4.096   5.088   2.966  -3.958  -0.000   0.000
   33   13   12   10        3      -4.096   5.088   2.966  -3.958  -0.000   0.000
   22    7    9   10        3      -4.096   5.088   2.966  -3.958  -0.000   0.000
   31   12   13   14        3      -4.096   5.088   2.966  -3.958  -0.000   0.000
   34   13   12   10        3      -4.096   5.088   2.966  -3.958  -0.000   0.000
   19    1    2    3        3       0.979   2.937   0.000  -3.916  -0.000   0.000
   27    9    7    6        3       0.979   2.937   0.000  -3.916  -0.000   0.000
   25    8    7    6        3       0.979   2.937   0.000  -3.916  -0.000   0.000
   18    1    2    3        3       0.979   2.937   0.000  -3.916  -0.000   0.000
   24    8    7    6        3       0.979   2.937   0.000  -3.916  -0.000   0.000
   17    1    2    3        3       0.979   2.937   0.000  -3.916  -0.000   0.000
   23    8    7    6        3       0.979   2.937   0.000  -3.916  -0.000   0.000
   26    9    7    6        3       0.979   2.937   0.000  -3.916  -0.000   0.000
   39   16   14   13        3       1.172   3.515   0.000  -4.686  -0.000   0.000
   29   11   10   12        3       1.172   3.515   0.000  -4.686  -0.000   0.000
   32   12   10    9        3       1.172   3.515   0.000  -4.686  -0.000   0.000
   40   16   14   15        3       1.172   3.515   0.000  -4.686  -0.000   0.000
   38   16   14   13        3       1.172   3.515   0.000  -4.686  -0.000   0.000
   35   15   14   13        3       1.172   3.515   0.000  -4.686  -0.000   0.000
   30   11   10   12        3       1.172   3.515   0.000  -4.686  -0.000   0.000
   40   16   14   13        3       1.172   3.515   0.000  -4.686  -0.000   0.000
   36   15   14   16        3       1.172   3.515   0.000  -4.686  -0.000   0.000
   27    9   10   12        3       1.172   3.515   0.000  -4.686  -0.000   0.000
   28   11   10    9        3       1.172   3.515   0.000  -4.686  -0.000   0.000
   34   13   14   16        3       1.172   3.515   0.000  -4.686  -0.000   0.000
   39   16   14   15        3       1.172   3.515   0.000  -4.686  -0.000   0.000
   37   15   14   16        3       1.172   3.515   0.000  -4.686  -0.000   0.000
   35   15   14   16        3       1.172   3.515   0.000  -4.686  -0.000   0.000
   30   11   10    9        3       1.172   3.515   0.000  -4.686  -0.000   0.000
   31   12   10    9        3       1.172   3.515   0.000  -4.686  -0.000   0.000
   34   13   14   15        3       1.172   3.515   0.000  -4.686  -0.000   0.000
   27    9   10   11        3       1.172   3.515   0.000  -4.686  -0.000   0.000
   29   11   10    9        3       1.172   3.515   0.000  -4.686  -0.000   0.000
   26    9   10   11        3       1.172   3.515   0.000  -4.686  -0.000   0.000
   26    9   10   12        3       1.172   3.515   0.000  -4.686  -0.000   0.000
   36   15   14   13        3       1.172   3.515   0.000  -4.686  -0.000   0.000
   31   12   10   11        3       1.172   3.515   0.000  -4.686  -0.000   0.000
   32   12   10   11        3       1.172   3.515   0.000  -4.686  -0.000   0.000
   38   16   14   15        3       1.172   3.515   0.000  -4.686  -0.000   0.000
   28   11   10   12        3       1.172   3.515   0.000  -4.686  -0.000   0.000
   33   13   14   15        3       1.172   3.515   0.000  -4.686  -0.000   0.000
   37   15   14   13        3       1.172   3.515   0.000  -4.686  -0.000   0.000
   33   13   14   16        3       1.172   3.515   0.000  -4.686  -0.000   0.000
   20    2    3    4        3       0.414   1.243   0.000  -1.657  -0.000   0.000
   21    2    3    4        3       0.414   1.243   0.000  -1.657  -0.000   0.000
   22    7    6    4        3       0.414   1.243   0.000  -1.657  -0.000   0.000
   10    9    7    8        3       3.335  -1.552   2.820  -4.602  -0.000   0.000
   14   13   12   10        3      19.600  -21.391   4.050  -2.259  -0.000   0.000
   10    9    7    6        3      16.736  -16.736   0.000  -0.000  -0.000   0.000
    5    4    3    2        3      21.439   0.000  -21.439  -0.000  -0.000   0.000
    6    4    3    2        3      31.206  -9.768  -21.439  -0.000  -0.000   0.000

[ pairs ]
     1     4    1
     2     5    1
     2     6    1
     3     7    1
     5     7    1
     4     8    1
     4     9    1
     6    10    1
     8    10    1
     7    11    1
     7    12    1
     3    17    1
     3    18    1
     9    13    1
     3    19    1
    11    13    1
    10    14    1
     4    20    1
     4    21    1
     4    22    1
    12    15    1
    12    16    1
     6    23    1
     6    24    1
     6    25    1
    10    22    1
     9    23    1
     6    26    1
     9    24    1
     6    27    1
     9    25    1
     8    26    1
     8    27    1
    17    20    1
    11    26    1
     9    28    1
    18    20    1
    17    21    1
    12    26    1
    11    27    1
     9    29    1
    19    20    1
    18    21    1
    12    27    1
     9    30    1
    19    21    1
    12    28    1
     9    31    1
    12    29    1
     9    32    1
    12    30    1
    11    31    1
    11    32    1
    10    33    1
    10    34    1
    22    23    1
    14    31    1
    22    24    1
    14    32    1
    22    25    1
    22    26    1
    15    33    1
    13    35    1
    22    27    1
    16    33    1
    15    34    1
    13    36    1
    16    34    1
    13    37    1
    16    35    1
    13    38    1
    16    36    1
    13    39    1
    16    37    1
    15    38    1
    13    40    1
    15    39    1
    15    40    1
    31    33    1
    32    33    1
    31    34    1
    32    34    1

