LIGPARGEN GENERATED GRO FILE
   40
    1UNK    C00    1   0.100   0.100   0.000
    1UNK    C01    2  -0.052   0.100   0.000
    1UNK    O02    3  -0.096   0.100   0.136
    1UNK    C03    4  -0.107  -0.024   0.191
    1UNK    O04    5  -0.110  -0.129   0.130
    1UNK    O05    6  -0.098  -0.010   0.326
    1UNK    C06    7  -0.081  -0.133   0.398
    1UNK    C07    8   0.063  -0.183   0.380
    1UNK    C08    9  -0.107  -0.107   0.548
    1UNK    N09   10  -0.239  -0.053   0.585
    1UNK    C0A   11  -0.347  -0.143   0.543
    1UNK    C0B   12  -0.248  -0.028   0.731
    1UNK    C0C   13  -0.149   0.080   0.782
    1UNK    N0D   14  -0.158   0.113   0.926
    1UNK    C0E   15  -0.131  -0.004   1.010
    1UNK    C0F   16  -0.061   0.218   0.957
    1UNK    H0G   17   0.140   0.100  -0.102
    1UNK    H0H   18   0.139   0.012   0.053
    1UNK    H0I   19   0.138   0.188   0.053
    1UNK    H0J   20  -0.092   0.015  -0.057
    1UNK    H0K   21  -0.089   0.191  -0.047
    1UNK    H0M   22  -0.151  -0.209   0.360
    1UNK    H0N   23   0.133  -0.122   0.438
    1UNK    H0O   24   0.096  -0.177   0.276
    1UNK    H0P   25   0.072  -0.286   0.413
    1UNK    H0Q   26  -0.031  -0.033   0.577
    1UNK    H0R   27  -0.086  -0.199   0.604
    1UNK    H0S   28  -0.355  -0.146   0.434
    1UNK    H0T   29  -0.444  -0.108   0.580
    1UNK    H0U   30  -0.332  -0.245   0.580
    1UNK    H0V   31  -0.232  -0.123   0.784
    1UNK    H0W   32  -0.349   0.006   0.756
    1UNK    H0X   33  -0.170   0.172   0.725
    1UNK    H0Y   34  -0.046   0.050   0.761
    1UNK    H0Z   35  -0.211  -0.079   1.001
    1UNK    H10   36  -0.129   0.024   1.116
    1UNK    H11   37  -0.036  -0.052   0.986
    1UNK    H12   38  -0.082   0.308   0.898
    1UNK    H13   39   0.042   0.186   0.936
    1UNK    H14   40  -0.068   0.247   1.062
   1.00000   1.00000   1.00000

