LIGPARGEN GENERATED GRO FILE
   35
    1UNK    C00    1   0.100   0.100   0.000
    1UNK    C01    2  -0.053   0.100   0.000
    1UNK    C02    3  -0.123   0.100   0.140
    1UNK    C03    4  -0.087  -0.027   0.218
    1UNK    C04    5  -0.074   0.223   0.219
    1UNK    C05    6  -0.277   0.104   0.112
    1UNK    C06    7  -0.378   0.096   0.229
    1UNK    C07    8  -0.366   0.208   0.327
    1UNK    C08    9  -0.390   0.352   0.288
    1UNK    C09   10  -0.471   0.394   0.167
    1UNK    C0A   11  -0.614   0.419   0.214
    1UNK    S0B   12  -0.644   0.289   0.339
    1UNK    C0C   13  -0.478   0.284   0.391
    1UNK    H0D   14   0.137   0.100  -0.103
    1UNK    H0E   15   0.140   0.011   0.050
    1UNK    H0F   16   0.141   0.189   0.048
    1UNK    H0G   17  -0.086   0.013  -0.057
    1UNK    H0H   18  -0.086   0.188  -0.056
    1UNK    H0I   19   0.021  -0.033   0.238
    1UNK    H0J   20  -0.114  -0.117   0.161
    1UNK    H0K   21  -0.138  -0.032   0.314
    1UNK    H0M   22   0.035   0.227   0.226
    1UNK    H0N   23  -0.108   0.223   0.322
    1UNK    H0O   24  -0.108   0.316   0.171
    1UNK    H0P   25  -0.300   0.019   0.046
    1UNK    H0Q   26  -0.298   0.194   0.053
    1UNK    H0R   27  -0.366   0.001   0.281
    1UNK    H0S   28  -0.478   0.094   0.185
    1UNK    H0T   29  -0.287   0.184   0.399
    1UNK    H0U   30  -0.319   0.427   0.320
    1UNK    H0V   31  -0.472   0.316   0.091
    1UNK    H0W   32  -0.429   0.483   0.121
    1UNK    H0X   33  -0.686   0.414   0.132
    1UNK    H0Y   34  -0.621   0.517   0.263
    1UNK    H0Z   35  -0.464   0.315   0.494
   1.00000   1.00000   1.00000

