LIGPARGEN GENERATED GRO FILE
   40
    1UNK    C00    1   0.100   0.100   0.000
    1UNK    C01    2  -0.052   0.100   0.000
    1UNK    C02    3  -0.109   0.100   0.141
    1UNK    O03    4  -0.038   0.100   0.241
    1UNK    C04    5  -0.260   0.100   0.149
    1UNK    C05    6  -0.308   0.100   0.294
    1UNK    C06    7  -0.458   0.101   0.299
    1UNK    O07    8  -0.526   0.050   0.210
    1UNK    C08    9  -0.520   0.167   0.421
    1UNK    C09   10  -0.672   0.161   0.417
    1UNK    C0A   11  -0.732   0.234   0.537
    1UNK    C0B   12  -0.884   0.228   0.532
    1UNK    C0C   13  -0.950   0.300   0.651
    1UNK    C0D   14  -0.912   0.449   0.654
    1UNK    C0E   15  -1.102   0.279   0.645
    1UNK    C0F   16  -1.166   0.350   0.764
    1UNK    N0G   17  -1.219   0.409   0.862
    1UNK    H0H   18   0.138   0.100  -0.102
    1UNK    H0I   19   0.139   0.011   0.051
    1UNK    H0J   20   0.139   0.189   0.051
    1UNK    H0K   21  -0.089   0.011  -0.052
    1UNK    H0M   22  -0.089   0.189  -0.052
    1UNK    H0N   23  -0.297   0.012   0.097
    1UNK    H0O   24  -0.297   0.190   0.098
    1UNK    H0P   25  -0.270   0.190   0.345
    1UNK    H0Q   26  -0.271   0.012   0.348
    1UNK    H0R   27  -0.486   0.271   0.423
    1UNK    H0S   28  -0.482   0.116   0.511
    1UNK    H0T   29  -0.706   0.057   0.415
    1UNK    H0U   30  -0.708   0.208   0.324
    1UNK    H0V   31  -0.697   0.337   0.535
    1UNK    H0W   32  -0.696   0.188   0.630
    1UNK    H0X   33  -0.916   0.123   0.532
    1UNK    H0Y   34  -0.920   0.273   0.439
    1UNK    H0Z   35  -0.912   0.255   0.744
    1UNK    H10   36  -0.943   0.499   0.562
    1UNK    H11   37  -0.805   0.463   0.668
    1UNK    H12   38  -0.960   0.501   0.738
    1UNK    H13   39  -1.127   0.172   0.650
    1UNK    H14   40  -1.144   0.320   0.553
   1.00000   1.00000   1.00000

