LIGPARGEN GENERATED GRO FILE
   39
    1UNK    C00    1   0.100   0.100   0.000
    1UNK    O01    2  -0.042   0.100   0.000
    1UNK    C02    3  -0.101   0.100   0.130
    1UNK    C03    4  -0.072   0.229   0.206
    1UNK    C04    5  -0.252   0.085   0.112
    1UNK    C05    6  -0.292  -0.045   0.041
    1UNK    C06    7  -0.251  -0.174   0.112
    1UNK    C07    8  -0.319  -0.192   0.247
    1UNK    O08    9  -0.298  -0.276   0.023
    1UNK    C09   10  -0.208  -0.367  -0.019
    1UNK    O0A   11  -0.128  -0.428   0.050
    1UNK    O0B   12  -0.228  -0.381  -0.152
    1UNK    C0C   13  -0.245  -0.514  -0.199
    1UNK    C0D   14  -0.394  -0.547  -0.191
    1UNK    C0E   15  -0.474  -0.454  -0.280
    1UNK    C0F   16  -0.529  -0.327  -0.222
    1UNK    O0G   17  -0.492  -0.483  -0.399
    1UNK    H0H   18   0.134   0.080  -0.102
    1UNK    H0I   19   0.139   0.022   0.066
    1UNK    H0J   20   0.138   0.198   0.030
    1UNK    H0K   21  -0.061   0.015   0.188
    1UNK    H0M   22  -0.100   0.317   0.146
    1UNK    H0N   23   0.035   0.238   0.228
    1UNK    H0O   24  -0.126   0.232   0.301
    1UNK    H0P   25  -0.289   0.168   0.050
    1UNK    H0Q   26  -0.304   0.091   0.208
    1UNK    H0R   27  -0.250  -0.045  -0.061
    1UNK    H0S   28  -0.401  -0.045   0.025
    1UNK    H0T   29  -0.143  -0.180   0.123
    1UNK    H0U   30  -0.428  -0.187   0.237
    1UNK    H0V   31  -0.287  -0.115   0.318
    1UNK    H0W   32  -0.296  -0.290   0.289
    1UNK    H0X   33  -0.186  -0.586  -0.140
    1UNK    H0Y   34  -0.210  -0.518  -0.302
    1UNK    H0Z   35  -0.432  -0.537  -0.088
    1UNK    H10   36  -0.412  -0.650  -0.223
    1UNK    H11   37  -0.503  -0.317  -0.116
    1UNK    H12   38  -0.638  -0.328  -0.229
    1UNK    H13   39  -0.488  -0.241  -0.275
   1.00000   1.00000   1.00000

