LIGPARGEN GENERATED GRO FILE
   57
    1UNK    C00    1   0.100   0.100   0.000
    1UNK    C01    2  -0.052   0.100   0.000
    1UNK    C02    3  -0.107   0.100   0.143
    1UNK    C03    4  -0.261   0.106   0.150
    1UNK    C04    5  -0.331  -0.007   0.071
    1UNK    C05    6  -0.306  -0.148   0.121
    1UNK    C06    7  -0.310   0.104   0.297
    1UNK    C07    8  -0.261   0.218   0.389
    1UNK    C08    9  -0.306   0.355   0.338
    1UNK    C09   10  -0.311   0.196   0.534
    1UNK    C0A   11  -0.251   0.070   0.598
    1UNK    C0B   12  -0.295   0.041   0.743
    1UNK    C0C   13  -0.448   0.030   0.750
    1UNK    C0D   14  -0.227  -0.091   0.795
    1UNK    C0E   15  -0.072  -0.086   0.792
    1UNK    C0F   16  -0.015   0.013   0.894
    1UNK    C0G   17  -0.064  -0.018   1.035
    1UNK    C0H   18  -0.216  -0.033   1.043
    1UNK    C0I   19  -0.268  -0.131   0.938
    1UNK    H0J   20   0.138   0.100  -0.103
    1UNK    H0K   21   0.139   0.011   0.050
    1UNK    H0M   22   0.139   0.189   0.051
    1UNK    H0N   23  -0.086   0.012  -0.055
    1UNK    H0O   24  -0.088   0.188  -0.054
    1UNK    H0P   25  -0.065   0.187   0.194
    1UNK    H0Q   26  -0.070   0.012   0.196
    1UNK    H0R   27  -0.293   0.201   0.105
    1UNK    H0S   28  -0.303   0.000  -0.035
    1UNK    H0T   29  -0.440   0.012   0.072
    1UNK    H0U   30  -0.201  -0.164   0.150
    1UNK    H0V   31  -0.329  -0.220   0.042
    1UNK    H0W   32  -0.369  -0.172   0.206
    1UNK    H0X   33  -0.279   0.008   0.339
    1UNK    H0Y   34  -0.420   0.104   0.298
    1UNK    H0Z   35  -0.151   0.218   0.393
    1UNK    H10   36  -0.411   0.354   0.307
    1UNK    H11   37  -0.246   0.386   0.252
    1UNK    H12   38  -0.295   0.432   0.415
    1UNK    H13   39  -0.420   0.192   0.533
    1UNK    H14   40  -0.283   0.283   0.596
    1UNK    H15   41  -0.142   0.083   0.595
    1UNK    H16   42  -0.275  -0.018   0.538
    1UNK    H17   43  -0.265   0.125   0.806
    1UNK    H18   44  -0.485  -0.050   0.684
    1UNK    H19   45  -0.496   0.124   0.720
    1UNK    H1A   46  -0.484   0.010   0.851
    1UNK    H1B   47  -0.258  -0.172   0.728
    1UNK    H1C   48  -0.034  -0.063   0.693
    1UNK    H1D   49  -0.034  -0.186   0.816
    1UNK    H1E   50  -0.044   0.116   0.866
    1UNK    H1F   51   0.094   0.010   0.891
    1UNK    H1G   52  -0.031   0.061   1.104
    1UNK    H1H   53  -0.017  -0.111   1.069
    1UNK    H1I   54  -0.263   0.065   1.030
    1UNK    H1J   55  -0.244  -0.068   1.143
    1UNK    H1K   56  -0.377  -0.141   0.947
    1UNK    H1M   57  -0.227  -0.230   0.960
   1.00000   1.00000   1.00000

