LIGPARGEN GENERATED GRO FILE
   39
    1UNK    C00    1   0.100   0.100   0.000
    1UNK    C01    2  -0.052   0.100   0.000
    1UNK    C02    3  -0.104   0.100   0.143
    1UNK    O03    4  -0.246   0.118   0.153
    1UNK    C04    5  -0.323   0.006   0.161
    1UNK    O05    6  -0.288  -0.107   0.133
    1UNK    O06    7  -0.445   0.045   0.204
    1UNK    C07    8  -0.561  -0.034   0.172
    1UNK    C08    9  -0.570  -0.165   0.252
    1UNK    C09   10  -0.579  -0.150   0.403
    1UNK    C0A   11  -0.682   0.058   0.198
    1UNK    C0B   12  -0.672   0.192   0.124
    1UNK    C0C   13  -0.792   0.286   0.148
    1UNK    C0D   14  -0.808   0.324   0.296
    1UNK    C0E   15  -0.774   0.413   0.065
    1UNK    H0F   16   0.139   0.100  -0.102
    1UNK    H0G   17   0.139   0.012   0.052
    1UNK    H0H   18   0.139   0.189   0.051
    1UNK    H0I   19  -0.090   0.012  -0.054
    1UNK    H0J   20  -0.090   0.188  -0.054
    1UNK    H0K   21  -0.061   0.185   0.197
    1UNK    H0M   22  -0.073   0.010   0.197
    1UNK    H0N   23  -0.557  -0.057   0.065
    1UNK    H0O   24  -0.482  -0.227   0.230
    1UNK    H0P   25  -0.657  -0.221   0.217
    1UNK    H0Q   26  -0.497  -0.089   0.442
    1UNK    H0R   27  -0.574  -0.248   0.451
    1UNK    H0S   28  -0.674  -0.104   0.433
    1UNK    H0T   29  -0.687   0.080   0.306
    1UNK    H0U   30  -0.774   0.006   0.170
    1UNK    H0V   31  -0.663   0.172   0.017
    1UNK    H0W   32  -0.580   0.244   0.154
    1UNK    H0X   33  -0.883   0.236   0.115
    1UNK    H0Y   34  -0.716   0.368   0.336
    1UNK    H0Z   35  -0.834   0.237   0.357
    1UNK    H10   36  -0.889   0.397   0.308
    1UNK    H11   37  -0.684   0.468   0.094
    1UNK    H12   38  -0.860   0.480   0.077
    1UNK    H13   39  -0.766   0.389  -0.042
   1.00000   1.00000   1.00000

