
;
; GENERATED BY LigParGen Server
; Jorgensen Lab @ Yale University 
;
[ atomtypes ]
  opls_824  H824     1.0080     0.000    A    2.50000E-01   1.25520E-01
  opls_805  C805    12.0110     0.000    A    3.50000E-01   2.76144E-01
  opls_843  H843     1.0080     0.000    A    2.50000E-01   1.25520E-01
  opls_836  H836     1.0080     0.000    A    2.50000E-01   1.25520E-01
  opls_834  H834     1.0080     0.000    A    2.50000E-01   1.25520E-01
  opls_810  C810    12.0110     0.000    A    3.50000E-01   2.76144E-01
  opls_828  H828     1.0080     0.000    A    2.50000E-01   1.25520E-01
  opls_814  C814    12.0110     0.000    A    3.55000E-01   2.92880E-01
  opls_802  C802    12.0110     0.000    A    3.50000E-01   2.76144E-01
  opls_827  H827     1.0080     0.000    A    2.50000E-01   1.25520E-01
  opls_801  C801    12.0110     0.000    A    3.50000E-01   2.76144E-01
  opls_838  H838     1.0080     0.000    A    2.50000E-01   1.25520E-01
  opls_822  H822     1.0080     0.000    A    2.50000E-01   1.25520E-01
  opls_803  C803    12.0110     0.000    A    3.50000E-01   2.76144E-01
  opls_830  H830     1.0080     0.000    A    2.50000E-01   1.25520E-01
  opls_809  O809    15.9990     0.000    A    2.96000E-01   8.78640E-01
  opls_821  H821     1.0080     0.000    A    2.50000E-01   1.25520E-01
  opls_842  H842     1.0080     0.000    A    2.50000E-01   1.25520E-01
  opls_820  H820     1.0080     0.000    A    2.50000E-01   1.25520E-01
  opls_837  H837     1.0080     0.000    A    2.50000E-01   1.25520E-01
  opls_829  H829     1.0080     0.000    A    2.50000E-01   1.25520E-01
  opls_831  H831     1.0080     0.000    A    2.50000E-01   1.25520E-01
  opls_832  H832     1.0080     0.000    A    2.50000E-01   1.25520E-01
  opls_800  C800    12.0110     0.000    A    3.50000E-01   2.76144E-01
  opls_846  H846     1.0080     0.000    A    2.50000E-01   1.25520E-01
  opls_806  C806    12.0110     0.000    A    3.50000E-01   2.76144E-01
  opls_823  H823     1.0080     0.000    A    2.50000E-01   1.25520E-01
  opls_819  C819    12.0110     0.000    A    3.50000E-01   2.76144E-01
  opls_826  H826     1.0080     0.000    A    2.50000E-01   1.25520E-01
  opls_835  H835     1.0080     0.000    A    2.50000E-01   1.25520E-01
  opls_841  H841     1.0080     0.000    A    2.50000E-01   1.25520E-01
  opls_825  H825     1.0080     0.000    A    2.50000E-01   1.25520E-01
  opls_816  C816    12.0110     0.000    A    3.50000E-01   2.76144E-01
  opls_833  H833     1.0080     0.000    A    2.50000E-01   1.25520E-01
  opls_811  O811    15.9990     0.000    A    2.90000E-01   5.85760E-01
  opls_839  H839     1.0080     0.000    A    2.50000E-01   1.25520E-01
  opls_817  C817    12.0110     0.000    A    3.50000E-01   2.76144E-01
  opls_812  C812    12.0110     0.000    A    3.50000E-01   2.76144E-01
  opls_815  O815    15.9990     0.000    A    2.96000E-01   8.78640E-01
  opls_840  H840     1.0080     0.000    A    2.50000E-01   1.25520E-01
  opls_804  O804    15.9990     0.000    A    2.90000E-01   5.85760E-01
  opls_813  C813    12.0110     0.000    A    3.50000E-01   2.76144E-01
  opls_847  H847     1.0080     0.000    A    2.50000E-01   1.25520E-01
  opls_844  H844     1.0080     0.000    A    2.50000E-01   1.25520E-01
  opls_845  H845     1.0080     0.000    A    2.50000E-01   1.25520E-01
  opls_808  C808    12.0110     0.000    A    3.55000E-01   2.92880E-01
  opls_818  O818    15.9990     0.000    A    2.90000E-01   5.85760E-01
  opls_807  C807    12.0110     0.000    A    3.50000E-01   2.76144E-01
[ moleculetype ]
; Name               nrexcl
UNK                   3
[ atoms ]
;   nr       type  resnr residue  atom   cgnr     charge       mass  
     1   opls_800      1    UNK   C00      1    -0.2411    12.0110 
     2   opls_801      1    UNK   C01      1    -0.1791    12.0110 
     3   opls_802      1    UNK   C02      1    -0.2166    12.0110 
     4   opls_803      1    UNK   C03      1     0.0854    12.0110 
     5   opls_804      1    UNK   O04      1    -0.3938    15.9990 
     6   opls_805      1    UNK   C05      1    -0.0446    12.0110 
     7   opls_806      1    UNK   C06      1     0.0086    12.0110 
     8   opls_807      1    UNK   C07      1    -0.2461    12.0110 
     9   opls_808      1    UNK   C08      1     0.3234    12.0110 
    10   opls_809      1    UNK   O09      1    -0.4644    15.9990 
    11   opls_810      1    UNK   C0A      1     0.0047    12.0110 
    12   opls_811      1    UNK   O0B      1    -0.3834    15.9990 
    13   opls_812      1    UNK   C0C      1    -0.0492    12.0110 
    14   opls_813      1    UNK   C0D      1    -0.2172    12.0110 
    15   opls_814      1    UNK   C0E      1     0.3882    12.0110 
    16   opls_815      1    UNK   O0F      1     -0.426    15.9990 
    17   opls_816      1    UNK   C0G      1     0.0386    12.0110 
    18   opls_817      1    UNK   C0H      1    -0.2794    12.0110 
    19   opls_818      1    UNK   O0I      1    -0.3592    15.9990 
    20   opls_819      1    UNK   C0J      1    -0.0464    12.0110 
    21   opls_820      1    UNK   H0K      1     0.0852     1.0080 
    22   opls_821      1    UNK   H0M      1     0.0852     1.0080 
    23   opls_822      1    UNK   H0N      1     0.0852     1.0080 
    24   opls_823      1    UNK   H0O      1     0.0884     1.0080 
    25   opls_824      1    UNK   H0P      1     0.0884     1.0080 
    26   opls_825      1    UNK   H0Q      1     0.1079     1.0080 
    27   opls_826      1    UNK   H0R      1     0.1079     1.0080 
    28   opls_827      1    UNK   H0S      1     0.0871     1.0080 
    29   opls_828      1    UNK   H0T      1     0.0828     1.0080 
    30   opls_829      1    UNK   H0U      1     0.0828     1.0080 
    31   opls_830      1    UNK   H0V      1     0.0828     1.0080 
    32   opls_831      1    UNK   H0W      1     0.1476     1.0080 
    33   opls_832      1    UNK   H0X      2     0.1476     1.0080 
    34   opls_833      1    UNK   H0Y      2     0.1034     1.0080 
    35   opls_834      1    UNK   H0Z      2     0.0886     1.0080 
    36   opls_835      1    UNK   H10      2     0.0886     1.0080 
    37   opls_836      1    UNK   H11      2     0.0847     1.0080 
    38   opls_837      1    UNK   H12      2     0.0847     1.0080 
    39   opls_838      1    UNK   H13      2     0.0847     1.0080 
    40   opls_839      1    UNK   H14      2     0.1169     1.0080 
    41   opls_840      1    UNK   H15      2     0.1169     1.0080 
    42   opls_841      1    UNK   H16      2     0.1179     1.0080 
    43   opls_842      1    UNK   H17      2     0.0967     1.0080 
    44   opls_843      1    UNK   H18      2     0.0967     1.0080 
    45   opls_844      1    UNK   H19      2     0.0967     1.0080 
    46   opls_845      1    UNK   H1A      2     0.0807     1.0080 
    47   opls_846      1    UNK   H1B      2     0.0807     1.0080 
    48   opls_847      1    UNK   H1C      2     0.0807     1.0080 
[ bonds ]
    2     1     1      0.1529 224262.400
    3     2     1      0.1529 224262.400
    4     3     1      0.1529 224262.400
    5     4     1      0.1410 267776.000
    6     5     1      0.1410 267776.000
    7     4     1      0.1529 224262.400
    8     7     1      0.1529 224262.400
    9     8     1      0.1522 265265.600
   10     9     1      0.1229 476976.000
   11     7     1      0.1529 224262.400
   12    11     1      0.1410 267776.000
   13    12     1      0.1410 267776.000
   14     7     1      0.1529 224262.400
   15    14     1      0.1522 265265.600
   16    15     1      0.1229 476976.000
   17    15     1      0.1522 265265.600
   18    17     1      0.1529 224262.400
   19    17     1      0.1410 267776.000
   20    19     1      0.1410 267776.000
   21     1     1      0.1090 284512.000
   22     1     1      0.1090 284512.000
   23     1     1      0.1090 284512.000
   24     2     1      0.1090 284512.000
   25     2     1      0.1090 284512.000
   26     3     1      0.1090 284512.000
   27     3     1      0.1090 284512.000
   28     4     1      0.1090 284512.000
   29     6     1      0.1090 284512.000
   30     6     1      0.1090 284512.000
   31     6     1      0.1090 284512.000
   32     8     1      0.1090 284512.000
   33     8     1      0.1090 284512.000
   34     9     1      0.1090 284512.000
   35    11     1      0.1090 284512.000
   36    11     1      0.1090 284512.000
   37    13     1      0.1090 284512.000
   38    13     1      0.1090 284512.000
   39    13     1      0.1090 284512.000
   40    14     1      0.1090 284512.000
   41    14     1      0.1090 284512.000
   42    17     1      0.1090 284512.000
   43    18     1      0.1090 284512.000
   44    18     1      0.1090 284512.000
   45    18     1      0.1090 284512.000
   46    20     1      0.1090 284512.000
   47    20     1      0.1090 284512.000
   48    20     1      0.1090 284512.000

[ angles ]
;  ai    aj    ak funct            c0            c1            c2            c3 
    1     2     3     1    112.700    488.273
    2     3     4     1    112.700    488.273
    3     4     5     1    109.500    418.400
    4     5     6     1    109.500    502.080
    3     4     7     1    112.700    488.273
    4     7     8     1    112.700    488.273
    7     8     9     1    111.100    527.184
    8     9    10     1    120.400    669.440
    4     7    11     1    112.700    488.273
    7    11    12     1    109.500    418.400
   11    12    13     1    109.500    502.080
    4     7    14     1    112.700    488.273
    7    14    15     1    111.100    527.184
   14    15    16     1    120.400    669.440
   14    15    17     1    116.000    585.760
   15    17    18     1    111.100    527.184
   15    17    19     1    109.500    418.400
   17    19    20     1    109.500    502.080
    2     1    21     1    110.700    313.800
    2     1    22     1    110.700    313.800
    2     1    23     1    110.700    313.800
    1     2    24     1    110.700    313.800
    1     2    25     1    110.700    313.800
    2     3    26     1    110.700    313.800
    2     3    27     1    110.700    313.800
    3     4    28     1    110.700    313.800
    5     6    29     1    109.500    292.880
    5     6    30     1    109.500    292.880
    5     6    31     1    109.500    292.880
    7     8    32     1    110.700    313.800
    7     8    33     1    110.700    313.800
    8     9    34     1    115.000    292.880
    7    11    35     1    110.700    313.800
    7    11    36     1    110.700    313.800
   12    13    37     1    109.500    292.880
   12    13    38     1    109.500    292.880
   12    13    39     1    109.500    292.880
    7    14    40     1    110.700    313.800
    7    14    41     1    110.700    313.800
   15    17    42     1    109.500    292.880
   17    18    43     1    110.700    313.800
   17    18    44     1    110.700    313.800
   17    18    45     1    110.700    313.800
   19    20    46     1    109.500    292.880
   19    20    47     1    109.500    292.880
   19    20    48     1    109.500    292.880
   46    20    48     1    107.800    276.144
    5     4     7     1    109.500    418.400
   29     6    30     1    107.800    276.144
   35    11    36     1    107.800    276.144
    7     4    28     1    110.700    313.800
   38    13    39     1    107.800    276.144
   15    14    40     1    109.500    292.880
   16    15    17     1    120.400    669.440
   40    14    41     1    107.800    276.144
   21     1    23     1    107.800    276.144
    3     2    25     1    110.700    313.800
    5     4    28     1    109.500    292.880
   47    20    48     1    107.800    276.144
   37    13    39     1    107.800    276.144
   43    18    44     1    107.800    276.144
   15    14    41     1    109.500    292.880
   44    18    45     1    107.800    276.144
   37    13    38     1    107.800    276.144
    8     7    11     1    112.700    488.273
   32     8    33     1    107.800    276.144
   12    11    35     1    109.500    292.880
   12    11    36     1    109.500    292.880
   29     6    31     1    107.800    276.144
   24     2    25     1    107.800    276.144
   21     1    22     1    107.800    276.144
   46    20    47     1    107.800    276.144
    4     3    27     1    110.700    313.800
   18    17    42     1    110.700    313.800
    8     7    14     1    112.700    488.273
    4     3    26     1    110.700    313.800
    9     8    32     1    109.500    292.880
    9     8    33     1    109.500    292.880
   30     6    31     1    107.800    276.144
   26     3    27     1    107.800    276.144
   10     9    34     1    123.000    292.880
   22     1    23     1    107.800    276.144
   19    17    42     1    109.500    292.880
   18    17    19     1    109.500    418.400
   43    18    45     1    107.800    276.144
    3     2    24     1    110.700    313.800
   11     7    14     1    112.700    488.273

[ dihedrals ]
; IMPROPER DIHEDRAL ANGLES 
;  ai    aj    ak    al funct            c0            c1            c2            c3            c4            c5
    17    15    14    16    4        180.000     43.932     2  
    34     9     8    10    4        180.000     43.932     2  

[ dihedrals ]
; PROPER DIHEDRAL ANGLES
;  ai    aj    ak    al funct            c0            c1            c2            c3            c4            c5
   15   14    7    4        3      -4.960   6.286   1.310  -2.636  -0.000   0.000
   15   14    7   11        3      -4.960   6.286   1.310  -2.636  -0.000   0.000
   15   14    7    8        3      -4.960   6.286   1.310  -2.636  -0.000   0.000
    9    8    7    4        3      -4.960   6.286   1.310  -2.636  -0.000   0.000
   17   15   14    7        3       0.818  -7.906   0.602   6.485  -0.000   0.000
   18   17   15   14        3       0.818  -7.906   0.602   6.485  -0.000   0.000
   18   17   15   16        3       0.000   0.000   0.000  -0.000  -0.000   0.000
   14    7    8    9        3      -4.960   6.286   1.310  -2.636  -0.000   0.000
   11    7    8    9        3      -4.960   6.286   1.310  -2.636  -0.000   0.000
    7    4    3    2        3       2.301  -1.464   0.837  -1.674  -0.000   0.000
    4    3    2    1        3       2.301  -1.464   0.837  -1.674  -0.000   0.000
   14    7    4    3        3       2.301  -1.464   0.837  -1.674  -0.000   0.000
    8    7    4    3        3       2.301  -1.464   0.837  -1.674  -0.000   0.000
   11    7    4    3        3       2.301  -1.464   0.837  -1.674  -0.000   0.000
   11    7    4    5        3       2.874   0.582   2.092  -5.548  -0.000   0.000
   14    7   11   12        3       2.874   0.582   2.092  -5.548  -0.000   0.000
    8    7    4    5        3       2.874   0.582   2.092  -5.548  -0.000   0.000
   14    7    4    5        3       2.874   0.582   2.092  -5.548  -0.000   0.000
    7    4    5    6        3       1.715   2.845   1.046  -5.607  -0.000   0.000
   20   19   17   15        3       1.715   2.845   1.046  -5.607  -0.000   0.000
   13   12   11    7        3       1.715   2.845   1.046  -5.607  -0.000   0.000
   20   19   17   18        3       1.715   2.845   1.046  -5.607  -0.000   0.000
    6    5    4    3        3       1.715   2.845   1.046  -5.607  -0.000   0.000
   34    9    8    7        3       0.000   0.000   0.000  -0.000  -0.000   0.000
   34    9    8   32        3       0.753   2.259   0.000  -3.012  -0.000   0.000
   34    9    8   33        3       0.753   2.259   0.000  -3.012  -0.000   0.000
   42   17   15   14        3       0.575   1.726   0.000  -2.301  -0.000   0.000
   40   14   15   17        3       0.575   1.726   0.000  -2.301  -0.000   0.000
   41   14   15   17        3       0.575   1.726   0.000  -2.301  -0.000   0.000
   33    8    9   10        3       0.000   0.000   0.000  -0.000  -0.000   0.000
   32    8    9   10        3       0.000   0.000   0.000  -0.000  -0.000   0.000
   42   17   15   16        3       0.000   0.000   0.000  -0.000  -0.000   0.000
   41   14   15   16        3       0.000   0.000   0.000  -0.000  -0.000   0.000
   40   14   15   16        3       0.000   0.000   0.000  -0.000  -0.000   0.000
   43   18   17   15        3      -0.209  -0.628   0.000   0.837  -0.000   0.000
   44   18   17   15        3      -0.209  -0.628   0.000   0.837  -0.000   0.000
   45   18   17   15        3      -0.209  -0.628   0.000   0.837  -0.000   0.000
   24    2    3    4        3       0.628   1.883   0.000  -2.510  -0.000   0.000
   27    3    2    1        3       0.628   1.883   0.000  -2.510  -0.000   0.000
   35   11    7    8        3       0.628   1.883   0.000  -2.510  -0.000   0.000
   28    4    7    8        3       0.628   1.883   0.000  -2.510  -0.000   0.000
   40   14    7   11        3       0.628   1.883   0.000  -2.510  -0.000   0.000
   36   11    7   14        3       0.628   1.883   0.000  -2.510  -0.000   0.000
   41   14    7    8        3       0.628   1.883   0.000  -2.510  -0.000   0.000
   40   14    7    4        3       0.628   1.883   0.000  -2.510  -0.000   0.000
   22    1    2    3        3       0.628   1.883   0.000  -2.510  -0.000   0.000
   21    1    2    3        3       0.628   1.883   0.000  -2.510  -0.000   0.000
   36   11    7    8        3       0.628   1.883   0.000  -2.510  -0.000   0.000
   35   11    7   14        3       0.628   1.883   0.000  -2.510  -0.000   0.000
   35   11    7    4        3       0.628   1.883   0.000  -2.510  -0.000   0.000
   41   14    7   11        3       0.628   1.883   0.000  -2.510  -0.000   0.000
   26    3    4    7        3       0.628   1.883   0.000  -2.510  -0.000   0.000
   28    4    7   11        3       0.628   1.883   0.000  -2.510  -0.000   0.000
   25    2    3    4        3       0.628   1.883   0.000  -2.510  -0.000   0.000
   36   11    7    4        3       0.628   1.883   0.000  -2.510  -0.000   0.000
   32    8    7   11        3       0.628   1.883   0.000  -2.510  -0.000   0.000
   33    8    7    4        3       0.628   1.883   0.000  -2.510  -0.000   0.000
   28    4    7   14        3       0.628   1.883   0.000  -2.510  -0.000   0.000
   33    8    7   14        3       0.628   1.883   0.000  -2.510  -0.000   0.000
   40   14    7    8        3       0.628   1.883   0.000  -2.510  -0.000   0.000
   26    3    2    1        3       0.628   1.883   0.000  -2.510  -0.000   0.000
   27    3    4    7        3       0.628   1.883   0.000  -2.510  -0.000   0.000
   28    4    3    2        3       0.628   1.883   0.000  -2.510  -0.000   0.000
   32    8    7   14        3       0.628   1.883   0.000  -2.510  -0.000   0.000
   41   14    7    4        3       0.628   1.883   0.000  -2.510  -0.000   0.000
   33    8    7   11        3       0.628   1.883   0.000  -2.510  -0.000   0.000
   32    8    7    4        3       0.628   1.883   0.000  -2.510  -0.000   0.000
   23    1    2    3        3       0.628   1.883   0.000  -2.510  -0.000   0.000
   44   18   17   42        3       0.628   1.883   0.000  -2.510  -0.000   0.000
   26    3    2   25        3       0.628   1.883   0.000  -2.510  -0.000   0.000
   28    4    3   27        3       0.628   1.883   0.000  -2.510  -0.000   0.000
   24    2    1   23        3       0.628   1.883   0.000  -2.510  -0.000   0.000
   25    2    1   22        3       0.628   1.883   0.000  -2.510  -0.000   0.000
   45   18   17   42        3       0.628   1.883   0.000  -2.510  -0.000   0.000
   28    4    3   26        3       0.628   1.883   0.000  -2.510  -0.000   0.000
   27    3    2   25        3       0.628   1.883   0.000  -2.510  -0.000   0.000
   26    3    2   24        3       0.628   1.883   0.000  -2.510  -0.000   0.000
   24    2    1   21        3       0.628   1.883   0.000  -2.510  -0.000   0.000
   25    2    1   23        3       0.628   1.883   0.000  -2.510  -0.000   0.000
   25    2    1   21        3       0.628   1.883   0.000  -2.510  -0.000   0.000
   43   18   17   42        3       0.628   1.883   0.000  -2.510  -0.000   0.000
   24    2    1   22        3       0.628   1.883   0.000  -2.510  -0.000   0.000
   27    3    2   24        3       0.628   1.883   0.000  -2.510  -0.000   0.000
   27    3    4    5        3       0.979   2.937   0.000  -3.916  -0.000   0.000
   26    3    4    5        3       0.979   2.937   0.000  -3.916  -0.000   0.000
   45   18   17   19        3       0.979   2.937   0.000  -3.916  -0.000   0.000
   44   18   17   19        3       0.979   2.937   0.000  -3.916  -0.000   0.000
   43   18   17   19        3       0.979   2.937   0.000  -3.916  -0.000   0.000
   30    6    5    4        3       1.590   4.770   0.000  -6.360  -0.000   0.000
   39   13   12   11        3       1.590   4.770   0.000  -6.360  -0.000   0.000
   28    4    5    6        3       1.590   4.770   0.000  -6.360  -0.000   0.000
   36   11   12   13        3       1.590   4.770   0.000  -6.360  -0.000   0.000
   35   11   12   13        3       1.590   4.770   0.000  -6.360  -0.000   0.000
   38   13   12   11        3       1.590   4.770   0.000  -6.360  -0.000   0.000
   37   13   12   11        3       1.590   4.770   0.000  -6.360  -0.000   0.000
   42   17   19   20        3       1.590   4.770   0.000  -6.360  -0.000   0.000
   29    6    5    4        3       1.590   4.770   0.000  -6.360  -0.000   0.000
   48   20   19   17        3       1.590   4.770   0.000  -6.360  -0.000   0.000
   47   20   19   17        3       1.590   4.770   0.000  -6.360  -0.000   0.000
   31    6    5    4        3       1.590   4.770   0.000  -6.360  -0.000   0.000
   46   20   19   17        3       1.590   4.770   0.000  -6.360  -0.000   0.000
   16   15   14    7        3       0.000   0.000   0.000  -0.000  -0.000   0.000
   10    9    8    7        3       0.000   0.000   0.000  -0.000  -0.000   0.000
   19   17   15   14        3       2.874   0.582   2.092  -5.548  -0.000   0.000
   19   17   15   16        3       0.000   0.000   0.000  -0.000  -0.000   0.000
   12   11    7    8        3       2.874   0.582   2.092  -5.548  -0.000   0.000
    5    4    3    2        3       2.874   0.582   2.092  -5.548  -0.000   0.000
   12   11    7    4        3       2.874   0.582   2.092  -5.548  -0.000   0.000

[ pairs ]
     1     4    1
     2     5    1
     3     6    1
     2     7    1
     3     8    1
     6     7    1
     5     8    1
     4     9    1
     3    11    1
     5    11    1
     4    12    1
     7    10    1
     3    14    1
     5    14    1
     4    15    1
     9    11    1
     8    12    1
     7    13    1
     9    14    1
     8    15    1
     7    16    1
     7    17    1
     3    21    1
     3    22    1
    12    14    1
    11    15    1
     3    23    1
     1    26    1
     4    24    1
     1    27    1
     4    25    1
     2    28    1
     5    26    1
    14    18    1
     5    27    1
    14    19    1
     7    26    1
     4    29    1
    16    18    1
     7    27    1
     6    28    1
     4    30    1
    16    19    1
    15    20    1
     4    31    1
     8    28    1
     4    32    1
     4    33    1
    18    20    1
    11    28    1
     4    35    1
     4    36    1
     7    34    1
    14    28    1
    10    32    1
    11    32    1
    10    33    1
     8    35    1
    11    33    1
     8    36    1
     4    40    1
    21    24    1
     4    41    1
    22    24    1
    21    25    1
    14    32    1
    23    24    1
    22    25    1
    14    33    1
    23    25    1
    13    35    1
    11    37    1
     8    40    1
    14    35    1
    13    36    1
    11    38    1
     8    41    1
    24    26    1
    14    36    1
    11    39    1
    25    26    1
    24    27    1
    11    40    1
    25    27    1
    11    41    1
    26    28    1
    27    28    1
    16    40    1
    14    42    1
    17    40    1
    16    41    1
    17    41    1
    16    42    1
    15    43    1
    15    44    1
    15    45    1
    20    42    1
    19    43    1
    19    44    1
    17    46    1
    19    45    1
    17    47    1
    17    48    1
    32    34    1
    33    34    1
    42    43    1
    42    44    1
    42    45    1

