LIGPARGEN GENERATED GRO FILE
   48
    1UNK    C00    1   0.100   0.100   0.000
    1UNK    C01    2  -0.053   0.100   0.000
    1UNK    C02    3  -0.104   0.100   0.144
    1UNK    C03    4  -0.258   0.100   0.169
    1UNK    O04    5  -0.317  -0.024   0.129
    1UNK    C05    6  -0.330  -0.046  -0.011
    1UNK    C06    7  -0.298   0.120   0.324
    1UNK    C07    8  -0.250   0.001   0.411
    1UNK    C08    9  -0.101  -0.022   0.421
    1UNK    O09   10  -0.018   0.064   0.447
    1UNK    C0A   11  -0.244   0.256   0.376
    1UNK    O0B   12  -0.285   0.275   0.511
    1UNK    C0C   13  -0.232   0.394   0.567
    1UNK    C0D   14  -0.456   0.125   0.331
    1UNK    C0E   15  -0.521   0.126   0.470
    1UNK    O0F   16  -0.517   0.024   0.540
    1UNK    C0G   17  -0.599   0.252   0.515
    1UNK    C0H   18  -0.722   0.270   0.425
    1UNK    O0I   19  -0.639   0.238   0.652
    1UNK    C0J   20  -0.702   0.351   0.709
    1UNK    H0K   21   0.138   0.090  -0.102
    1UNK    H0M   22   0.139   0.016   0.059
    1UNK    H0N   23   0.139   0.193   0.043
    1UNK    H0O   24  -0.084   0.010  -0.053
    1UNK    H0P   25  -0.090   0.187  -0.055
    1UNK    H0Q   26  -0.060   0.187   0.193
    1UNK    H0R   27  -0.062   0.010   0.189
    1UNK    H0S   28  -0.303   0.182   0.112
    1UNK    H0T   29  -0.424  -0.098  -0.030
    1UNK    H0U   30  -0.249  -0.112  -0.044
    1UNK    H0V   31  -0.329   0.047  -0.069
    1UNK    H0W   32  -0.293  -0.093   0.373
    1UNK    H0X   33  -0.282   0.010   0.515
    1UNK    H0Y   34  -0.069  -0.127   0.404
    1UNK    H0Z   35  -0.284   0.338   0.315
    1UNK    H10   36  -0.135   0.261   0.372
    1UNK    H11   37  -0.256   0.396   0.674
    1UNK    H12   38  -0.277   0.482   0.519
    1UNK    H13   39  -0.123   0.398   0.556
    1UNK    H14   40  -0.499   0.038   0.281
    1UNK    H15   41  -0.491   0.213   0.275
    1UNK    H16   42  -0.533   0.339   0.506
    1UNK    H17   43  -0.791   0.186   0.438
    1UNK    H18   44  -0.696   0.277   0.320
    1UNK    H19   45  -0.778   0.361   0.451
    1UNK    H1A   46  -0.707   0.336   0.818
    1UNK    H1B   47  -0.805   0.360   0.673
    1UNK    H1C   48  -0.647   0.443   0.690
   1.00000   1.00000   1.00000

