LIGPARGEN GENERATED GRO FILE
   53
    1UNK    C00    1   0.100   0.100   0.000
    1UNK    C01    2  -0.052   0.100   0.000
    1UNK    C02    3  -0.106   0.100   0.143
    1UNK    C03    4  -0.259   0.100   0.144
    1UNK    C04    5  -0.311   0.100   0.288
    1UNK    C05    6  -0.463   0.100   0.292
    1UNK    C06    7  -0.513   0.100   0.437
    1UNK    C07    8  -0.666   0.100   0.440
    1UNK    C08    9  -0.725   0.100   0.582
    1UNK    C09   10  -0.684   0.225   0.660
    1UNK    C0A   11  -0.880   0.081   0.582
    1UNK    C0B   12  -0.954   0.194   0.508
    1UNK    C0C   13  -0.926  -0.055   0.523
    1UNK    C0D   14  -0.871  -0.176   0.598
    1UNK    C0E   15  -0.920  -0.307   0.535
    1UNK    C0F   16  -0.865  -0.428   0.610
    1UNK    C0G   17  -0.913  -0.558   0.549
    1UNK    H0H   18   0.138   0.100  -0.103
    1UNK    H0I   19   0.139   0.011   0.051
    1UNK    H0J   20   0.139   0.189   0.051
    1UNK    H0K   21  -0.088   0.012  -0.054
    1UNK    H0M   22  -0.088   0.188  -0.054
    1UNK    H0N   23  -0.069   0.188   0.196
    1UNK    H0O   24  -0.069   0.012   0.196
    1UNK    H0P   25  -0.297   0.012   0.091
    1UNK    H0Q   26  -0.297   0.188   0.091
    1UNK    H0R   27  -0.272   0.188   0.341
    1UNK    H0S   28  -0.273   0.011   0.340
    1UNK    H0T   29  -0.501   0.012   0.239
    1UNK    H0U   30  -0.501   0.188   0.240
    1UNK    H0V   31  -0.473   0.188   0.488
    1UNK    H0W   32  -0.475   0.011   0.489
    1UNK    H0X   33  -0.700   0.011   0.386
    1UNK    H0Y   34  -0.702   0.187   0.384
    1UNK    H0Z   35  -0.681   0.016   0.637
    1UNK    H10   36  -0.713   0.317   0.608
    1UNK    H11   37  -0.576   0.228   0.677
    1UNK    H12   38  -0.731   0.226   0.759
    1UNK    H13   39  -0.914   0.084   0.686
    1UNK    H14   40  -0.928   0.197   0.402
    1UNK    H15   41  -0.930   0.292   0.551
    1UNK    H16   42  -1.062   0.180   0.515
    1UNK    H17   43  -0.900  -0.061   0.417
    1UNK    H18   44  -1.036  -0.059   0.527
    1UNK    H19   45  -0.903  -0.171   0.703
    1UNK    H1A   46  -0.762  -0.176   0.596
    1UNK    H1B   47  -0.888  -0.311   0.430
    1UNK    H1C   48  -1.030  -0.310   0.536
    1UNK    H1D   49  -0.896  -0.424   0.715
    1UNK    H1E   50  -0.755  -0.425   0.609
    1UNK    H1F   51  -1.022  -0.565   0.551
    1UNK    H1G   52  -0.873  -0.643   0.604
    1UNK    H1H   53  -0.880  -0.567   0.445
   1.00000   1.00000   1.00000

