LIGPARGEN GENERATED GRO FILE
   26
    1UNK    C00    1   0.100   0.100   0.000
    1UNK    C01    2  -0.052   0.100   0.000
    1UNK    C02    3  -0.107   0.100   0.143
    1UNK    C03    4  -0.262   0.100   0.158
    1UNK    Cl0    5  -0.326   0.252   0.081
    1UNK    C05    6  -0.330  -0.019   0.085
    1UNK    C06    7  -0.296  -0.157   0.142
    1UNK    C07    8  -0.296   0.105   0.309
    1UNK    C08    9  -0.444   0.106   0.346
    1UNK    H09   10   0.138   0.100  -0.103
    1UNK    H0A   11   0.139   0.011   0.051
    1UNK    H0B   12   0.139   0.189   0.051
    1UNK    H0C   13  -0.087   0.012  -0.055
    1UNK    H0D   14  -0.087   0.188  -0.055
    1UNK    H0E   15  -0.067   0.188   0.195
    1UNK    H0F   16  -0.066   0.013   0.196
    1UNK    H0G   17  -0.303  -0.018  -0.021
    1UNK    H0H   18  -0.439  -0.007   0.087
    1UNK    H0I   19  -0.189  -0.172   0.151
    1UNK    H0J   20  -0.335  -0.234   0.075
    1UNK    H0K   21  -0.342  -0.171   0.240
    1UNK    H0M   22  -0.249   0.195   0.353
    1UNK    H0N   23  -0.249   0.020   0.360
    1UNK    H0O   24  -0.496   0.192   0.302
    1UNK    H0P   25  -0.454   0.114   0.455
    1UNK    H0Q   26  -0.494   0.015   0.314
   1.00000   1.00000   1.00000

