LIGPARGEN GENERATED GRO FILE
   38
    1UNK    C00    1   0.100   0.100   0.000
    1UNK    O01    2  -0.042   0.100   0.000
    1UNK    S02    3  -0.109   0.100   0.146
    1UNK    O03    4  -0.062   0.223   0.219
    1UNK    C04    5  -0.281   0.130   0.084
    1UNK    C05    6  -0.374   0.147   0.205
    1UNK    C06    7  -0.290   0.251  -0.012
    1UNK    C07    8  -0.251   0.390   0.041
    1UNK    C08    9  -0.268   0.492  -0.068
    1UNK    O09   10  -0.317   0.467  -0.178
    1UNK    O0A   11  -0.222   0.614  -0.028
    1UNK    C0B   12  -0.221   0.724  -0.123
    1UNK    C0C   13  -0.363   0.761  -0.168
    1UNK    C0D   14  -0.162   0.844  -0.046
    1UNK    C0E   15  -0.128   0.693  -0.241
    1UNK    C0F   16  -0.321   0.003   0.007
    1UNK    F0G   17  -0.316  -0.106   0.087
    1UNK    F0H   18  -0.451   0.013  -0.035
    1UNK    H0I   19   0.134   0.084  -0.103
    1UNK    H0J   20   0.140   0.019   0.062
    1UNK    H0K   21   0.139   0.197   0.034
    1UNK    H0M   22  -0.346   0.233   0.266
    1UNK    H0N   23  -0.371   0.059   0.270
    1UNK    H0O   24  -0.478   0.161   0.173
    1UNK    H0P   25  -0.395   0.257  -0.047
    1UNK    H0Q   26  -0.231   0.231  -0.102
    1UNK    H0R   27  -0.146   0.391   0.070
    1UNK    H0S   28  -0.314   0.419   0.126
    1UNK    H0T   29  -0.426   0.782  -0.082
    1UNK    H0U   30  -0.411   0.680  -0.224
    1UNK    H0V   31  -0.362   0.849  -0.233
    1UNK    H0W   32  -0.224   0.869   0.041
    1UNK    H0X   33  -0.155   0.933  -0.110
    1UNK    H0Y   34  -0.062   0.821  -0.008
    1UNK    H0Z   35  -0.164   0.609  -0.301
    1UNK    H10   36  -0.028   0.665  -0.205
    1UNK    H11   37  -0.118   0.779  -0.308
    1UNK    H12   38  -0.259  -0.016  -0.081
   1.00000   1.00000   1.00000

