LIGPARGEN GENERATED GRO FILE
   35
    1UNK    C00    1   0.100   0.100   0.000
    1UNK    C01    2  -0.052   0.100   0.000
    1UNK    C02    3  -0.112   0.100   0.138
    1UNK    C03    4  -0.099   0.213   0.239
    1UNK    C04    5  -0.020   0.341   0.219
    1UNK    C05    6  -0.011   0.451   0.322
    1UNK    C06    7  -0.034   0.432   0.470
    1UNK    C07    8   0.105   0.393   0.523
    1UNK    C08    9   0.164   0.307   0.410
    1UNK    C09   10   0.112   0.373   0.285
    1UNK    C0A   11  -0.234   0.185   0.172
    1UNK    C0B   12  -0.289   0.282   0.070
    1UNK    C0C   13  -0.342   0.122   0.256
    1UNK    H0D   14   0.137   0.100  -0.103
    1UNK    H0E   15   0.140   0.012   0.051
    1UNK    H0F   16   0.140   0.189   0.049
    1UNK    H0G   17  -0.087   0.010  -0.051
    1UNK    H0H   18  -0.086   0.184  -0.061
    1UNK    H0I   19  -0.107  -0.000   0.180
    1UNK    H0J   20  -0.092   0.176   0.342
    1UNK    H0K   21  -0.025   0.378   0.116
    1UNK    H0M   22  -0.017   0.554   0.290
    1UNK    H0N   23  -0.106   0.353   0.489
    1UNK    H0O   24  -0.069   0.524   0.518
    1UNK    H0P   25   0.101   0.340   0.619
    1UNK    H0Q   26   0.166   0.483   0.535
    1UNK    H0R   27   0.129   0.204   0.418
    1UNK    H0S   28   0.273   0.308   0.414
    1UNK    H0T   29   0.189   0.423   0.228
    1UNK    H0U   30  -0.212   0.337   0.015
    1UNK    H0V   31  -0.353   0.356   0.119
    1UNK    H0W   32  -0.350   0.228  -0.004
    1UNK    H0X   33  -0.301   0.053   0.331
    1UNK    H0Y   34  -0.412   0.067   0.193
    1UNK    H0Z   35  -0.397   0.200   0.310
   1.00000   1.00000   1.00000

