LIGPARGEN GENERATED GRO FILE
   45
    1UNK    C00    1   0.100   0.100   0.000
    1UNK    C01    2  -0.053   0.100   0.000
    1UNK    C02    3  -0.106   0.100   0.145
    1UNK    C03    4  -0.259   0.091   0.154
    1UNK    C04    5  -0.312   0.097   0.298
    1UNK    N05    6  -0.272   0.218   0.373
    1UNK    C06    7  -0.320   0.341   0.311
    1UNK    C07    8  -0.322   0.209   0.511
    1UNK    C08    9  -0.104   0.221  -0.078
    1UNK    O09   10  -0.063   0.213  -0.215
    1UNK    C0A   11  -0.166   0.210  -0.303
    1UNK    O0B   12  -0.281   0.177  -0.280
    1UNK    O0C   13  -0.125   0.274  -0.416
    1UNK    C0D   14  -0.219   0.375  -0.455
    1UNK    C0E   15  -0.218   0.491  -0.354
    1UNK    N0F   16  -0.085   0.542  -0.318
    1UNK    C0G   17   0.015   0.567  -0.420
    1UNK    C0H   18  -0.063   0.593  -0.192
    1UNK    O0I   19  -0.144   0.594  -0.100
    1UNK    H0J   20   0.139   0.011   0.051
    1UNK    H0K   21   0.139   0.189   0.051
    1UNK    H0M   22   0.140   0.100  -0.102
    1UNK    H0N   23  -0.086   0.008  -0.051
    1UNK    H0O   24  -0.070   0.191   0.195
    1UNK    H0P   25  -0.063   0.015   0.199
    1UNK    H0Q   26  -0.292  -0.004   0.109
    1UNK    H0R   27  -0.307   0.170   0.097
    1UNK    H0S   28  -0.274   0.009   0.351
    1UNK    H0T   29  -0.421   0.089   0.295
    1UNK    H0U   30  -0.272   0.358   0.213
    1UNK    H0V   31  -0.293   0.428   0.372
    1UNK    H0W   32  -0.428   0.341   0.297
    1UNK    H0X   33  -0.283   0.120   0.560
    1UNK    H0Y   34  -0.432   0.206   0.514
    1UNK    H0Z   35  -0.288   0.295   0.569
    1UNK    H10   36  -0.062   0.314  -0.037
    1UNK    H11   37  -0.213   0.232  -0.070
    1UNK    H12   38  -0.320   0.333  -0.466
    1UNK    H13   39  -0.189   0.410  -0.554
    1UNK    H14   40  -0.266   0.458  -0.261
    1UNK    H15   41  -0.277   0.575  -0.392
    1UNK    H16   42  -0.014   0.528  -0.517
    1UNK    H17   43   0.109   0.520  -0.389
    1UNK    H18   44   0.032   0.675  -0.428
    1UNK    H19   45   0.038   0.636  -0.179
   1.00000   1.00000   1.00000

