
;
; GENERATED BY LigParGen Server
; Jorgensen Lab @ Yale University 
;
[ atomtypes ]
  opls_814  C814    12.0110     0.000    A    3.50000E-01   2.76144E-01
  opls_824  H824     1.0080     0.000    A    2.50000E-01   1.25520E-01
  opls_809  O809    15.9990     0.000    A    2.90000E-01   5.85760E-01
  opls_815  N815    14.0070     0.000    A    3.25000E-01   7.11280E-01
  opls_817  C817    12.0110     0.000    A    3.55000E-01   2.92880E-01
  opls_843  H843     1.0080     0.000    A    2.50000E-01   1.25520E-01
  opls_836  H836     1.0080     0.000    A    2.50000E-01   1.25520E-01
  opls_834  H834     1.0080     0.000    A    2.50000E-01   1.25520E-01
  opls_828  H828     1.0080     0.000    A    2.50000E-01   1.25520E-01
  opls_812  O812    15.9990     0.000    A    2.90000E-01   5.85760E-01
  opls_802  C802    12.0110     0.000    A    3.50000E-01   2.76144E-01
  opls_818  O818    15.9990     0.000    A    2.96000E-01   8.78640E-01
  opls_827  H827     1.0080     0.000    A    2.50000E-01   1.25520E-01
  opls_801  C801    12.0110     0.000    A    3.50000E-01   2.76144E-01
  opls_838  H838     1.0080     0.000    A    2.50000E-01   1.25520E-01
  opls_811  O811    15.9990     0.000    A    2.96000E-01   8.78640E-01
  opls_822  H822     1.0080     0.000    A    2.50000E-01   1.25520E-01
  opls_803  C803    12.0110     0.000    A    3.50000E-01   2.76144E-01
  opls_825  H825     1.0080     0.000    A    2.50000E-01   1.25520E-01
  opls_830  H830     1.0080     0.000    A    2.50000E-01   1.25520E-01
  opls_804  C804    12.0110     0.000    A    3.50000E-01   2.76144E-01
  opls_842  H842     1.0080     0.000    A    2.50000E-01   1.25520E-01
  opls_820  H820     1.0080     0.000    A    2.50000E-01   1.25520E-01
  opls_837  H837     1.0080     0.000    A    2.50000E-01   1.25520E-01
  opls_821  H821     1.0080     0.000    A    2.50000E-01   1.25520E-01
  opls_831  H831     1.0080     0.000    A    2.50000E-01   1.25520E-01
  opls_810  C810    12.0110     0.000    A    3.55000E-01   2.92880E-01
  opls_805  N805    14.0070     0.000    A    3.30000E-01   7.11280E-01
  opls_832  H832     1.0080     0.000    A    2.50000E-01   1.25520E-01
  opls_800  C800    12.0110     0.000    A    3.50000E-01   2.76144E-01
  opls_806  C806    12.0110     0.000    A    3.50000E-01   2.76144E-01
  opls_823  H823     1.0080     0.000    A    2.50000E-01   1.25520E-01
  opls_813  C813    12.0110     0.000    A    3.50000E-01   2.76144E-01
  opls_826  H826     1.0080     0.000    A    2.50000E-01   1.25520E-01
  opls_835  H835     1.0080     0.000    A    2.50000E-01   1.25520E-01
  opls_841  H841     1.0080     0.000    A    2.50000E-01   1.25520E-01
  opls_819  H819     1.0080     0.000    A    2.50000E-01   1.25520E-01
  opls_816  C816    12.0110     0.000    A    3.50000E-01   2.76144E-01
  opls_833  H833     1.0080     0.000    A    2.50000E-01   1.25520E-01
  opls_839  H839     1.0080     0.000    A    2.50000E-01   1.25520E-01
  opls_808  C808    12.0110     0.000    A    3.50000E-01   2.76144E-01
  opls_840  H840     1.0080     0.000    A    2.50000E-01   1.25520E-01
  opls_829  H829     1.0080     0.000    A    2.50000E-01   1.25520E-01
  opls_844  H844     1.0080     0.000    A    2.50000E-01   1.25520E-01
  opls_807  C807    12.0110     0.000    A    3.50000E-01   2.76144E-01
[ moleculetype ]
; Name               nrexcl
UNK                   3
[ atoms ]
;   nr       type  resnr residue  atom   cgnr     charge       mass  
     1   opls_800      1    UNK   C00      1    -0.2367    12.0110 
     2   opls_801      1    UNK   C01      1    -0.1365    12.0110 
     3   opls_802      1    UNK   C02      1    -0.1673    12.0110 
     4   opls_803      1    UNK   C03      1     -0.179    12.0110 
     5   opls_804      1    UNK   C04      1     0.0102    12.0110 
     6   opls_805      1    UNK   N05      1     -0.577    14.0070 
     7   opls_806      1    UNK   C06      1    -0.0546    12.0110 
     8   opls_807      1    UNK   C07      1    -0.0522    12.0110 
     9   opls_808      1    UNK   C08      1     0.0096    12.0110 
    10   opls_809      1    UNK   O09      1    -0.3318    15.9990 
    11   opls_810      1    UNK   C0A      1     0.5836    12.0110 
    12   opls_811      1    UNK   O0B      1    -0.4681    15.9990 
    13   opls_812      1    UNK   O0C      1    -0.3355    15.9990 
    14   opls_813      1    UNK   C0D      1     0.0078    12.0110 
    15   opls_814      1    UNK   C0E      1     0.0884    12.0110 
    16   opls_815      1    UNK   N0F      1     -0.943    14.0070 
    17   opls_816      1    UNK   C0G      1     0.0892    12.0110 
    18   opls_817      1    UNK   C0H      1     0.5395    12.0110 
    19   opls_818      1    UNK   O0I      1      -0.45    15.9990 
    20   opls_819      1    UNK   H0J      1     0.0869     1.0080 
    21   opls_820      1    UNK   H0K      1     0.0869     1.0080 
    22   opls_821      1    UNK   H0M      1     0.0869     1.0080 
    23   opls_822      1    UNK   H0N      1     0.1114     1.0080 
    24   opls_823      1    UNK   H0O      1     0.1052     1.0080 
    25   opls_824      1    UNK   H0P      1     0.1052     1.0080 
    26   opls_825      1    UNK   H0Q      1     0.0932     1.0080 
    27   opls_826      1    UNK   H0R      1     0.0932     1.0080 
    28   opls_827      1    UNK   H0S      1     0.0819     1.0080 
    29   opls_828      1    UNK   H0T      1     0.0819     1.0080 
    30   opls_829      1    UNK   H0U      1      0.084     1.0080 
    31   opls_830      1    UNK   H0V      1      0.084     1.0080 
    32   opls_831      1    UNK   H0W      1      0.084     1.0080 
    33   opls_832      1    UNK   H0X      2      0.081     1.0080 
    34   opls_833      1    UNK   H0Y      2      0.081     1.0080 
    35   opls_834      1    UNK   H0Z      2      0.081     1.0080 
    36   opls_835      1    UNK   H10      2     0.1236     1.0080 
    37   opls_836      1    UNK   H11      2     0.1236     1.0080 
    38   opls_837      1    UNK   H12      2     0.1307     1.0080 
    39   opls_838      1    UNK   H13      2     0.1307     1.0080 
    40   opls_839      1    UNK   H14      2     0.1204     1.0080 
    41   opls_840      1    UNK   H15      2     0.1204     1.0080 
    42   opls_841      1    UNK   H16      2     0.0939     1.0080 
    43   opls_842      1    UNK   H17      2     0.0939     1.0080 
    44   opls_843      1    UNK   H18      2     0.0939     1.0080 
    45   opls_844      1    UNK   H19      2     0.1446     1.0080 
[ bonds ]
    2     1     1      0.1529 224262.400
    3     2     1      0.1529 224262.400
    4     3     1      0.1529 224262.400
    5     4     1      0.1529 224262.400
    6     5     1      0.1448 319657.600
    7     6     1      0.1448 319657.600
    8     6     1      0.1448 319657.600
    9     2     1      0.1529 224262.400
   10     9     1      0.1410 267776.000
   11    10     1      0.1327 179075.200
   12    11     1      0.1229 476976.000
   13    11     1      0.1327 179075.200
   14    13     1      0.1410 267776.000
   15    14     1      0.1529 224262.400
   16    15     1      0.1449 282001.600
   17    16     1      0.1449 282001.600
   18    16     1      0.1335 410032.000
   19    18     1      0.1229 476976.000
   20     1     1      0.1090 284512.000
   21     1     1      0.1090 284512.000
   22     1     1      0.1090 284512.000
   23     2     1      0.1090 284512.000
   24     3     1      0.1090 284512.000
   25     3     1      0.1090 284512.000
   26     4     1      0.1090 284512.000
   27     4     1      0.1090 284512.000
   28     5     1      0.1090 284512.000
   29     5     1      0.1090 284512.000
   30     7     1      0.1090 284512.000
   31     7     1      0.1090 284512.000
   32     7     1      0.1090 284512.000
   33     8     1      0.1090 284512.000
   34     8     1      0.1090 284512.000
   35     8     1      0.1090 284512.000
   36     9     1      0.1090 284512.000
   37     9     1      0.1090 284512.000
   38    14     1      0.1090 284512.000
   39    14     1      0.1090 284512.000
   40    15     1      0.1090 284512.000
   41    15     1      0.1090 284512.000
   42    17     1      0.1090 284512.000
   43    17     1      0.1090 284512.000
   44    17     1      0.1090 284512.000
   45    18     1      0.1090 284512.000

[ angles ]
;  ai    aj    ak funct            c0            c1            c2            c3 
    1     2     3     1    112.700    488.273
    2     3     4     1    112.700    488.273
    3     4     5     1    112.700    488.273
    4     5     6     1    109.470    470.282
    5     6     7     1    107.200    433.462
    5     6     8     1    107.200    433.462
    1     2     9     1    112.700    488.273
    2     9    10     1    109.500    418.400
    9    10    11     1    116.900    694.544
   10    11    12     1    123.400    694.544
   10    11    13     1    118.180    584.923
   11    13    14     1    116.900    694.544
   13    14    15     1    109.500    418.400
   14    15    16     1    109.700    669.440
   15    16    17     1    118.000    418.400
   15    16    18     1    121.900    418.400
   16    18    19     1    122.900    669.440
    2     1    20     1    110.700    313.800
    2     1    21     1    110.700    313.800
    2     1    22     1    110.700    313.800
    1     2    23     1    110.700    313.800
    2     3    24     1    110.700    313.800
    2     3    25     1    110.700    313.800
    3     4    26     1    110.700    313.800
    3     4    27     1    110.700    313.800
    4     5    28     1    110.700    313.800
    4     5    29     1    110.700    313.800
    6     7    30     1    109.500    292.880
    6     7    31     1    109.500    292.880
    6     7    32     1    109.500    292.880
    6     8    33     1    109.500    292.880
    6     8    34     1    109.500    292.880
    6     8    35     1    109.500    292.880
    2     9    36     1    110.700    313.800
    2     9    37     1    110.700    313.800
   13    14    38     1    109.500    292.880
   13    14    39     1    109.500    292.880
   14    15    40     1    110.700    313.800
   14    15    41     1    110.700    313.800
   16    17    42     1    109.500    292.880
   16    17    43     1    109.500    292.880
   16    17    44     1    109.500    292.880
   16    18    45     1    114.000    334.720
   34     8    35     1    107.800    276.144
    6     5    29     1    109.500    292.880
   40    15    41     1    107.800    276.144
   28     5    29     1    107.800    276.144
   19    18    45     1    123.000    292.880
    5     4    26     1    110.700    313.800
   42    17    44     1    107.800    276.144
   42    17    43     1    107.800    276.144
   16    15    40     1    109.500    292.880
    9     2    23     1    110.700    313.800
   16    15    41     1    109.500    292.880
   33     8    35     1    107.800    276.144
    3     2    23     1    110.700    313.800
   26     4    27     1    107.800    276.144
   20     1    22     1    107.800    276.144
   30     7    32     1    107.800    276.144
   33     8    34     1    107.800    276.144
   10     9    37     1    109.500    292.880
   31     7    32     1    107.800    276.144
    4     3    25     1    110.700    313.800
    4     3    24     1    110.700    313.800
    7     6     8     1    107.200    433.462
   10     9    36     1    109.500    292.880
   36     9    37     1    107.800    276.144
   43    17    44     1    107.800    276.144
   17    16    18     1    121.900    418.400
   24     3    25     1    107.800    276.144
   38    14    39     1    107.800    276.144
    3     2     9     1    112.700    488.273
   15    14    38     1    110.700    313.800
   20     1    21     1    107.800    276.144
    5     4    27     1    110.700    313.800
   21     1    22     1    107.800    276.144
    6     5    28     1    109.500    292.880
   15    14    39     1    110.700    313.800
   12    11    13     1    123.400    694.544
   30     7    31     1    107.800    276.144

[ dihedrals ]
; IMPROPER DIHEDRAL ANGLES 
;  ai    aj    ak    al funct            c0            c1            c2            c3            c4            c5
    18    16    15    17    4        180.000     10.460     2  
    45    18    16    19    4        180.000     43.932     2  
    13    11    10    12    4        180.000     43.932     2  

[ dihedrals ]
; PROPER DIHEDRAL ANGLES
;  ai    aj    ak    al funct            c0            c1            c2            c3            c4            c5
   18   16   15   14        3       1.933   0.000  -1.933  -0.000  -0.000   0.000
   11   10    9    2        3      -2.197   5.201   0.527  -3.531  -0.000   0.000
    4    3    2    1        3       2.301  -1.464   0.837  -1.674  -0.000   0.000
    5    4    3    2        3       2.301  -1.464   0.837  -1.674  -0.000   0.000
    9    2    3    4        3       2.301  -1.464   0.837  -1.674  -0.000   0.000
   15   14   13   11        3      -2.197   5.201   0.527  -3.531  -0.000   0.000
   17   16   15   14        3       6.872  -9.943   3.071  -0.000  -0.000   0.000
    7    6    5    4        3       1.789   3.492   0.536  -5.816  -0.000   0.000
    8    6    5    4        3       1.789   3.492   0.536  -5.816  -0.000   0.000
   14   13   11   12        3      21.439   0.000  -21.439  -0.000  -0.000   0.000
   14   13   11   10        3      31.206  -9.768  -21.439  -0.000  -0.000   0.000
   45   18   16   15        3      30.288  -4.812  -25.476  -0.000  -0.000   0.000
   45   18   16   17        3      30.288  -4.812  -25.476  -0.000  -0.000   0.000
   25    3    4    5        3       0.628   1.883   0.000  -2.510  -0.000   0.000
   22    1    2    9        3       0.628   1.883   0.000  -2.510  -0.000   0.000
   24    3    2    9        3       0.628   1.883   0.000  -2.510  -0.000   0.000
   25    3    2    1        3       0.628   1.883   0.000  -2.510  -0.000   0.000
   20    1    2    9        3       0.628   1.883   0.000  -2.510  -0.000   0.000
   23    2    3    4        3       0.628   1.883   0.000  -2.510  -0.000   0.000
   37    9    2    3        3       0.628   1.883   0.000  -2.510  -0.000   0.000
   26    4    3    2        3       0.628   1.883   0.000  -2.510  -0.000   0.000
   24    3    2    1        3       0.628   1.883   0.000  -2.510  -0.000   0.000
   36    9    2    1        3       0.628   1.883   0.000  -2.510  -0.000   0.000
   21    1    2    3        3       0.628   1.883   0.000  -2.510  -0.000   0.000
   21    1    2    9        3       0.628   1.883   0.000  -2.510  -0.000   0.000
   24    3    4    5        3       0.628   1.883   0.000  -2.510  -0.000   0.000
   29    5    4    3        3       0.628   1.883   0.000  -2.510  -0.000   0.000
   27    4    3    2        3       0.628   1.883   0.000  -2.510  -0.000   0.000
   22    1    2    3        3       0.628   1.883   0.000  -2.510  -0.000   0.000
   37    9    2    1        3       0.628   1.883   0.000  -2.510  -0.000   0.000
   25    3    2    9        3       0.628   1.883   0.000  -2.510  -0.000   0.000
   36    9    2    3        3       0.628   1.883   0.000  -2.510  -0.000   0.000
   28    5    4    3        3       0.628   1.883   0.000  -2.510  -0.000   0.000
   20    1    2    3        3       0.628   1.883   0.000  -2.510  -0.000   0.000
   27    4    3   24        3       0.628   1.883   0.000  -2.510  -0.000   0.000
   40   15   14   39        3       0.628   1.883   0.000  -2.510  -0.000   0.000
   41   15   14   38        3       0.628   1.883   0.000  -2.510  -0.000   0.000
   26    4    3   24        3       0.628   1.883   0.000  -2.510  -0.000   0.000
   41   15   14   39        3       0.628   1.883   0.000  -2.510  -0.000   0.000
   26    4    3   25        3       0.628   1.883   0.000  -2.510  -0.000   0.000
   27    4    3   25        3       0.628   1.883   0.000  -2.510  -0.000   0.000
   36    9    2   23        3       0.628   1.883   0.000  -2.510  -0.000   0.000
   37    9    2   23        3       0.628   1.883   0.000  -2.510  -0.000   0.000
   40   15   14   38        3       0.628   1.883   0.000  -2.510  -0.000   0.000
   23    2    1   22        3       0.628   1.883   0.000  -2.510  -0.000   0.000
   29    5    4   27        3       0.628   1.883   0.000  -2.510  -0.000   0.000
   24    3    2   23        3       0.628   1.883   0.000  -2.510  -0.000   0.000
   28    5    4   26        3       0.628   1.883   0.000  -2.510  -0.000   0.000
   23    2    1   20        3       0.628   1.883   0.000  -2.510  -0.000   0.000
   29    5    4   26        3       0.628   1.883   0.000  -2.510  -0.000   0.000
   28    5    4   27        3       0.628   1.883   0.000  -2.510  -0.000   0.000
   23    2    1   21        3       0.628   1.883   0.000  -2.510  -0.000   0.000
   25    3    2   23        3       0.628   1.883   0.000  -2.510  -0.000   0.000
   38   14   15   16        3       0.971   2.912   0.000  -3.883  -0.000   0.000
   39   14   15   16        3       0.971   2.912   0.000  -3.883  -0.000   0.000
   27    4    5    6        3      -4.096   5.088   2.966  -3.958  -0.000   0.000
   26    4    5    6        3      -4.096   5.088   2.966  -3.958  -0.000   0.000
   23    2    9   10        3       0.979   2.937   0.000  -3.916  -0.000   0.000
   41   15   14   13        3       0.979   2.937   0.000  -3.916  -0.000   0.000
   40   15   14   13        3       0.979   2.937   0.000  -3.916  -0.000   0.000
   41   15   16   18        3       0.000   0.000   0.000  -0.000  -0.000   0.000
   43   17   16   18        3       0.000   0.000   0.000  -0.000  -0.000   0.000
   44   17   16   18        3       0.000   0.000   0.000  -0.000  -0.000   0.000
   42   17   16   18        3       0.000   0.000   0.000  -0.000  -0.000   0.000
   40   15   16   18        3       0.000   0.000   0.000  -0.000  -0.000   0.000
   43   17   16   15        3       0.000   0.000   0.000  -0.000  -0.000   0.000
   40   15   16   17        3       0.000   0.000   0.000  -0.000  -0.000   0.000
   42   17   16   15        3       0.000   0.000   0.000  -0.000  -0.000   0.000
   41   15   16   17        3       0.000   0.000   0.000  -0.000  -0.000   0.000
   44   17   16   15        3       0.000   0.000   0.000  -0.000  -0.000   0.000
   34    8    6    7        3       1.172   3.515   0.000  -4.686  -0.000   0.000
   35    8    6    5        3       1.172   3.515   0.000  -4.686  -0.000   0.000
   33    8    6    7        3       1.172   3.515   0.000  -4.686  -0.000   0.000
   35    8    6    7        3       1.172   3.515   0.000  -4.686  -0.000   0.000
   31    7    6    5        3       1.172   3.515   0.000  -4.686  -0.000   0.000
   28    5    6    7        3       1.172   3.515   0.000  -4.686  -0.000   0.000
   29    5    6    7        3       1.172   3.515   0.000  -4.686  -0.000   0.000
   33    8    6    5        3       1.172   3.515   0.000  -4.686  -0.000   0.000
   32    7    6    5        3       1.172   3.515   0.000  -4.686  -0.000   0.000
   31    7    6    8        3       1.172   3.515   0.000  -4.686  -0.000   0.000
   32    7    6    8        3       1.172   3.515   0.000  -4.686  -0.000   0.000
   30    7    6    5        3       1.172   3.515   0.000  -4.686  -0.000   0.000
   29    5    6    8        3       1.172   3.515   0.000  -4.686  -0.000   0.000
   30    7    6    8        3       1.172   3.515   0.000  -4.686  -0.000   0.000
   34    8    6    5        3       1.172   3.515   0.000  -4.686  -0.000   0.000
   28    5    6    8        3       1.172   3.515   0.000  -4.686  -0.000   0.000
   38   14   13   11        3       0.414   1.243   0.000  -1.657  -0.000   0.000
   39   14   13   11        3       0.414   1.243   0.000  -1.657  -0.000   0.000
   36    9   10   11        3       0.414   1.243   0.000  -1.657  -0.000   0.000
   37    9   10   11        3       0.414   1.243   0.000  -1.657  -0.000   0.000
   16   15   14   13        3      11.247  -0.397   6.138  -16.987  -0.000   0.000
    6    5    4    3        3       3.335  -1.552   2.820  -4.602  -0.000   0.000
   19   18   16   15        3      25.476   0.000  -25.476  -0.000  -0.000   0.000
   19   18   16   17        3      25.476   0.000  -25.476  -0.000  -0.000   0.000
   12   11   10    9        3      21.439   0.000  -21.439  -0.000  -0.000   0.000
   13   11   10    9        3      31.206  -9.768  -21.439  -0.000  -0.000   0.000
   10    9    2    1        3       2.874   0.582   2.092  -5.548  -0.000   0.000
   10    9    2    3        3       2.874   0.582   2.092  -5.548  -0.000   0.000

[ pairs ]
     1     4    1
     2     5    1
     3     6    1
     4     7    1
     1    10    1
     4     8    1
     4     9    1
     3    10    1
     2    11    1
     9    12    1
     9    13    1
     3    20    1
    10    14    1
     3    21    1
     3    22    1
     1    24    1
    12    14    1
    11    15    1
     1    25    1
     4    23    1
     2    26    1
    13    16    1
     9    20    1
     5    24    1
     2    27    1
     9    21    1
     5    25    1
    14    17    1
     9    22    1
     3    28    1
    14    18    1
     6    26    1
     3    29    1
    10    23    1
     9    24    1
     6    27    1
    15    19    1
     9    25    1
     7    28    1
     5    30    1
    17    19    1
     8    28    1
     7    29    1
     5    31    1
     8    29    1
     5    32    1
     1    36    1
     8    30    1
     5    33    1
     1    37    1
     8    31    1
     5    34    1
     3    36    1
     8    32    1
     7    33    1
     5    35    1
     3    37    1
     7    34    1
     7    35    1
    20    23    1
    21    23    1
    22    23    1
    23    24    1
    11    36    1
    23    25    1
    11    37    1
    11    38    1
    24    26    1
    11    39    1
    25    26    1
    24    27    1
    25    27    1
    13    40    1
    26    28    1
    16    38    1
    13    41    1
    27    28    1
    26    29    1
    16    39    1
    27    29    1
    17    40    1
    15    42    1
    18    40    1
    17    41    1
    15    43    1
    23    36    1
    18    41    1
    15    44    1
    23    37    1
    18    42    1
    15    45    1
    18    43    1
    18    44    1
    17    45    1
    38    40    1
    39    40    1
    38    41    1
    39    41    1

