LIGPARGEN GENERATED GRO FILE
   34
    1UNK    C00    1   0.100   0.100   0.000
    1UNK    C01    2  -0.056   0.100   0.000
    1UNK    C02    3  -0.107   0.100   0.144
    1UNK    C03    4  -0.255   0.072   0.173
    1UNK    C04    5  -0.255   0.050   0.327
    1UNK    C05    6  -0.377   0.006   0.394
    1UNK    C06    7  -0.383   0.018   0.542
    1UNK    C07    8  -0.302  -0.091   0.477
    1UNK    C08    9  -0.180  -0.089   0.379
    1UNK    C09   10  -0.044  -0.015   0.368
    1UNK    C0A   11   0.087  -0.101   0.348
    1UNK    C0B   12   0.112  -0.002   0.225
    1UNK    C0C   13   0.161  -0.018   0.082
    1UNK    C0D   14  -0.040  -0.015   0.213
    1UNK    H0E   15   0.134   0.195   0.044
    1UNK    H0F   16   0.137   0.097  -0.103
    1UNK    H0G   17  -0.091   0.012  -0.055
    1UNK    H0H   18  -0.093   0.189  -0.053
    1UNK    H0I   19  -0.079   0.195   0.190
    1UNK    H0J   20  -0.290  -0.019   0.122
    1UNK    H0K   21  -0.319   0.155   0.144
    1UNK    H0M   22  -0.224   0.145   0.374
    1UNK    H0N   23  -0.457  -0.033   0.332
    1UNK    H0O   24  -0.475  -0.009   0.592
    1UNK    H0P   25  -0.330   0.100   0.589
    1UNK    H0Q   26  -0.342  -0.192   0.483
    1UNK    H0R   27  -0.142  -0.145   0.468
    1UNK    H0S   28  -0.028   0.079   0.423
    1UNK    H0T   29   0.073  -0.206   0.321
    1UNK    H0U   30   0.161  -0.093   0.428
    1UNK    H0V   31   0.148   0.095   0.263
    1UNK    H0W   32   0.131  -0.113   0.038
    1UNK    H0X   33   0.270  -0.012   0.079
    1UNK    H0Y   34  -0.070  -0.111   0.166
   1.00000   1.00000   1.00000

