LIGPARGEN GENERATED GRO FILE
   40
    1UNK    C00    1   0.100   0.100   0.000
    1UNK    C01    2  -0.052   0.100   0.000
    1UNK    C02    3  -0.109   0.100   0.143
    1UNK    C03    4  -0.264   0.106   0.152
    1UNK    C04    5  -0.325  -0.021   0.088
    1UNK    C05    6  -0.307   0.106   0.300
    1UNK    C06    7  -0.324   0.230   0.080
    1UNK    C07    8  -0.278   0.368   0.128
    1UNK    O08    9  -0.197   0.383   0.220
    1UNK    C09   10  -0.337   0.492   0.059
    1UNK    C0A   11  -0.288   0.494  -0.086
    1UNK    C0B   12  -0.490   0.501   0.075
    1UNK    C0C   13  -0.530   0.502   0.223
    1UNK    C0D   14  -0.548   0.625   0.007
    1UNK    H0E   15   0.137   0.100  -0.103
    1UNK    H0F   16   0.139   0.011   0.050
    1UNK    H0G   17   0.139   0.189   0.050
    1UNK    H0H   18  -0.087   0.012  -0.055
    1UNK    H0I   19  -0.086   0.188  -0.055
    1UNK    H0J   20  -0.064   0.183   0.198
    1UNK    H0K   21  -0.074   0.009   0.194
    1UNK    H0M   22  -0.284  -0.111   0.134
    1UNK    H0N   23  -0.304  -0.026  -0.020
    1UNK    H0O   24  -0.433  -0.023   0.100
    1UNK    H0P   25  -0.276   0.013   0.350
    1UNK    H0Q   26  -0.416   0.113   0.310
    1UNK    H0R   27  -0.263   0.189   0.357
    1UNK    H0S   28  -0.433   0.226   0.091
    1UNK    H0T   29  -0.304   0.223  -0.027
    1UNK    H0U   30  -0.292   0.579   0.109
    1UNK    H0V   31  -0.334   0.414  -0.146
    1UNK    H0W   32  -0.179   0.480  -0.091
    1UNK    H0X   33  -0.310   0.589  -0.135
    1UNK    H0Y   34  -0.537   0.413   0.028
    1UNK    H0Z   35  -0.487   0.589   0.275
    1UNK    H10   36  -0.497   0.412   0.275
    1UNK    H11   37  -0.639   0.507   0.233
    1UNK    H12   38  -0.502   0.717   0.047
    1UNK    H13   39  -0.656   0.632   0.024
    1UNK    H14   40  -0.532   0.623  -0.101
   1.00000   1.00000   1.00000

