LIGPARGEN GENERATED GRO FILE
   29
    1UNK    C00    1   0.100   0.100   0.000
    1UNK    S01    2  -0.081   0.100   0.000
    1UNK    C02    3  -0.109   0.100   0.181
    1UNK    C03    4  -0.258   0.089   0.216
    1UNK    C04    5  -0.312  -0.042   0.162
    1UNK    O05    6  -0.268  -0.153   0.184
    1UNK    F06    7  -0.421  -0.035   0.083
    1UNK    C07    8  -0.290   0.105   0.368
    1UNK    C08    9  -0.225  -0.006   0.453
    1UNK    C09   10  -0.252   0.246   0.426
    1UNK    C0A   11  -0.323   0.360   0.351
    1UNK    C0B   12  -0.285   0.260   0.575
    1UNK    H0C   13   0.136   0.085  -0.102
    1UNK    H0D   14   0.139   0.019   0.063
    1UNK    H0E   15   0.137   0.196   0.036
    1UNK    H0F   16  -0.067   0.194   0.219
    1UNK    H0G   17  -0.052   0.017   0.224
    1UNK    H0H   18  -0.313   0.167   0.161
    1UNK    H0I   19  -0.398   0.093   0.380
    1UNK    H0J   20  -0.115   0.001   0.451
    1UNK    H0K   21  -0.253  -0.106   0.418
    1UNK    H0M   22  -0.257  -0.002   0.557
    1UNK    H0N   23  -0.144   0.261   0.415
    1UNK    H0O   24  -0.431   0.347   0.352
    1UNK    H0P   25  -0.289   0.367   0.247
    1UNK    H0Q   26  -0.300   0.457   0.398
    1UNK    H0R   27  -0.389   0.234   0.595
    1UNK    H0S   28  -0.268   0.362   0.610
    1UNK    H0T   29  -0.221   0.195   0.636
   1.00000   1.00000   1.00000

