
;
; GENERATED BY LigParGen Server
; Jorgensen Lab @ Yale University 
;
[ atomtypes ]
  opls_818  H818     1.0080     0.000    A    2.50000E-01   1.25520E-01
  opls_824  H824     1.0080     0.000    A    2.50000E-01   1.25520E-01
  opls_805  C805    12.0110     0.000    A    3.50000E-01   2.76144E-01
  opls_813  H813     1.0080     0.000    A    2.50000E-01   1.25520E-01
  opls_802  C802    12.0110     0.000    A    3.50000E-01   2.76144E-01
  opls_815  H815     1.0080     0.000    A    2.50000E-01   1.25520E-01
  opls_801  C801    12.0110     0.000    A    3.50000E-01   2.76144E-01
  opls_822  H822     1.0080     0.000    A    2.50000E-01   1.25520E-01
  opls_803  C803    12.0110     0.000    A    3.50000E-01   2.76144E-01
  opls_825  H825     1.0080     0.000    A    2.50000E-01   1.25520E-01
  opls_814  H814     1.0080     0.000    A    2.50000E-01   1.25520E-01
  opls_821  H821     1.0080     0.000    A    2.50000E-01   1.25520E-01
  opls_820  H820     1.0080     0.000    A    2.50000E-01   1.25520E-01
  opls_811  H811     1.0080     0.000    A    2.50000E-01   1.25520E-01
  opls_810  H810     1.0080     0.000    A    2.50000E-01   1.25520E-01
  opls_816  H816     1.0080     0.000    A    2.50000E-01   1.25520E-01
  opls_800  C800    12.0110     0.000    A    3.50000E-01   2.76144E-01
  opls_806  C806    12.0110     0.000    A    3.50000E-01   2.76144E-01
  opls_823  H823     1.0080     0.000    A    2.50000E-01   1.25520E-01
  opls_826  H826     1.0080     0.000    A    2.50000E-01   1.25520E-01
  opls_819  H819     1.0080     0.000    A    2.50000E-01   1.25520E-01
  opls_804  C804    12.0110     0.000    A    3.50000E-01   2.76144E-01
  opls_808  C808    12.0110     0.000    A    3.50000E-01   2.76144E-01
  opls_817  H817     1.0080     0.000    A    2.50000E-01   1.25520E-01
  opls_812  H812     1.0080     0.000    A    2.50000E-01   1.25520E-01
  opls_809  H809     1.0080     0.000    A    2.50000E-01   1.25520E-01
  opls_807  C807    12.0110     0.000    A    3.50000E-01   2.76144E-01
[ moleculetype ]
; Name               nrexcl
UNK                   3
[ atoms ]
;   nr       type  resnr residue  atom   cgnr     charge       mass  
     1   opls_800      1    UNK   C00      1    -0.2337    12.0110 
     2   opls_801      1    UNK   C01      1    -0.1109    12.0110 
     3   opls_802      1    UNK   C02      1    -0.1687    12.0110 
     4   opls_803      1    UNK   C03      1    -0.1623    12.0110 
     5   opls_804      1    UNK   C04      1    -0.0482    12.0110 
     6   opls_805      1    UNK   C05      1    -0.2321    12.0110 
     7   opls_806      1    UNK   C06      1    -0.2273    12.0110 
     8   opls_807      1    UNK   C07      1    -0.1617    12.0110 
     9   opls_808      1    UNK   C08      1    -0.1682    12.0110 
    10   opls_809      1    UNK   H09      1     0.0803     1.0080 
    11   opls_810      1    UNK   H0A      1     0.0803     1.0080 
    12   opls_811      1    UNK   H0B      1     0.0803     1.0080 
    13   opls_812      1    UNK   H0C      1     0.0915     1.0080 
    14   opls_813      1    UNK   H0D      1     0.0868     1.0080 
    15   opls_814      1    UNK   H0E      1     0.0868     1.0080 
    16   opls_815      1    UNK   H0F      1     0.0874     1.0080 
    17   opls_816      1    UNK   H0G      1     0.0874     1.0080 
    18   opls_817      1    UNK   H0H      1     0.0809     1.0080 
    19   opls_818      1    UNK   H0I      1     0.0809     1.0080 
    20   opls_819      1    UNK   H0J      1     0.0809     1.0080 
    21   opls_820      1    UNK   H0K      1     0.0804     1.0080 
    22   opls_821      1    UNK   H0M      1     0.0804     1.0080 
    23   opls_822      1    UNK   H0N      1     0.0804     1.0080 
    24   opls_823      1    UNK   H0O      1     0.0874     1.0080 
    25   opls_824      1    UNK   H0P      1     0.0874     1.0080 
    26   opls_825      1    UNK   H0Q      1     0.0867     1.0080 
    27   opls_826      1    UNK   H0R      1     0.0867     1.0080 
[ bonds ]
    2     1     1      0.1529 224262.400
    3     2     1      0.1529 224262.400
    4     3     1      0.1529 224262.400
    5     4     1      0.1529 224262.400
    6     5     1      0.1529 224262.400
    7     5     1      0.1529 224262.400
    8     5     1      0.1529 224262.400
    9     2     1      0.1529 224262.400
   10     1     1      0.1090 284512.000
   11     1     1      0.1090 284512.000
   12     1     1      0.1090 284512.000
   13     2     1      0.1090 284512.000
   14     3     1      0.1090 284512.000
   15     3     1      0.1090 284512.000
   16     4     1      0.1090 284512.000
   17     4     1      0.1090 284512.000
   18     6     1      0.1090 284512.000
   19     6     1      0.1090 284512.000
   20     6     1      0.1090 284512.000
   21     7     1      0.1090 284512.000
   22     7     1      0.1090 284512.000
   23     7     1      0.1090 284512.000
   24     8     1      0.1090 284512.000
   25     8     1      0.1090 284512.000
   26     9     1      0.1090 284512.000
   27     9     1      0.1090 284512.000
    9     8     1      0.1529 224262.400

[ angles ]
;  ai    aj    ak funct            c0            c1            c2            c3 
    1     2     3     1    112.700    488.273
    2     3     4     1    112.700    488.273
    3     4     5     1    112.700    488.273
    4     5     6     1    112.700    488.273
    4     5     7     1    112.700    488.273
    4     5     8     1    112.700    488.273
    1     2     9     1    112.700    488.273
    2     1    10     1    110.700    313.800
    2     1    11     1    110.700    313.800
    2     1    12     1    110.700    313.800
    1     2    13     1    110.700    313.800
    2     3    14     1    110.700    313.800
    2     3    15     1    110.700    313.800
    3     4    16     1    110.700    313.800
    3     4    17     1    110.700    313.800
    5     6    18     1    110.700    313.800
    5     6    19     1    110.700    313.800
    5     6    20     1    110.700    313.800
    5     7    21     1    110.700    313.800
    5     7    22     1    110.700    313.800
    5     7    23     1    110.700    313.800
    5     8    24     1    110.700    313.800
    5     8    25     1    110.700    313.800
    2     9    26     1    110.700    313.800
    2     9    27     1    110.700    313.800
    9     8    25     1    110.700    313.800
   24     8    25     1    107.800    276.144
    8     9    26     1    110.700    313.800
   21     7    22     1    107.800    276.144
    5     8     9     1    112.700    488.273
    8     9    27     1    110.700    313.800
    5     4    16     1    110.700    313.800
   16     4    17     1    107.800    276.144
    9     8    24     1    110.700    313.800
   22     7    23     1    107.800    276.144
   14     3    15     1    107.800    276.144
   19     6    20     1    107.800    276.144
   11     1    12     1    107.800    276.144
    6     5     7     1    112.700    488.273
    2     9     8     1    112.700    488.273
   18     6    19     1    107.800    276.144
    6     5     8     1    112.700    488.273
   10     1    11     1    107.800    276.144
    3     2    13     1    110.700    313.800
    3     2     9     1    112.700    488.273
    7     5     8     1    112.700    488.273
    4     3    14     1    110.700    313.800
   21     7    23     1    107.800    276.144
    9     2    13     1    110.700    313.800
   10     1    12     1    107.800    276.144
    4     3    15     1    110.700    313.800
   26     9    27     1    107.800    276.144
   18     6    20     1    107.800    276.144
    5     4    17     1    110.700    313.800

[ dihedrals ]
; IMPROPER DIHEDRAL ANGLES 
;  ai    aj    ak    al funct            c0            c1            c2            c3            c4            c5

[ dihedrals ]
; PROPER DIHEDRAL ANGLES
;  ai    aj    ak    al funct            c0            c1            c2            c3            c4            c5
    4    3    2    1        3       2.301  -1.464   0.837  -1.674  -0.000   0.000
    8    9    2    3        3       2.301  -1.464   0.837  -1.674  -0.000   0.000
    9    2    3    4        3       2.301  -1.464   0.837  -1.674  -0.000   0.000
    9    8    5    4        3       2.301  -1.464   0.837  -1.674  -0.000   0.000
    9    8    5    6        3       2.301  -1.464   0.837  -1.674  -0.000   0.000
    8    5    4    3        3       2.301  -1.464   0.837  -1.674  -0.000   0.000
    8    9    2    1        3       2.301  -1.464   0.837  -1.674  -0.000   0.000
    7    5    4    3        3       2.301  -1.464   0.837  -1.674  -0.000   0.000
    9    8    5    7        3       2.301  -1.464   0.837  -1.674  -0.000   0.000
    6    5    4    3        3       2.301  -1.464   0.837  -1.674  -0.000   0.000
    5    4    3    2        3       2.301  -1.464   0.837  -1.674  -0.000   0.000
    5    8    9    2        3       2.301  -1.464   0.837  -1.674  -0.000   0.000
   22    7    5    6        3       0.628   1.883   0.000  -2.510  -0.000   0.000
   16    4    3    2        3       0.628   1.883   0.000  -2.510  -0.000   0.000
   22    7    5    8        3       0.628   1.883   0.000  -2.510  -0.000   0.000
   20    6    5    7        3       0.628   1.883   0.000  -2.510  -0.000   0.000
   19    6    5    8        3       0.628   1.883   0.000  -2.510  -0.000   0.000
   21    7    5    6        3       0.628   1.883   0.000  -2.510  -0.000   0.000
   25    8    5    7        3       0.628   1.883   0.000  -2.510  -0.000   0.000
   19    6    5    7        3       0.628   1.883   0.000  -2.510  -0.000   0.000
   12    1    2    3        3       0.628   1.883   0.000  -2.510  -0.000   0.000
   25    8    5    6        3       0.628   1.883   0.000  -2.510  -0.000   0.000
   13    2    3    4        3       0.628   1.883   0.000  -2.510  -0.000   0.000
   23    7    5    6        3       0.628   1.883   0.000  -2.510  -0.000   0.000
   15    3    2    9        3       0.628   1.883   0.000  -2.510  -0.000   0.000
   11    1    2    9        3       0.628   1.883   0.000  -2.510  -0.000   0.000
   24    8    5    6        3       0.628   1.883   0.000  -2.510  -0.000   0.000
   26    9    2    1        3       0.628   1.883   0.000  -2.510  -0.000   0.000
   14    3    2    1        3       0.628   1.883   0.000  -2.510  -0.000   0.000
   17    4    5    8        3       0.628   1.883   0.000  -2.510  -0.000   0.000
   20    6    5    8        3       0.628   1.883   0.000  -2.510  -0.000   0.000
   25    8    5    4        3       0.628   1.883   0.000  -2.510  -0.000   0.000
   24    8    9    2        3       0.628   1.883   0.000  -2.510  -0.000   0.000
   24    8    5    7        3       0.628   1.883   0.000  -2.510  -0.000   0.000
   14    3    2    9        3       0.628   1.883   0.000  -2.510  -0.000   0.000
   12    1    2    9        3       0.628   1.883   0.000  -2.510  -0.000   0.000
   10    1    2    9        3       0.628   1.883   0.000  -2.510  -0.000   0.000
   23    7    5    8        3       0.628   1.883   0.000  -2.510  -0.000   0.000
   18    6    5    8        3       0.628   1.883   0.000  -2.510  -0.000   0.000
   26    9    8    5        3       0.628   1.883   0.000  -2.510  -0.000   0.000
   26    9    2    3        3       0.628   1.883   0.000  -2.510  -0.000   0.000
   22    7    5    4        3       0.628   1.883   0.000  -2.510  -0.000   0.000
   23    7    5    4        3       0.628   1.883   0.000  -2.510  -0.000   0.000
   16    4    5    8        3       0.628   1.883   0.000  -2.510  -0.000   0.000
   17    4    5    7        3       0.628   1.883   0.000  -2.510  -0.000   0.000
   27    9    2    1        3       0.628   1.883   0.000  -2.510  -0.000   0.000
   15    3    4    5        3       0.628   1.883   0.000  -2.510  -0.000   0.000
   16    4    5    7        3       0.628   1.883   0.000  -2.510  -0.000   0.000
   13    2    9    8        3       0.628   1.883   0.000  -2.510  -0.000   0.000
   21    7    5    8        3       0.628   1.883   0.000  -2.510  -0.000   0.000
   14    3    4    5        3       0.628   1.883   0.000  -2.510  -0.000   0.000
   18    6    5    4        3       0.628   1.883   0.000  -2.510  -0.000   0.000
   10    1    2    3        3       0.628   1.883   0.000  -2.510  -0.000   0.000
   21    7    5    4        3       0.628   1.883   0.000  -2.510  -0.000   0.000
   17    4    3    2        3       0.628   1.883   0.000  -2.510  -0.000   0.000
   16    4    5    6        3       0.628   1.883   0.000  -2.510  -0.000   0.000
   19    6    5    4        3       0.628   1.883   0.000  -2.510  -0.000   0.000
   15    3    2    1        3       0.628   1.883   0.000  -2.510  -0.000   0.000
   18    6    5    7        3       0.628   1.883   0.000  -2.510  -0.000   0.000
   25    8    9    2        3       0.628   1.883   0.000  -2.510  -0.000   0.000
   20    6    5    4        3       0.628   1.883   0.000  -2.510  -0.000   0.000
   27    9    8    5        3       0.628   1.883   0.000  -2.510  -0.000   0.000
   11    1    2    3        3       0.628   1.883   0.000  -2.510  -0.000   0.000
   24    8    5    4        3       0.628   1.883   0.000  -2.510  -0.000   0.000
   17    4    5    6        3       0.628   1.883   0.000  -2.510  -0.000   0.000
   27    9    2    3        3       0.628   1.883   0.000  -2.510  -0.000   0.000
   17    4    3   15        3       0.628   1.883   0.000  -2.510  -0.000   0.000
   13    2    1   12        3       0.628   1.883   0.000  -2.510  -0.000   0.000
   14    3    2   13        3       0.628   1.883   0.000  -2.510  -0.000   0.000
   26    9    8   25        3       0.628   1.883   0.000  -2.510  -0.000   0.000
   16    4    3   14        3       0.628   1.883   0.000  -2.510  -0.000   0.000
   27    9    8   25        3       0.628   1.883   0.000  -2.510  -0.000   0.000
   16    4    3   15        3       0.628   1.883   0.000  -2.510  -0.000   0.000
   15    3    2   13        3       0.628   1.883   0.000  -2.510  -0.000   0.000
   26    9    2   13        3       0.628   1.883   0.000  -2.510  -0.000   0.000
   17    4    3   14        3       0.628   1.883   0.000  -2.510  -0.000   0.000
   27    9    2   13        3       0.628   1.883   0.000  -2.510  -0.000   0.000
   13    2    1   11        3       0.628   1.883   0.000  -2.510  -0.000   0.000
   27    9    8   24        3       0.628   1.883   0.000  -2.510  -0.000   0.000
   26    9    8   24        3       0.628   1.883   0.000  -2.510  -0.000   0.000
   13    2    1   10        3       0.628   1.883   0.000  -2.510  -0.000   0.000

[ pairs ]
     1     4    1
     2     5    1
     3     6    1
     1     8    1
     3     7    1
     3     8    1
     4     9    1
     3    10    1
     3    11    1
     6     9    1
     3    12    1
     1    14    1
     7     9    1
     1    15    1
     4    13    1
     2    16    1
     9    10    1
     5    14    1
     2    17    1
     9    11    1
     5    15    1
     9    12    1
     8    13    1
     6    16    1
     4    18    1
    10    13    1
     9    14    1
     7    16    1
     6    17    1
     4    19    1
    11    13    1
     9    15    1
     8    16    1
     7    17    1
     4    20    1
    12    13    1
     8    17    1
     7    18    1
     4    21    1
     8    18    1
     7    19    1
     4    22    1
     2    24    1
    13    14    1
     8    19    1
     7    20    1
     6    21    1
     4    23    1
     2    25    1
     1    26    1
    13    15    1
     8    20    1
     6    22    1
     4    24    1
     1    27    1
     8    21    1
     6    23    1
     4    25    1
     3    26    1
    14    16    1
     8    22    1
     6    24    1
     3    27    1
    15    16    1
    14    17    1
     8    23    1
     7    24    1
     6    25    1
     5    26    1
    15    17    1
     7    25    1
     5    27    1
    13    26    1
    13    27    1
    24    26    1
    25    26    1
    24    27    1
    25    27    1

