LIGPARGEN GENERATED GRO FILE
   27
    1UNK    C00    1   0.100   0.100   0.000
    1UNK    C01    2  -0.053   0.100   0.000
    1UNK    C02    3  -0.110   0.100   0.143
    1UNK    C03    4  -0.093   0.235   0.213
    1UNK    C04    5  -0.150   0.354   0.133
    1UNK    C05    6  -0.107   0.485   0.201
    1UNK    C06    7  -0.304   0.349   0.131
    1UNK    C07    8  -0.094   0.352  -0.011
    1UNK    C08    9  -0.110   0.217  -0.081
    1UNK    H09   10   0.138   0.014   0.056
    1UNK    H0A   11   0.142   0.190   0.045
    1UNK    H0B   12   0.138   0.093  -0.102
    1UNK    H0C   13  -0.085   0.007  -0.049
    1UNK    H0D   14  -0.061   0.022   0.202
    1UNK    H0E   15  -0.216   0.074   0.139
    1UNK    H0F   16   0.014   0.251   0.233
    1UNK    H0G   17  -0.141   0.229   0.312
    1UNK    H0H   18  -0.145   0.490   0.304
    1UNK    H0I   19  -0.146   0.572   0.147
    1UNK    H0J   20   0.002   0.494   0.206
    1UNK    H0K   21  -0.344   0.352   0.233
    1UNK    H0M   22  -0.342   0.259   0.083
    1UNK    H0N   23  -0.345   0.435   0.077
    1UNK    H0O   24   0.013   0.378  -0.009
    1UNK    H0P   25  -0.143   0.429  -0.071
    1UNK    H0Q   26  -0.061   0.222  -0.179
    1UNK    H0R   27  -0.216   0.199  -0.101
   1.00000   1.00000   1.00000

