
;
; GENERATED BY LigParGen Server
; Jorgensen Lab @ Yale University 
;
[ atomtypes ]
  opls_818  H818     1.0080     0.000    A    2.50000E-01   1.25520E-01
  opls_804  C804    12.0110     0.000    A    3.45000E-01   3.47272E-01
  opls_824  H824     1.0080     0.000    A    2.50000E-01   1.25520E-01
  opls_805  C805    12.0110     0.000    A    3.45000E-01   3.47272E-01
  opls_813  H813     1.0080     0.000    A    2.50000E-01   1.25520E-01
  opls_807  C807    12.0110     0.000    A    3.45000E-01   3.47272E-01
  opls_802  C802    12.0110     0.000    A    3.50000E-01   2.76144E-01
  opls_815  H815     1.0080     0.000    A    2.50000E-01   1.25520E-01
  opls_801  C801    12.0110     0.000    A    3.50000E-01   2.76144E-01
  opls_822  H822     1.0080     0.000    A    2.50000E-01   1.25520E-01
  opls_803  C803    12.0110     0.000    A    3.50000E-01   2.76144E-01
  opls_825  H825     1.0080     0.000    A    2.50000E-01   1.25520E-01
  opls_814  H814     1.0080     0.000    A    2.50000E-01   1.25520E-01
  opls_821  H821     1.0080     0.000    A    2.50000E-01   1.25520E-01
  opls_811  N811    14.0070     0.000    A    3.20000E-01   7.11280E-01
  opls_820  H820     1.0080     0.000    A    2.50000E-01   1.25520E-01
  opls_816  H816     1.0080     0.000    A    2.50000E-01   1.25520E-01
  opls_800  C800    12.0110     0.000    A    3.50000E-01   2.76144E-01
  opls_810  C810    12.0110     0.000    A    3.30000E-01   2.76144E-01
  opls_806  C806    12.0110     0.000    A    3.50000E-01   2.76144E-01
  opls_823  H823     1.0080     0.000    A    2.50000E-01   1.25520E-01
  opls_826  H826     1.0080     0.000    A    2.50000E-01   1.25520E-01
  opls_819  H819     1.0080     0.000    A    2.50000E-01   1.25520E-01
  opls_809  C809    12.0110     0.000    A    3.50000E-01   2.76144E-01
  opls_808  C808    12.0110     0.000    A    3.50000E-01   2.76144E-01
  opls_817  H817     1.0080     0.000    A    2.50000E-01   1.25520E-01
  opls_812  H812     1.0080     0.000    A    2.50000E-01   1.25520E-01
[ moleculetype ]
; Name               nrexcl
UNK                   3
[ atoms ]
;   nr       type  resnr residue  atom   cgnr     charge       mass  
     1   opls_800      1    UNK   C00      1    -0.2375    12.0110 
     2   opls_801      1    UNK   C01      1    -0.1055    12.0110 
     3   opls_802      1    UNK   C02      1    -0.1243    12.0110 
     4   opls_803      1    UNK   C03      1    -0.1532    12.0110 
     5   opls_804      1    UNK   C04      1    -0.1989    12.0110 
     6   opls_805      1    UNK   C05      1    -0.1833    12.0110 
     7   opls_806      1    UNK   C06      1    -0.1507    12.0110 
     8   opls_807      1    UNK   C07      1     -0.159    12.0110 
     9   opls_808      1    UNK   C08      1    -0.0772    12.0110 
    10   opls_809      1    UNK   C09      1    -0.0352    12.0110 
    11   opls_810      1    UNK   C0A      1     0.1321    12.0110 
    12   opls_811      1    UNK   N0B      1    -0.4004    14.0070 
    13   opls_812      1    UNK   H0C      1     0.0869     1.0080 
    14   opls_813      1    UNK   H0D      1     0.0869     1.0080 
    15   opls_814      1    UNK   H0E      1     0.0869     1.0080 
    16   opls_815      1    UNK   H0F      1     0.1041     1.0080 
    17   opls_816      1    UNK   H0G      1     0.1175     1.0080 
    18   opls_817      1    UNK   H0H      1     0.1027     1.0080 
    19   opls_818      1    UNK   H0I      1     0.1027     1.0080 
    20   opls_819      1    UNK   H0J      1     0.1397     1.0080 
    21   opls_820      1    UNK   H0K      1      0.141     1.0080 
    22   opls_821      1    UNK   H0M      1     0.1044     1.0080 
    23   opls_822      1    UNK   H0N      1     0.1044     1.0080 
    24   opls_823      1    UNK   H0O      1     0.1396     1.0080 
    25   opls_824      1    UNK   H0P      1     0.1165     1.0080 
    26   opls_825      1    UNK   H0Q      1     0.1299     1.0080 
    27   opls_826      1    UNK   H0R      1     0.1299     1.0080 
[ bonds ]
    2     1     1      0.1529 224262.400
    3     2     1      0.1529 224262.400
    4     3     1      0.1529 224262.400
    5     4     1      0.1510 234304.000
    6     5     1      0.1520 217568.000
    7     3     1      0.1529 224262.400
    8     5     1      0.1520 217568.000
    9     2     1      0.1529 224262.400
   10     9     1      0.1529 224262.400
   11    10     1      0.1470 326352.000
   12    11     1      0.1157 543920.000
   13     1     1      0.1090 284512.000
   14     1     1      0.1090 284512.000
   15     1     1      0.1090 284512.000
   16     2     1      0.1090 284512.000
   17     3     1      0.1090 284512.000
   18     4     1      0.1090 284512.000
   19     4     1      0.1090 284512.000
   20     5     1      0.1088 284512.000
   21     6     1      0.1088 284512.000
   22     7     1      0.1090 284512.000
   23     7     1      0.1090 284512.000
   24     8     1      0.1088 284512.000
   25     9     1      0.1090 284512.000
   26    10     1      0.1090 284512.000
   27    10     1      0.1090 284512.000
    7     6     1      0.1510 234304.000
    8     6     1      0.1520 217568.000
    9     8     1      0.1510 234304.000

[ angles ]
;  ai    aj    ak funct            c0            c1            c2            c3 
    1     2     3     1    112.700    488.273
    2     3     4     1    112.700    488.273
    3     4     5     1    112.700    488.273
    4     5     6     1    117.200    313.800
    2     3     7     1    112.700    488.273
    4     5     8     1    117.200    313.800
    1     2     9     1    112.700    488.273
    2     9    10     1    112.700    488.273
    9    10    11     1    112.700    488.273
   10    11    12     1    180.000   1255.200
    2     1    13     1    110.700    313.800
    2     1    14     1    110.700    313.800
    2     1    15     1    110.700    313.800
    1     2    16     1    110.700    313.800
    2     3    17     1    110.700    313.800
    3     4    18     1    110.700    313.800
    3     4    19     1    110.700    313.800
    4     5    20     1    114.300    292.880
    5     6    21     1    117.200    313.800
    3     7    22     1    110.700    313.800
    3     7    23     1    110.700    313.800
    5     8    24     1    117.200    313.800
    2     9    25     1    110.700    313.800
    9    10    26     1    110.700    313.800
    9    10    27     1    110.700    313.800
    8     5    20     1    117.200    313.800
   26    10    27     1    107.800    276.144
   11    10    27     1    108.500    292.880
   13     1    14     1    107.800    276.144
    8     6    21     1    117.200    313.800
    7     3    17     1    110.700    313.800
    4     3     7     1    112.700    488.273
    9     8    24     1    114.300    292.880
    5     6     8     1     83.000    251.040
   22     7    23     1    107.800    276.144
    5     6     7     1    117.200    313.800
    6     8    24     1    117.200    313.800
    5     8     9     1    117.200    313.800
    3     7     6     1    112.700    488.273
    7     6     8     1    117.200    313.800
    3     2    16     1    110.700    313.800
   14     1    15     1    107.800    276.144
    6     7    23     1    110.700    313.800
    6     5    20     1    117.200    313.800
    5     4    19     1    110.700    313.800
    2     9     8     1    112.700    488.273
   10     9    25     1    110.700    313.800
    9     2    16     1    110.700    313.800
    5     8     6     1     83.000    251.040
    6     5     8     1     83.000    251.040
   11    10    26     1    108.500    292.880
    3     2     9     1    112.700    488.273
    6     8     9     1    117.200    313.800
    8     9    10     1    112.700    488.273
    5     4    18     1    110.700    313.800
   13     1    15     1    107.800    276.144
   18     4    19     1    107.800    276.144
    4     3    17     1    110.700    313.800
    7     6    21     1    114.300    292.880
    6     7    22     1    110.700    313.800
    8     9    25     1    110.700    313.800

[ dihedrals ]
; IMPROPER DIHEDRAL ANGLES 
;  ai    aj    ak    al funct            c0            c1            c2            c3            c4            c5

[ dihedrals ]
; PROPER DIHEDRAL ANGLES
;  ai    aj    ak    al funct            c0            c1            c2            c3            c4            c5
    4    3    2    1        3       2.301  -1.464   0.837  -1.674  -0.000   0.000
    9    2    3    4        3       2.301  -1.464   0.837  -1.674  -0.000   0.000
   10    9    2    3        3       2.301  -1.464   0.837  -1.674  -0.000   0.000
    7    3    2    1        3       2.301  -1.464   0.837  -1.674  -0.000   0.000
    9    2    3    7        3       2.301  -1.464   0.837  -1.674  -0.000   0.000
   10    9    2    1        3       2.301  -1.464   0.837  -1.674  -0.000   0.000
    7    3    4    5        3       2.301  -1.464   0.837  -1.674  -0.000   0.000
   10    9    8    5        3       0.000   0.000   0.000  -0.000  -0.000   0.000
   10    9    8    6        3       0.000   0.000   0.000  -0.000  -0.000   0.000
    9    8    6    7        3       0.000   0.000   0.000  -0.000  -0.000   0.000
    7    6    5    4        3       0.000   0.000   0.000  -0.000  -0.000   0.000
    9    8    5    4        3       0.000   0.000   0.000  -0.000  -0.000   0.000
    9    8    5    6        3       0.000   0.000   0.000  -0.000  -0.000   0.000
    9    8    6    5        3       0.000   0.000   0.000  -0.000  -0.000   0.000
    7    6    8    5        3       0.000   0.000   0.000  -0.000  -0.000   0.000
    8    9    2    1        3       2.301  -1.464   0.837  -1.674  -0.000   0.000
    5    4    3    2        3       2.301  -1.464   0.837  -1.674  -0.000   0.000
    6    7    3    2        3       2.301  -1.464   0.837  -1.674  -0.000   0.000
    8    9    2    3        3       2.301  -1.464   0.837  -1.674  -0.000   0.000
    6    7    3    4        3       2.301  -1.464   0.837  -1.674  -0.000   0.000
    8    6    7    3        3       0.000   0.000   0.000  -0.000  -0.000   0.000
    6    5    4    3        3       0.000   0.000   0.000  -0.000  -0.000   0.000
    5    6    7    3        3       0.000   0.000   0.000  -0.000  -0.000   0.000
    8    5    4    3        3       0.000   0.000   0.000  -0.000  -0.000   0.000
    6    8    9    2        3       0.000   0.000   0.000  -0.000  -0.000   0.000
    5    8    9    2        3       0.000   0.000   0.000  -0.000  -0.000   0.000
    8    5    4    6        3       0.000   0.000   0.000  -0.000  -0.000   0.000
   11   10    9    2        3      -2.720   0.000   2.720  -0.000  -0.000   0.000
   11   10    9    8        3      -2.720   0.000   2.720  -0.000  -0.000   0.000
   14    1    2    3        3       0.628   1.883   0.000  -2.510  -0.000   0.000
   25    9    2    3        3       0.628   1.883   0.000  -2.510  -0.000   0.000
   17    3    2    1        3       0.628   1.883   0.000  -2.510  -0.000   0.000
   18    4    3    7        3       0.628   1.883   0.000  -2.510  -0.000   0.000
   22    7    3    4        3       0.628   1.883   0.000  -2.510  -0.000   0.000
   15    1    2    9        3       0.628   1.883   0.000  -2.510  -0.000   0.000
   26   10    9    2        3       0.628   1.883   0.000  -2.510  -0.000   0.000
   15    1    2    3        3       0.628   1.883   0.000  -2.510  -0.000   0.000
   19    4    3    7        3       0.628   1.883   0.000  -2.510  -0.000   0.000
   16    2    3    7        3       0.628   1.883   0.000  -2.510  -0.000   0.000
   14    1    2    9        3       0.628   1.883   0.000  -2.510  -0.000   0.000
   16    2    3    4        3       0.628   1.883   0.000  -2.510  -0.000   0.000
   16    2    9   10        3       0.628   1.883   0.000  -2.510  -0.000   0.000
   25    9    2    1        3       0.628   1.883   0.000  -2.510  -0.000   0.000
   13    1    2    9        3       0.628   1.883   0.000  -2.510  -0.000   0.000
   17    3    2    9        3       0.628   1.883   0.000  -2.510  -0.000   0.000
   27   10    9    2        3       0.628   1.883   0.000  -2.510  -0.000   0.000
   19    4    3    2        3       0.628   1.883   0.000  -2.510  -0.000   0.000
   13    1    2    3        3       0.628   1.883   0.000  -2.510  -0.000   0.000
   18    4    3    2        3       0.628   1.883   0.000  -2.510  -0.000   0.000
   23    7    3    4        3       0.628   1.883   0.000  -2.510  -0.000   0.000
   22    7    3    2        3       0.628   1.883   0.000  -2.510  -0.000   0.000
   23    7    3    2        3       0.628   1.883   0.000  -2.510  -0.000   0.000
   17    3    4    5        3       0.628   1.883   0.000  -2.510  -0.000   0.000
   26   10    9    8        3       0.628   1.883   0.000  -2.510  -0.000   0.000
   27   10    9    8        3       0.628   1.883   0.000  -2.510  -0.000   0.000
   17    3    7    6        3       0.628   1.883   0.000  -2.510  -0.000   0.000
   16    2    9    8        3       0.628   1.883   0.000  -2.510  -0.000   0.000
   25    9   10   11        3       0.766   2.297   0.000  -3.063  -0.000   0.000
   26   10    9   25        3       0.628   1.883   0.000  -2.510  -0.000   0.000
   25    9    2   16        3       0.628   1.883   0.000  -2.510  -0.000   0.000
   17    3    2   16        3       0.628   1.883   0.000  -2.510  -0.000   0.000
   16    2    1   15        3       0.628   1.883   0.000  -2.510  -0.000   0.000
   23    7    3   17        3       0.628   1.883   0.000  -2.510  -0.000   0.000
   27   10    9   25        3       0.628   1.883   0.000  -2.510  -0.000   0.000
   18    4    3   17        3       0.628   1.883   0.000  -2.510  -0.000   0.000
   16    2    1   13        3       0.628   1.883   0.000  -2.510  -0.000   0.000
   22    7    3   17        3       0.628   1.883   0.000  -2.510  -0.000   0.000
   16    2    1   14        3       0.628   1.883   0.000  -2.510  -0.000   0.000
   19    4    3   17        3       0.628   1.883   0.000  -2.510  -0.000   0.000
   18    4    5    6        3       0.628   1.883   0.000  -2.510  -0.000   0.000
   18    4    5    8        3       0.628   1.883   0.000  -2.510  -0.000   0.000
   19    4    5    8        3       0.628   1.883   0.000  -2.510  -0.000   0.000
   22    7    6    5        3       0.628   1.883   0.000  -2.510  -0.000   0.000
   23    7    6    8        3       0.628   1.883   0.000  -2.510  -0.000   0.000
   23    7    6    5        3       0.628   1.883   0.000  -2.510  -0.000   0.000
   22    7    6    8        3       0.628   1.883   0.000  -2.510  -0.000   0.000
   19    4    5    6        3       0.628   1.883   0.000  -2.510  -0.000   0.000
   25    9    8    6        3       0.628   1.883   0.000  -2.510  -0.000   0.000
   25    9    8    5        3       0.628   1.883   0.000  -2.510  -0.000   0.000
   23    7    6   21        3       0.628   1.883   0.000  -2.510  -0.000   0.000
   25    9    8   24        3       0.628   1.883   0.000  -2.510  -0.000   0.000
   22    7    6   21        3       0.628   1.883   0.000  -2.510  -0.000   0.000
   27   10   11   12        3       0.000   0.000   0.000  -0.000  -0.000   0.000
   26   10   11   12        3       0.000   0.000   0.000  -0.000  -0.000   0.000
   24    8    9   10        3       0.628   1.883   0.000  -2.510  -0.000   0.000
   21    6    7    3        3       0.628   1.883   0.000  -2.510  -0.000   0.000
   24    8    9    2        3       0.628   1.883   0.000  -2.510  -0.000   0.000
   20    5    4    3        3       0.628   1.883   0.000  -2.510  -0.000   0.000
   20    5    4   18        3       0.628   1.883   0.000  -2.510  -0.000   0.000
   20    5    4   19        3       0.628   1.883   0.000  -2.510  -0.000   0.000
   21    6    8    9        3       0.000   0.000   0.000  -0.000  -0.000   0.000
   20    5    6    7        3       0.000   0.000   0.000  -0.000  -0.000   0.000
   24    8    6    7        3       0.000   0.000   0.000  -0.000  -0.000   0.000
   21    6    5    4        3       0.000   0.000   0.000  -0.000  -0.000   0.000
   24    8    5    4        3       0.000   0.000   0.000  -0.000  -0.000   0.000
   20    5    8    9        3       0.000   0.000   0.000  -0.000  -0.000   0.000
   24    8    5    6        3       0.000   0.000   0.000  -0.000  -0.000   0.000
   20    5    6    8        3       0.000   0.000   0.000  -0.000  -0.000   0.000
   20    5    8    6        3       0.000   0.000   0.000  -0.000  -0.000   0.000
   21    6    8    5        3       0.000   0.000   0.000  -0.000  -0.000   0.000
   21    6    5    8        3       0.000   0.000   0.000  -0.000  -0.000   0.000
   24    8    6    5        3       0.000   0.000   0.000  -0.000  -0.000   0.000
   24    8    6   21        3       0.000   0.000   0.000  -0.000  -0.000   0.000
   21    6    5   20        3       0.000   0.000   0.000  -0.000  -0.000   0.000
   24    8    5   20        3       0.000   0.000   0.000  -0.000  -0.000   0.000
   12   11   10    9        3       0.000   0.000   0.000  -0.000  -0.000   0.000

[ pairs ]
     1     4    1
     2     5    1
     2     6    1
     1     7    1
     1     8    1
     3     8    1
     1    10    1
     4     9    1
     3    10    1
     2    11    1
     5    10    1
     7     9    1
     6    10    1
     3    13    1
     3    14    1
     3    15    1
     1    17    1
     8    11    1
     4    16    1
     2    18    1
     9    12    1
     2    19    1
     9    13    1
     5    17    1
     9    14    1
     7    16    1
     6    17    1
     3    20    1
     9    15    1
     8    16    1
     6    18    1
     3    21    1
     2    22    1
     7    18    1
     6    19    1
     4    21    1
     2    23    1
    10    16    1
     9    17    1
     8    18    1
     7    19    1
     4    22    1
     2    24    1
     1    25    1
     8    19    1
     7    20    1
     5    22    1
     4    23    1
     5    23    1
     4    24    1
     3    25    1
     2    26    1
    13    16    1
     9    20    1
     2    27    1
    14    16    1
     9    21    1
     8    22    1
     5    25    1
    15    16    1
     8    23    1
     7    24    1
     6    25    1
    16    17    1
    10    24    1
     8    26    1
    17    18    1
     8    27    1
    17    19    1
    11    25    1
    18    20    1
    12    26    1
    19    20    1
    17    22    1
    12    27    1
    17    23    1
    20    21    1
    16    25    1
    21    22    1
    21    23    1
    20    24    1
    21    24    1
    24    25    1
    25    26    1
    25    27    1

