LIGPARGEN GENERATED GRO FILE
   27
    1UNK    C00    1   0.100   0.100   0.000
    1UNK    C01    2  -0.054   0.100   0.000
    1UNK    C02    3  -0.111   0.100   0.144
    1UNK    C03    4  -0.265   0.100   0.134
    1UNK    C04    5  -0.293   0.242   0.095
    1UNK    C05    6  -0.179   0.326   0.143
    1UNK    C06    7  -0.083   0.235   0.213
    1UNK    C07    8  -0.202   0.308  -0.005
    1UNK    C08    9  -0.110   0.219  -0.086
    1UNK    C09   10  -0.184   0.170  -0.212
    1UNK    C0A   11  -0.094   0.080  -0.294
    1UNK    N0B   12  -0.019   0.006  -0.363
    1UNK    H0C   13   0.139   0.018   0.062
    1UNK    H0D   14   0.141   0.194   0.038
    1UNK    H0E   15   0.139   0.086  -0.101
    1UNK    H0F   16  -0.084   0.004  -0.045
    1UNK    H0G   17  -0.073   0.015   0.202
    1UNK    H0H   18  -0.311   0.078   0.232
    1UNK    H0I   19  -0.303   0.028   0.060
    1UNK    H0J   20  -0.395   0.276   0.107
    1UNK    H0K   21  -0.197   0.421   0.190
    1UNK    H0M   22  -0.109   0.230   0.320
    1UNK    H0N   23   0.020   0.269   0.205
    1UNK    H0O   24  -0.238   0.394  -0.061
    1UNK    H0P   25  -0.026   0.282  -0.119
    1UNK    H0Q   26  -0.216   0.255  -0.273
    1UNK    H0R   27  -0.275   0.114  -0.184
   1.00000   1.00000   1.00000

