LIGPARGEN GENERATED GRO FILE
   32
    1UNK    C00    1   0.100   0.100   0.000
    1UNK    C01    2  -0.053   0.100   0.000
    1UNK    C02    3  -0.108   0.100   0.148
    1UNK    O03    4  -0.081   0.193   0.225
    1UNK    C04    5  -0.191  -0.017   0.199
    1UNK    C05    6  -0.102  -0.132   0.247
    1UNK    C06    7  -0.030  -0.100   0.379
    1UNK    C07    8  -0.129  -0.062   0.488
    1UNK    C08    9  -0.225   0.050   0.447
    1UNK    C09   10  -0.285   0.023   0.311
    1UNK    O0A   11  -0.405   0.041   0.290
    1UNK    C0B   12  -0.112   0.215  -0.088
    1UNK    C0C   13  -0.207   0.113  -0.152
    1UNK    C0D   14  -0.110   0.002  -0.107
    1UNK    H0E   15   0.139   0.183   0.059
    1UNK    H0F   16   0.141   0.110  -0.101
    1UNK    H0G   17   0.139   0.007   0.043
    1UNK    H0H   18  -0.255  -0.052   0.118
    1UNK    H0I   19  -0.027  -0.157   0.171
    1UNK    H0J   20  -0.164  -0.221   0.262
    1UNK    H0K   21   0.041  -0.018   0.363
    1UNK    H0M   22   0.027  -0.187   0.411
    1UNK    H0N   23  -0.074  -0.031   0.578
    1UNK    H0O   24  -0.188  -0.151   0.516
    1UNK    H0P   25  -0.173   0.146   0.446
    1UNK    H0Q   26  -0.306   0.057   0.521
    1UNK    H0R   27  -0.041   0.260  -0.159
    1UNK    H0S   28  -0.163   0.296  -0.034
    1UNK    H0T   29  -0.219   0.122  -0.261
    1UNK    H0U   30  -0.305   0.107  -0.105
    1UNK    H0V   31  -0.039  -0.027  -0.185
    1UNK    H0W   32  -0.158  -0.090  -0.071
   1.00000   1.00000   1.00000

