LIGPARGEN GENERATED GRO FILE
   28
    1UNK    C00    1   0.100   0.100   0.000
    1UNK    C01    2  -0.052   0.100   0.000
    1UNK    C02    3  -0.107   0.100   0.143
    1UNK    C03    4  -0.261   0.109   0.150
    1UNK    C04    5  -0.326  -0.012   0.087
    1UNK    C05    6  -0.476  -0.023   0.076
    1UNK    C06    7  -0.394  -0.002  -0.048
    1UNK    C07    8  -0.304   0.121   0.295
    1UNK    C08    9  -0.277   0.248   0.372
    1UNK    C09   10  -0.417   0.213   0.333
    1UNK    H0A   11   0.138   0.093  -0.102
    1UNK    H0B   12   0.139   0.015   0.056
    1UNK    H0C   13   0.139   0.192   0.045
    1UNK    H0D   14  -0.088   0.012  -0.054
    1UNK    H0E   15  -0.088   0.188  -0.054
    1UNK    H0F   16  -0.064   0.185   0.197
    1UNK    H0G   17  -0.073   0.010   0.195
    1UNK    H0H   18  -0.292   0.199   0.096
    1UNK    H0I   19  -0.273  -0.104   0.110
    1UNK    H0J   20  -0.537   0.059   0.112
    1UNK    H0K   21  -0.521  -0.121   0.092
    1UNK    H0M   22  -0.401   0.095  -0.096
    1UNK    H0N   23  -0.384  -0.085  -0.116
    1UNK    H0O   24  -0.293   0.028   0.349
    1UNK    H0P   25  -0.230   0.331   0.321
    1UNK    H0Q   26  -0.248   0.238   0.476
    1UNK    H0R   27  -0.465   0.273   0.256
    1UNK    H0S   28  -0.485   0.179   0.411
   1.00000   1.00000   1.00000

