
;
; GENERATED BY LigParGen Server
; Jorgensen Lab @ Yale University 
;
[ atomtypes ]
  opls_818  H818     1.0080     0.000    A    2.50000E-01   1.25520E-01
  opls_801  C801    12.0110     0.000    A    3.45000E-01   3.47272E-01
  opls_824  H824     1.0080     0.000    A    2.50000E-01   1.25520E-01
  opls_805  C805    12.0110     0.000    A    3.50000E-01   2.76144E-01
  opls_828  H828     1.0080     0.000    A    2.50000E-01   1.25520E-01
  opls_803  O803    15.9990     0.000    A    2.96000E-01   8.78640E-01
  opls_806  C806    12.0110     0.000    A    3.50000E-01   2.76144E-01
  opls_815  H815     1.0080     0.000    A    2.50000E-01   1.25520E-01
  opls_830  H830     1.0080     0.000    A    2.50000E-01   1.25520E-01
  opls_822  H822     1.0080     0.000    A    2.50000E-01   1.25520E-01
  opls_807  C807    12.0110     0.000    A    3.50000E-01   2.76144E-01
  opls_825  H825     1.0080     0.000    A    2.50000E-01   1.25520E-01
  opls_826  H826     1.0080     0.000    A    2.50000E-01   1.25520E-01
  opls_814  H814     1.0080     0.000    A    2.50000E-01   1.25520E-01
  opls_810  O810    15.9990     0.000    A    2.96000E-01   8.78640E-01
  opls_821  H821     1.0080     0.000    A    2.50000E-01   1.25520E-01
  opls_820  H820     1.0080     0.000    A    2.50000E-01   1.25520E-01
  opls_809  C809    12.0110     0.000    A    3.55000E-01   2.92880E-01
  opls_829  H829     1.0080     0.000    A    2.50000E-01   1.25520E-01
  opls_831  H831     1.0080     0.000    A    2.50000E-01   1.25520E-01
  opls_816  H816     1.0080     0.000    A    2.50000E-01   1.25520E-01
  opls_800  C800    12.0110     0.000    A    3.50000E-01   2.76144E-01
  opls_813  C813    12.0110     0.000    A    3.45000E-01   3.47272E-01
  opls_823  H823     1.0080     0.000    A    2.50000E-01   1.25520E-01
  opls_802  C802    12.0110     0.000    A    3.55000E-01   2.92880E-01
  opls_811  C811    12.0110     0.000    A    3.45000E-01   3.47272E-01
  opls_819  H819     1.0080     0.000    A    2.50000E-01   1.25520E-01
  opls_804  C804    12.0110     0.000    A    3.50000E-01   2.76144E-01
  opls_827  H827     1.0080     0.000    A    2.50000E-01   1.25520E-01
  opls_808  C808    12.0110     0.000    A    3.50000E-01   2.76144E-01
  opls_817  H817     1.0080     0.000    A    2.50000E-01   1.25520E-01
  opls_812  C812    12.0110     0.000    A    3.45000E-01   3.47272E-01
[ moleculetype ]
; Name               nrexcl
UNK                   3
[ atoms ]
;   nr       type  resnr residue  atom   cgnr     charge       mass  
     1   opls_800      1    UNK   C00      1    -0.2242    12.0110 
     2   opls_801      1    UNK   C01      1     -0.112    12.0110 
     3   opls_802      1    UNK   C02      1     0.4119    12.0110 
     4   opls_803      1    UNK   O03      1    -0.4494    15.9990 
     5   opls_804      1    UNK   C04      1    -0.2181    12.0110 
     6   opls_805      1    UNK   C05      1    -0.1583    12.0110 
     7   opls_806      1    UNK   C06      1    -0.1848    12.0110 
     8   opls_807      1    UNK   C07      1    -0.1684    12.0110 
     9   opls_808      1    UNK   C08      1    -0.2298    12.0110 
    10   opls_809      1    UNK   C09      1     0.3919    12.0110 
    11   opls_810      1    UNK   O0A      1    -0.4465    15.9990 
    12   opls_811      1    UNK   C0B      1    -0.1773    12.0110 
    13   opls_812      1    UNK   C0C      1    -0.2066    12.0110 
    14   opls_813      1    UNK   C0D      1    -0.1824    12.0110 
    15   opls_814      1    UNK   H0E      1      0.093     1.0080 
    16   opls_815      1    UNK   H0F      1      0.093     1.0080 
    17   opls_816      1    UNK   H0G      1      0.093     1.0080 
    18   opls_817      1    UNK   H0H      1     0.1467     1.0080 
    19   opls_818      1    UNK   H0I      1      0.103     1.0080 
    20   opls_819      1    UNK   H0J      1      0.103     1.0080 
    21   opls_820      1    UNK   H0K      1     0.1008     1.0080 
    22   opls_821      1    UNK   H0M      1     0.1008     1.0080 
    23   opls_822      1    UNK   H0N      1     0.0958     1.0080 
    24   opls_823      1    UNK   H0O      1     0.0958     1.0080 
    25   opls_824      1    UNK   H0P      1     0.1375     1.0080 
    26   opls_825      1    UNK   H0Q      1     0.1375     1.0080 
    27   opls_826      1    UNK   H0R      1     0.1137     1.0080 
    28   opls_827      1    UNK   H0S      1     0.1137     1.0080 
    29   opls_828      1    UNK   H0T      1     0.1074     1.0080 
    30   opls_829      1    UNK   H0U      1     0.1074     1.0080 
    31   opls_830      1    UNK   H0V      1      0.106     1.0080 
    32   opls_831      1    UNK   H0W      1      0.106     1.0080 
[ bonds ]
    2     1     1      0.1510 234304.000
    3     2     1      0.1522 265265.600
    4     3     1      0.1229 476976.000
    5     3     1      0.1522 265265.600
    6     5     1      0.1529 224262.400
    7     6     1      0.1529 224262.400
    8     7     1      0.1529 224262.400
    9     8     1      0.1529 224262.400
   10     5     1      0.1522 265265.600
   11    10     1      0.1229 476976.000
   12     2     1      0.1520 217568.000
   13    12     1      0.1520 217568.000
   14     2     1      0.1520 217568.000
   15     1     1      0.1090 284512.000
   16     1     1      0.1090 284512.000
   17     1     1      0.1090 284512.000
   18     5     1      0.1090 284512.000
   19     6     1      0.1090 284512.000
   20     6     1      0.1090 284512.000
   21     7     1      0.1090 284512.000
   22     7     1      0.1090 284512.000
   23     8     1      0.1090 284512.000
   24     8     1      0.1090 284512.000
   25     9     1      0.1090 284512.000
   26     9     1      0.1090 284512.000
   27    12     1      0.1088 284512.000
   28    12     1      0.1088 284512.000
   29    13     1      0.1088 284512.000
   30    13     1      0.1088 284512.000
   31    14     1      0.1088 284512.000
   32    14     1      0.1088 284512.000
   10     9     1      0.1522 265265.600
   14    13     1      0.1520 217568.000

[ angles ]
;  ai    aj    ak funct            c0            c1            c2            c3 
    1     2     3     1    111.100    527.184
    2     3     4     1    120.400    669.440
    2     3     5     1    116.000    585.760
    3     5     6     1    111.100    527.184
    5     6     7     1    112.700    488.273
    6     7     8     1    112.700    488.273
    7     8     9     1    112.700    488.273
    3     5    10     1    111.100    527.184
    5    10    11     1    120.400    669.440
    1     2    12     1    117.200    313.800
    2    12    13     1     83.000    251.040
    1     2    14     1    117.200    313.800
    2     1    15     1    110.700    313.800
    2     1    16     1    110.700    313.800
    2     1    17     1    110.700    313.800
    3     5    18     1    109.500    292.880
    5     6    19     1    110.700    313.800
    5     6    20     1    110.700    313.800
    6     7    21     1    110.700    313.800
    6     7    22     1    110.700    313.800
    7     8    23     1    110.700    313.800
    7     8    24     1    110.700    313.800
    8     9    25     1    110.700    313.800
    8     9    26     1    110.700    313.800
    2    12    27     1    117.200    313.800
    2    12    28     1    117.200    313.800
   12    13    29     1    117.200    313.800
   12    13    30     1    117.200    313.800
    2    14    31     1    117.200    313.800
    2    14    32     1    117.200    313.800
   14    13    29     1    117.200    313.800
    3     2    14     1    111.100    527.184
   23     8    24     1    107.800    276.144
   25     9    26     1    107.800    276.144
    6     5    10     1    111.100    527.184
   10     5    18     1    109.500    292.880
    5    10     9     1    116.000    585.760
   15     1    17     1    107.800    276.144
    9     8    23     1    110.700    313.800
   13    14    32     1    117.200    313.800
    7     6    19     1    110.700    313.800
   27    12    28     1    114.300    292.880
    4     3     5     1    120.400    669.440
   14    13    30     1    117.200    313.800
   31    14    32     1    114.300    292.880
    9     8    24     1    110.700    313.800
   19     6    20     1    107.800    276.144
   15     1    16     1    107.800    276.144
   21     7    22     1    107.800    276.144
   10     9    25     1    109.500    292.880
    3     2    12     1    111.100    527.184
   29    13    30     1    114.300    292.880
    8     7    22     1    110.700    313.800
   12     2    14     1     83.000    251.040
    2    14    13     1     83.000    251.040
   13    12    28     1    117.200    313.800
   16     1    17     1    107.800    276.144
   10     9    26     1    109.500    292.880
    8     7    21     1    110.700    313.800
    9    10    11     1    120.400    669.440
   13    14    31     1    117.200    313.800
    8     9    10     1    111.100    527.184
   12    13    14     1     83.000    251.040
    7     6    20     1    110.700    313.800
    6     5    18     1    110.700    313.800
   13    12    27     1    117.200    313.800

[ dihedrals ]
; IMPROPER DIHEDRAL ANGLES 
;  ai    aj    ak    al funct            c0            c1            c2            c3            c4            c5
     5     3     2     4    4        180.000     43.932     2  
    11    10     5     9    4        180.000     43.932     2  

[ dihedrals ]
; PROPER DIHEDRAL ANGLES
;  ai    aj    ak    al funct            c0            c1            c2            c3            c4            c5
   10    5    3    2        3       0.000   0.000   0.000  -0.000  -0.000   0.000
   10    5    3    4        3       0.000   0.000   0.000  -0.000  -0.000   0.000
   10    9    8    7        3      -4.960   6.286   1.310  -2.636  -0.000   0.000
   10    5    6    7        3      -4.960   6.286   1.310  -2.636  -0.000   0.000
    9   10    5    3        3       0.818  -7.906   0.602   6.485  -0.000   0.000
    9   10    5    6        3       0.818  -7.906   0.602   6.485  -0.000   0.000
    5    3    2    1        3       0.818  -7.906   0.602   6.485  -0.000   0.000
    8    9   10    5        3       0.818  -7.906   0.602   6.485  -0.000   0.000
    6    5    3    2        3       0.000   0.000   0.000  -0.000  -0.000   0.000
    6    5    3    4        3       0.000   0.000   0.000  -0.000  -0.000   0.000
    7    6    5    3        3      -4.960   6.286   1.310  -2.636  -0.000   0.000
    9    8    7    6        3       2.301  -1.464   0.837  -1.674  -0.000   0.000
    8    7    6    5        3       2.301  -1.464   0.837  -1.674  -0.000   0.000
   12    2    3    5        3       0.000   0.000   0.000  -0.000  -0.000   0.000
   14    2    3    5        3       0.000   0.000   0.000  -0.000  -0.000   0.000
   12    2    3    4        3       0.000   0.000   0.000  -0.000  -0.000   0.000
   14    2    3    4        3       0.000   0.000   0.000  -0.000  -0.000   0.000
   13   14    2    3        3       0.000   0.000   0.000  -0.000  -0.000   0.000
   13   12    2    3        3       0.000   0.000   0.000  -0.000  -0.000   0.000
   13   12    2    1        3       0.000   0.000   0.000  -0.000  -0.000   0.000
   13   14    2    1        3       0.000   0.000   0.000  -0.000  -0.000   0.000
   26    9   10    5        3       0.575   1.726   0.000  -2.301  -0.000   0.000
   25    9   10    5        3       0.575   1.726   0.000  -2.301  -0.000   0.000
   18    5   10    9        3       0.575   1.726   0.000  -2.301  -0.000   0.000
   18    5    3    2        3       0.575   1.726   0.000  -2.301  -0.000   0.000
   26    9   10   11        3       0.000   0.000   0.000  -0.000  -0.000   0.000
   18    5    3    4        3       0.000   0.000   0.000  -0.000  -0.000   0.000
   25    9   10   11        3       0.000   0.000   0.000  -0.000  -0.000   0.000
   18    5   10   11        3       0.000   0.000   0.000  -0.000  -0.000   0.000
   19    6    5    3        3      -0.209  -0.628   0.000   0.837  -0.000   0.000
   20    6    5   10        3      -0.209  -0.628   0.000   0.837  -0.000   0.000
   23    8    9   10        3      -0.209  -0.628   0.000   0.837  -0.000   0.000
   19    6    5   10        3      -0.209  -0.628   0.000   0.837  -0.000   0.000
   20    6    5    3        3      -0.209  -0.628   0.000   0.837  -0.000   0.000
   24    8    9   10        3      -0.209  -0.628   0.000   0.837  -0.000   0.000
   22    7    6    5        3       0.628   1.883   0.000  -2.510  -0.000   0.000
   21    7    6    5        3       0.628   1.883   0.000  -2.510  -0.000   0.000
   22    7    8    9        3       0.628   1.883   0.000  -2.510  -0.000   0.000
   19    6    7    8        3       0.628   1.883   0.000  -2.510  -0.000   0.000
   25    9    8    7        3       0.628   1.883   0.000  -2.510  -0.000   0.000
   23    8    7    6        3       0.628   1.883   0.000  -2.510  -0.000   0.000
   21    7    8    9        3       0.628   1.883   0.000  -2.510  -0.000   0.000
   20    6    7    8        3       0.628   1.883   0.000  -2.510  -0.000   0.000
   18    5    6    7        3       0.628   1.883   0.000  -2.510  -0.000   0.000
   24    8    7    6        3       0.628   1.883   0.000  -2.510  -0.000   0.000
   26    9    8    7        3       0.628   1.883   0.000  -2.510  -0.000   0.000
   23    8    7   22        3       0.628   1.883   0.000  -2.510  -0.000   0.000
   24    8    7   21        3       0.628   1.883   0.000  -2.510  -0.000   0.000
   26    9    8   24        3       0.628   1.883   0.000  -2.510  -0.000   0.000
   21    7    6   20        3       0.628   1.883   0.000  -2.510  -0.000   0.000
   23    8    7   21        3       0.628   1.883   0.000  -2.510  -0.000   0.000
   25    9    8   24        3       0.628   1.883   0.000  -2.510  -0.000   0.000
   19    6    5   18        3       0.628   1.883   0.000  -2.510  -0.000   0.000
   25    9    8   23        3       0.628   1.883   0.000  -2.510  -0.000   0.000
   26    9    8   23        3       0.628   1.883   0.000  -2.510  -0.000   0.000
   24    8    7   22        3       0.628   1.883   0.000  -2.510  -0.000   0.000
   22    7    6   19        3       0.628   1.883   0.000  -2.510  -0.000   0.000
   22    7    6   20        3       0.628   1.883   0.000  -2.510  -0.000   0.000
   21    7    6   19        3       0.628   1.883   0.000  -2.510  -0.000   0.000
   20    6    5   18        3       0.628   1.883   0.000  -2.510  -0.000   0.000
   17    1    2    3        3       0.628   1.883   0.000  -2.510  -0.000   0.000
   16    1    2    3        3       0.628   1.883   0.000  -2.510  -0.000   0.000
   15    1    2    3        3       0.628   1.883   0.000  -2.510  -0.000   0.000
   16    1    2   14        3       0.628   1.883   0.000  -2.510  -0.000   0.000
   17    1    2   14        3       0.628   1.883   0.000  -2.510  -0.000   0.000
   15    1    2   12        3       0.628   1.883   0.000  -2.510  -0.000   0.000
   17    1    2   12        3       0.628   1.883   0.000  -2.510  -0.000   0.000
   16    1    2   12        3       0.628   1.883   0.000  -2.510  -0.000   0.000
   15    1    2   14        3       0.628   1.883   0.000  -2.510  -0.000   0.000
   28   12    2    3        3       0.000   0.000   0.000  -0.000  -0.000   0.000
   32   14    2    3        3       0.000   0.000   0.000  -0.000  -0.000   0.000
   31   14    2    3        3       0.000   0.000   0.000  -0.000  -0.000   0.000
   27   12    2    3        3       0.000   0.000   0.000  -0.000  -0.000   0.000
   32   14    2    1        3       0.000   0.000   0.000  -0.000  -0.000   0.000
   28   12    2    1        3       0.000   0.000   0.000  -0.000  -0.000   0.000
   31   14    2    1        3       0.000   0.000   0.000  -0.000  -0.000   0.000
   27   12    2    1        3       0.000   0.000   0.000  -0.000  -0.000   0.000
   31   14    2   12        3       0.000   0.000   0.000  -0.000  -0.000   0.000
   27   12   13   14        3       0.000   0.000   0.000  -0.000  -0.000   0.000
   31   14   13   12        3       0.000   0.000   0.000  -0.000  -0.000   0.000
   30   13   12    2        3       0.000   0.000   0.000  -0.000  -0.000   0.000
   28   12    2   14        3       0.000   0.000   0.000  -0.000  -0.000   0.000
   30   13   14    2        3       0.000   0.000   0.000  -0.000  -0.000   0.000
   27   12    2   14        3       0.000   0.000   0.000  -0.000  -0.000   0.000
   32   14   13   12        3       0.000   0.000   0.000  -0.000  -0.000   0.000
   29   13   12    2        3       0.000   0.000   0.000  -0.000  -0.000   0.000
   32   14    2   12        3       0.000   0.000   0.000  -0.000  -0.000   0.000
   29   13   14    2        3       0.000   0.000   0.000  -0.000  -0.000   0.000
   28   12   13   14        3       0.000   0.000   0.000  -0.000  -0.000   0.000
   30   13   12   27        3       0.000   0.000   0.000  -0.000  -0.000   0.000
   32   14   13   30        3       0.000   0.000   0.000  -0.000  -0.000   0.000
   31   14   13   29        3       0.000   0.000   0.000  -0.000  -0.000   0.000
   32   14   13   29        3       0.000   0.000   0.000  -0.000  -0.000   0.000
   31   14   13   30        3       0.000   0.000   0.000  -0.000  -0.000   0.000
   30   13   12   28        3       0.000   0.000   0.000  -0.000  -0.000   0.000
   29   13   12   27        3       0.000   0.000   0.000  -0.000  -0.000   0.000
   29   13   12   28        3       0.000   0.000   0.000  -0.000  -0.000   0.000
   11   10    5    3        3       0.000   0.000   0.000  -0.000  -0.000   0.000
   11   10    5    6        3       0.000   0.000   0.000  -0.000  -0.000   0.000
   11   10    9    8        3       0.000   0.000   0.000  -0.000  -0.000   0.000
    4    3    2    1        3       0.000   0.000   0.000  -0.000  -0.000   0.000

[ pairs ]
     1     4    1
     1     5    1
     2     6    1
     4     6    1
     3     7    1
     3     9    1
     2    10    1
     5     8    1
     4    10    1
     3    11    1
     1    13    1
     6     9    1
     4    12    1
     3    13    1
     7    10    1
     6    11    1
     5    12    1
     4    14    1
     3    15    1
     8    11    1
     5    14    1
     3    16    1
     3    17    1
     2    18    1
     4    18    1
     3    19    1
     3    20    1
     7    18    1
     5    21    1
    12    15    1
     9    18    1
     8    19    1
     5    22    1
    12    16    1
     8    20    1
     1    27    1
    14    15    1
    12    17    1
    11    18    1
    10    19    1
     6    23    1
     1    28    1
    14    16    1
    10    20    1
     9    21    1
     6    24    1
     5    25    1
     3    27    1
    14    17    1
     9    22    1
     5    26    1
     3    28    1
     2    29    1
     7    25    1
     2    30    1
     1    31    1
    10    23    1
     7    26    1
     1    32    1
    10    24    1
     3    31    1
     3    32    1
    11    25    1
    18    19    1
    11    26    1
    18    20    1
    19    21    1
    20    21    1
    19    22    1
    14    27    1
    20    22    1
    14    28    1
    12    31    1
    21    23    1
    12    32    1
    22    23    1
    21    24    1
    22    24    1
    23    25    1
    24    25    1
    23    26    1
    24    26    1
    27    29    1
    28    29    1
    27    30    1
    28    30    1
    29    31    1
    30    31    1
    29    32    1
    30    32    1

