LIGPARGEN GENERATED GRO FILE
   44
    1UNK    C00    1   0.100   0.100   0.000
    1UNK    C01    2  -0.052   0.100   0.000
    1UNK    C02    3  -0.133   0.100   0.134
    1UNK    C03    4  -0.291   0.117   0.109
    1UNK    C04    5  -0.310   0.148  -0.039
    1UNK    N05    6  -0.326   0.175  -0.161
    1UNK    C06    7  -0.356  -0.021   0.143
    1UNK    C07    8  -0.414  -0.105   0.026
    1UNK    C08    9  -0.532  -0.192   0.069
    1UNK    C09   10  -0.297  -0.190  -0.022
    1UNK    C0A   11  -0.227  -0.229   0.107
    1UNK    C0B   12  -0.244  -0.110   0.203
    1UNK    C0C   13  -0.121  -0.020   0.235
    1UNK    C0D   14   0.011  -0.102   0.231
    1UNK    C0E   15   0.141  -0.037   0.279
    1UNK    C0F   16  -0.141   0.042   0.379
    1UNK    C0G   17  -0.134  -0.055   0.497
    1UNK    H0H   18   0.137   0.143  -0.094
    1UNK    H0I   19   0.140  -0.002   0.003
    1UNK    H0J   20   0.141   0.160   0.081
    1UNK    H0K   21  -0.084   0.020  -0.066
    1UNK    H0M   22  -0.075   0.195  -0.051
    1UNK    H0N   23  -0.100   0.192   0.184
    1UNK    H0O   24  -0.332   0.196   0.172
    1UNK    H0P   25  -0.434  -0.003   0.217
    1UNK    H0Q   26  -0.452  -0.044  -0.057
    1UNK    H0R   27  -0.508  -0.256   0.154
    1UNK    H0S   28  -0.564  -0.256  -0.015
    1UNK    H0T   29  -0.617  -0.129   0.096
    1UNK    H0U   30  -0.229  -0.133  -0.085
    1UNK    H0V   31  -0.329  -0.278  -0.079
    1UNK    H0W   32  -0.126  -0.264   0.090
    1UNK    H0X   33  -0.280  -0.316   0.150
    1UNK    H0Y   34  -0.282  -0.154   0.296
    1UNK    H0Z   35   0.029  -0.139   0.129
    1UNK    H10   36  -0.003  -0.193   0.290
    1UNK    H11   37   0.217  -0.041   0.200
    1UNK    H12   38   0.183  -0.094   0.363
    1UNK    H13   39   0.129   0.067   0.308
    1UNK    H14   40  -0.238   0.093   0.383
    1UNK    H15   41  -0.066   0.120   0.396
    1UNK    H16   42  -0.211  -0.132   0.492
    1UNK    H17   43  -0.151   0.001   0.590
    1UNK    H18   44  -0.036  -0.103   0.505
   1.00000   1.00000   1.00000

