LIGPARGEN GENERATED GRO FILE
   23
    1UNK    C00    1   0.100   0.100   0.000
    1UNK    C01    2  -0.053   0.100   0.000
    1UNK    C02    3  -0.102   0.100   0.149
    1UNK    C03    4   0.014   0.197   0.192
    1UNK    C04    5   0.137   0.120   0.147
    1UNK    C05    6   0.150  -0.014   0.225
    1UNK    C06    7   0.037  -0.036   0.322
    1UNK    C07    8  -0.074  -0.133   0.294
    1UNK    C08    9  -0.099   0.016   0.281
    1UNK    H09   10   0.135   0.185  -0.060
    1UNK    H0A   11   0.142   0.009  -0.044
    1UNK    H0B   12  -0.093   0.019  -0.063
    1UNK    H0C   13  -0.091   0.191  -0.048
    1UNK    H0D   14  -0.110  -0.004   0.117
    1UNK    H0E   15   0.018   0.221   0.299
    1UNK    H0F   16   0.006   0.294   0.141
    1UNK    H0G   17   0.230   0.178   0.155
    1UNK    H0H   18   0.244  -0.012   0.282
    1UNK    H0I   19   0.159  -0.099   0.157
    1UNK    H0J   20   0.066  -0.018   0.425
    1UNK    H0K   21  -0.120  -0.183   0.380
    1UNK    H0M   22  -0.069  -0.196   0.207
    1UNK    H0N   23  -0.162   0.063   0.356
   1.00000   1.00000   1.00000

