LIGPARGEN GENERATED GRO FILE
   36
    1UNK    C00    1   0.100   0.100   0.000
    1UNK    C01    2  -0.053   0.100   0.000
    1UNK    C02    3  -0.116   0.100   0.141
    1UNK    C03    4  -0.096  -0.037   0.209
    1UNK    C04    5  -0.174  -0.049   0.341
    1UNK    C05    6  -0.157  -0.186   0.413
    1UNK    C06    7  -0.009  -0.213   0.443
    1UNK    C07    8  -0.243  -0.193   0.543
    1UNK    C08    9  -0.393  -0.177   0.514
    1UNK    C09   10  -0.223  -0.323   0.622
    1UNK    O0A   11  -0.057   0.200   0.225
    1UNK    C0B   12  -0.092   0.333   0.190
    1UNK    H0C   13   0.137   0.087  -0.102
    1UNK    H0D   14   0.141   0.019   0.061
    1UNK    H0E   15   0.139   0.195   0.038
    1UNK    H0F   16  -0.089   0.014  -0.057
    1UNK    H0G   17  -0.086   0.189  -0.055
    1UNK    H0H   18  -0.223   0.119   0.131
    1UNK    H0I   19   0.011  -0.050   0.230
    1UNK    H0J   20  -0.127  -0.117   0.141
    1UNK    H0K   21  -0.280  -0.034   0.317
    1UNK    H0M   22  -0.144   0.031   0.409
    1UNK    H0N   23  -0.191  -0.265   0.345
    1UNK    H0O   24   0.032  -0.137   0.511
    1UNK    H0P   25   0.052  -0.214   0.352
    1UNK    H0Q   26   0.006  -0.312   0.489
    1UNK    H0R   27  -0.213  -0.110   0.609
    1UNK    H0S   28  -0.427  -0.250   0.440
    1UNK    H0T   29  -0.417  -0.077   0.477
    1UNK    H0U   30  -0.452  -0.191   0.605
    1UNK    H0V   31  -0.242  -0.411   0.558
    1UNK    H0W   32  -0.292  -0.328   0.707
    1UNK    H0X   33  -0.122  -0.331   0.662
    1UNK    H0Y   34  -0.042   0.401   0.260
    1UNK    H0Z   35  -0.200   0.348   0.198
    1UNK    H10   36  -0.058   0.358   0.089
   1.00000   1.00000   1.00000

