
;
; GENERATED BY LigParGen Server
; Jorgensen Lab @ Yale University 
;
[ atomtypes ]
  opls_818  H818     1.0080     0.000    A    2.50000E-01   1.25520E-01
  opls_824  H824     1.0080     0.000    A    2.50000E-01   1.25520E-01
  opls_805  C805    12.0110     0.000    A    3.50000E-01   2.76144E-01
  opls_808 Cl808    35.4500     0.000    A    3.40000E-01   1.25520E+00
  opls_813  H813     1.0080     0.000    A    2.50000E-01   1.25520E-01
  opls_802  C802    12.0110     0.000    A    3.50000E-01   2.76144E-01
  opls_815  H815     1.0080     0.000    A    2.50000E-01   1.25520E-01
  opls_801  C801    12.0110     0.000    A    3.50000E-01   2.76144E-01
  opls_822  H822     1.0080     0.000    A    2.50000E-01   1.25520E-01
  opls_803  C803    12.0110     0.000    A    3.50000E-01   2.76144E-01
  opls_825  H825     1.0080     0.000    A    2.50000E-01   1.25520E-01
  opls_810  N810    14.0070     0.000    A    3.20000E-01   7.11280E-01
  opls_814  H814     1.0080     0.000    A    2.50000E-01   1.25520E-01
  opls_821  H821     1.0080     0.000    A    2.50000E-01   1.25520E-01
  opls_820  H820     1.0080     0.000    A    2.50000E-01   1.25520E-01
  opls_811  H811     1.0080     0.000    A    2.50000E-01   1.25520E-01
  opls_816  H816     1.0080     0.000    A    2.50000E-01   1.25520E-01
  opls_800  C800    12.0110     0.000    A    3.50000E-01   2.76144E-01
  opls_806  C806    12.0110     0.000    A    3.50000E-01   2.76144E-01
  opls_823  H823     1.0080     0.000    A    2.50000E-01   1.25520E-01
  opls_826  H826     1.0080     0.000    A    2.50000E-01   1.25520E-01
  opls_819  H819     1.0080     0.000    A    2.50000E-01   1.25520E-01
  opls_804  C804    12.0110     0.000    A    3.50000E-01   2.76144E-01
  opls_817  H817     1.0080     0.000    A    2.50000E-01   1.25520E-01
  opls_812  H812     1.0080     0.000    A    2.50000E-01   1.25520E-01
  opls_809  C809    12.0110     0.000    A    3.30000E-01   2.76144E-01
  opls_807  C807    12.0110     0.000    A    3.50000E-01   2.76144E-01
[ moleculetype ]
; Name               nrexcl
UNK                   3
[ atoms ]
;   nr       type  resnr residue  atom   cgnr     charge       mass  
     1   opls_800      1    UNK   C00      1    -0.2391    12.0110 
     2   opls_801      1    UNK   C01      1    -0.1803    12.0110 
     3   opls_802      1    UNK   C02      1     -0.175    12.0110 
     4   opls_803      1    UNK   C03      1    -0.1731    12.0110 
     5   opls_804      1    UNK   C04      1    -0.0389    12.0110 
     6   opls_805      1    UNK   C05      1      -0.24    12.0110 
     7   opls_806      1    UNK   C06      1    -0.2372    12.0110 
     8   opls_807      1    UNK   C07      1     0.1945    12.0110 
     9   opls_808      1    UNK   Cl0      1    -0.2414    35.4500 
    10   opls_809      1    UNK   C09      1     0.1494    12.0110 
    11   opls_810      1    UNK   N0A      1     -0.352    14.0070 
    12   opls_811      1    UNK   H0B      1     0.0821     1.0080 
    13   opls_812      1    UNK   H0C      1     0.0821     1.0080 
    14   opls_813      1    UNK   H0D      1     0.0821     1.0080 
    15   opls_814      1    UNK   H0E      1     0.0918     1.0080 
    16   opls_815      1    UNK   H0F      1     0.0918     1.0080 
    17   opls_816      1    UNK   H0G      1     0.0908     1.0080 
    18   opls_817      1    UNK   H0H      1     0.0908     1.0080 
    19   opls_818      1    UNK   H0I      1     0.1019     1.0080 
    20   opls_819      1    UNK   H0J      1     0.1019     1.0080 
    21   opls_820      1    UNK   H0K      1     0.0932     1.0080 
    22   opls_821      1    UNK   H0M      1     0.0932     1.0080 
    23   opls_822      1    UNK   H0N      1     0.0932     1.0080 
    24   opls_823      1    UNK   H0O      1     0.0937     1.0080 
    25   opls_824      1    UNK   H0P      1     0.0937     1.0080 
    26   opls_825      1    UNK   H0Q      1     0.0937     1.0080 
    27   opls_826      1    UNK   H0R      1     0.1571     1.0080 
[ bonds ]
    2     1     1      0.1529 224262.400
    3     2     1      0.1529 224262.400
    4     3     1      0.1529 224262.400
    5     4     1      0.1529 224262.400
    6     5     1      0.1529 224262.400
    7     5     1      0.1529 224262.400
    8     5     1      0.1529 224262.400
    9     8     1      0.1781 205016.000
   10     8     1      0.1470 326352.000
   11    10     1      0.1157 543920.000
   12     1     1      0.1090 284512.000
   13     1     1      0.1090 284512.000
   14     1     1      0.1090 284512.000
   15     2     1      0.1090 284512.000
   16     2     1      0.1090 284512.000
   17     3     1      0.1090 284512.000
   18     3     1      0.1090 284512.000
   19     4     1      0.1090 284512.000
   20     4     1      0.1090 284512.000
   21     6     1      0.1090 284512.000
   22     6     1      0.1090 284512.000
   23     6     1      0.1090 284512.000
   24     7     1      0.1090 284512.000
   25     7     1      0.1090 284512.000
   26     7     1      0.1090 284512.000
   27     8     1      0.1090 284512.000

[ angles ]
;  ai    aj    ak funct            c0            c1            c2            c3 
    1     2     3     1    112.700    488.273
    2     3     4     1    112.700    488.273
    3     4     5     1    112.700    488.273
    4     5     6     1    112.700    488.273
    4     5     7     1    112.700    488.273
    4     5     8     1    112.700    488.273
    5     8     9     1    109.800    577.392
    5     8    10     1    112.700    488.273
    8    10    11     1    180.000   1255.200
    2     1    12     1    110.700    313.800
    2     1    13     1    110.700    313.800
    2     1    14     1    110.700    313.800
    1     2    15     1    110.700    313.800
    1     2    16     1    110.700    313.800
    2     3    17     1    110.700    313.800
    2     3    18     1    110.700    313.800
    3     4    19     1    110.700    313.800
    3     4    20     1    110.700    313.800
    5     6    21     1    110.700    313.800
    5     6    22     1    110.700    313.800
    5     6    23     1    110.700    313.800
    5     7    24     1    110.700    313.800
    5     7    25     1    110.700    313.800
    5     7    26     1    110.700    313.800
    5     8    27     1    110.700    313.800
    3     2    15     1    110.700    313.800
   13     1    14     1    107.800    276.144
   15     2    16     1    107.800    276.144
   21     6    22     1    107.800    276.144
   10     8    27     1    108.500    292.880
    9     8    10     1    110.580    432.207
   19     4    20     1    107.800    276.144
    3     2    16     1    110.700    313.800
   12     1    14     1    107.800    276.144
    4     3    18     1    110.700    313.800
    9     8    27     1    107.600    426.768
    6     5     7     1    112.700    488.273
   12     1    13     1    107.800    276.144
   22     6    23     1    107.800    276.144
    5     4    19     1    110.700    313.800
   25     7    26     1    107.800    276.144
    6     5     8     1    112.700    488.273
   24     7    26     1    107.800    276.144
    5     4    20     1    110.700    313.800
    7     5     8     1    112.700    488.273
    4     3    17     1    110.700    313.800
   17     3    18     1    107.800    276.144
   24     7    25     1    107.800    276.144
   21     6    23     1    107.800    276.144

[ dihedrals ]
; IMPROPER DIHEDRAL ANGLES 
;  ai    aj    ak    al funct            c0            c1            c2            c3            c4            c5

[ dihedrals ]
; PROPER DIHEDRAL ANGLES
;  ai    aj    ak    al funct            c0            c1            c2            c3            c4            c5
    4    3    2    1        3       2.301  -1.464   0.837  -1.674  -0.000   0.000
    8    5    4    3        3       2.301  -1.464   0.837  -1.674  -0.000   0.000
    7    5    4    3        3       2.301  -1.464   0.837  -1.674  -0.000   0.000
    6    5    4    3        3       2.301  -1.464   0.837  -1.674  -0.000   0.000
    5    4    3    2        3       2.301  -1.464   0.837  -1.674  -0.000   0.000
   10    8    5    7        3      -2.720   0.000   2.720  -0.000  -0.000   0.000
   10    8    5    6        3      -2.720   0.000   2.720  -0.000  -0.000   0.000
   10    8    5    4        3      -2.720   0.000   2.720  -0.000  -0.000   0.000
    9    8    5    4        3       0.837   2.510   0.000  -3.347  -0.000   0.000
    9    8    5    6        3       0.837   2.510   0.000  -3.347  -0.000   0.000
    9    8    5    7        3       0.837   2.510   0.000  -3.347  -0.000   0.000
   23    6    5    4        3       0.628   1.883   0.000  -2.510  -0.000   0.000
   22    6    5    7        3       0.628   1.883   0.000  -2.510  -0.000   0.000
   23    6    5    8        3       0.628   1.883   0.000  -2.510  -0.000   0.000
   22    6    5    4        3       0.628   1.883   0.000  -2.510  -0.000   0.000
   17    3    4    5        3       0.628   1.883   0.000  -2.510  -0.000   0.000
   19    4    3    2        3       0.628   1.883   0.000  -2.510  -0.000   0.000
   19    4    5    8        3       0.628   1.883   0.000  -2.510  -0.000   0.000
   20    4    5    7        3       0.628   1.883   0.000  -2.510  -0.000   0.000
   20    4    3    2        3       0.628   1.883   0.000  -2.510  -0.000   0.000
   26    7    5    8        3       0.628   1.883   0.000  -2.510  -0.000   0.000
   19    4    5    6        3       0.628   1.883   0.000  -2.510  -0.000   0.000
   14    1    2    3        3       0.628   1.883   0.000  -2.510  -0.000   0.000
   24    7    5    8        3       0.628   1.883   0.000  -2.510  -0.000   0.000
   18    3    4    5        3       0.628   1.883   0.000  -2.510  -0.000   0.000
   20    4    5    8        3       0.628   1.883   0.000  -2.510  -0.000   0.000
   24    7    5    6        3       0.628   1.883   0.000  -2.510  -0.000   0.000
   25    7    5    4        3       0.628   1.883   0.000  -2.510  -0.000   0.000
   22    6    5    8        3       0.628   1.883   0.000  -2.510  -0.000   0.000
   23    6    5    7        3       0.628   1.883   0.000  -2.510  -0.000   0.000
   27    8    5    4        3       0.628   1.883   0.000  -2.510  -0.000   0.000
   21    6    5    7        3       0.628   1.883   0.000  -2.510  -0.000   0.000
   26    7    5    6        3       0.628   1.883   0.000  -2.510  -0.000   0.000
   17    3    2    1        3       0.628   1.883   0.000  -2.510  -0.000   0.000
   27    8    5    7        3       0.628   1.883   0.000  -2.510  -0.000   0.000
   25    7    5    8        3       0.628   1.883   0.000  -2.510  -0.000   0.000
   25    7    5    6        3       0.628   1.883   0.000  -2.510  -0.000   0.000
   16    2    3    4        3       0.628   1.883   0.000  -2.510  -0.000   0.000
   27    8    5    6        3       0.628   1.883   0.000  -2.510  -0.000   0.000
   15    2    3    4        3       0.628   1.883   0.000  -2.510  -0.000   0.000
   24    7    5    4        3       0.628   1.883   0.000  -2.510  -0.000   0.000
   26    7    5    4        3       0.628   1.883   0.000  -2.510  -0.000   0.000
   21    6    5    4        3       0.628   1.883   0.000  -2.510  -0.000   0.000
   18    3    2    1        3       0.628   1.883   0.000  -2.510  -0.000   0.000
   19    4    5    7        3       0.628   1.883   0.000  -2.510  -0.000   0.000
   20    4    5    6        3       0.628   1.883   0.000  -2.510  -0.000   0.000
   12    1    2    3        3       0.628   1.883   0.000  -2.510  -0.000   0.000
   21    6    5    8        3       0.628   1.883   0.000  -2.510  -0.000   0.000
   13    1    2    3        3       0.628   1.883   0.000  -2.510  -0.000   0.000
   16    2    1   14        3       0.628   1.883   0.000  -2.510  -0.000   0.000
   15    2    1   13        3       0.628   1.883   0.000  -2.510  -0.000   0.000
   17    3    2   16        3       0.628   1.883   0.000  -2.510  -0.000   0.000
   18    3    2   15        3       0.628   1.883   0.000  -2.510  -0.000   0.000
   20    4    3   17        3       0.628   1.883   0.000  -2.510  -0.000   0.000
   18    3    2   16        3       0.628   1.883   0.000  -2.510  -0.000   0.000
   17    3    2   15        3       0.628   1.883   0.000  -2.510  -0.000   0.000
   16    2    1   13        3       0.628   1.883   0.000  -2.510  -0.000   0.000
   16    2    1   12        3       0.628   1.883   0.000  -2.510  -0.000   0.000
   20    4    3   18        3       0.628   1.883   0.000  -2.510  -0.000   0.000
   19    4    3   17        3       0.628   1.883   0.000  -2.510  -0.000   0.000
   15    2    1   12        3       0.628   1.883   0.000  -2.510  -0.000   0.000
   19    4    3   18        3       0.628   1.883   0.000  -2.510  -0.000   0.000
   15    2    1   14        3       0.628   1.883   0.000  -2.510  -0.000   0.000
   27    8   10   11        3       0.000   0.000   0.000  -0.000  -0.000   0.000
   11   10    8    5        3       0.000   0.000   0.000  -0.000  -0.000   0.000
   11   10    8    9        3       0.000   0.000   0.000  -0.000  -0.000   0.000

[ pairs ]
     1     4    1
     2     5    1
     3     6    1
     3     7    1
     3     8    1
     4     9    1
     4    10    1
     6     9    1
     3    12    1
     7     9    1
     6    10    1
     5    11    1
     3    13    1
     7    10    1
     3    14    1
     1    17    1
     4    15    1
     1    18    1
     9    11    1
     4    16    1
     2    19    1
     5    17    1
     2    20    1
     5    18    1
     6    19    1
     4    21    1
     7    19    1
     6    20    1
     4    22    1
    12    15    1
     8    19    1
     7    20    1
     4    23    1
    13    15    1
    12    16    1
     8    20    1
     7    21    1
     4    24    1
    14    15    1
    13    16    1
     8    21    1
     7    22    1
     4    25    1
    14    16    1
     8    22    1
     7    23    1
     6    24    1
     4    26    1
     8    23    1
     6    25    1
     4    27    1
    15    17    1
     8    24    1
     6    26    1
    16    17    1
    15    18    1
     8    25    1
     6    27    1
    16    18    1
     8    26    1
     7    27    1
    17    19    1
    18    19    1
    17    20    1
    18    20    1
    11    27    1

