LIGPARGEN GENERATED GRO FILE
   27
    1UNK    C00    1   0.100   0.100   0.000
    1UNK    C01    2  -0.052   0.100   0.000
    1UNK    C02    3  -0.107   0.100   0.143
    1UNK    C03    4  -0.260   0.100   0.145
    1UNK    C04    5  -0.326   0.100   0.287
    1UNK    C05    6  -0.281  -0.025   0.366
    1UNK    C06    7  -0.278   0.224   0.367
    1UNK    C07    8  -0.482   0.100   0.278
    1UNK    Cl0    9  -0.548   0.248   0.199
    1UNK    C09   10  -0.537  -0.017   0.206
    1UNK    N0A   11  -0.581  -0.108   0.150
    1UNK    H0B   12   0.138   0.100  -0.103
    1UNK    H0C   13   0.139   0.011   0.051
    1UNK    H0D   14   0.139   0.189   0.051
    1UNK    H0E   15  -0.088   0.012  -0.054
    1UNK    H0F   16  -0.088   0.188  -0.054
    1UNK    H0G   17  -0.068   0.188   0.195
    1UNK    H0H   18  -0.068   0.012   0.195
    1UNK    H0I   19  -0.294   0.012   0.089
    1UNK    H0J   20  -0.294   0.188   0.089
    1UNK    H0K   21  -0.174  -0.024   0.388
    1UNK    H0M   22  -0.302  -0.118   0.310
    1UNK    H0N   23  -0.333  -0.031   0.462
    1UNK    H0O   24  -0.171   0.219   0.389
    1UNK    H0P   25  -0.330   0.229   0.464
    1UNK    H0Q   26  -0.297   0.317   0.313
    1UNK    H0R   27  -0.524   0.101   0.379
   1.00000   1.00000   1.00000

