LIGPARGEN GENERATED GRO FILE
   35
    1UNK    C00    1   0.100   0.100   0.000
    1UNK    C01    2  -0.052   0.100   0.000
    1UNK    C02    3  -0.105   0.100   0.143
    1UNK    O03    4  -0.248   0.106   0.145
    1UNK    C04    5  -0.311  -0.004   0.193
    1UNK    O05    6  -0.262  -0.116   0.203
    1UNK    C06    7  -0.452   0.029   0.240
    1UNK    C07    8  -0.443   0.139   0.347
    1UNK    C08    9  -0.544   0.070   0.125
    1UNK    C09   10  -0.565  -0.039   0.019
    1UNK    C0A   11  -0.631  -0.166   0.072
    1UNK    O0B   12  -0.646  -0.262  -0.034
    1UNK    C0C   13  -0.759  -0.250  -0.109
    1UNK    C0D   14  -0.762  -0.355  -0.215
    1UNK    O0E   15  -0.846  -0.165  -0.094
    1UNK    H0F   16   0.139   0.100  -0.102
    1UNK    H0G   17   0.139   0.011   0.051
    1UNK    H0H   18   0.139   0.189   0.051
    1UNK    H0I   19  -0.090   0.013  -0.054
    1UNK    H0J   20  -0.090   0.188  -0.054
    1UNK    H0K   21  -0.070   0.190   0.195
    1UNK    H0M   22  -0.066   0.014   0.199
    1UNK    H0N   23  -0.491  -0.060   0.290
    1UNK    H0O   24  -0.405   0.233   0.305
    1UNK    H0P   25  -0.374   0.109   0.427
    1UNK    H0Q   26  -0.541   0.158   0.391
    1UNK    H0R   27  -0.505   0.159   0.076
    1UNK    H0S   28  -0.642   0.098   0.167
    1UNK    H0T   29  -0.470  -0.064  -0.029
    1UNK    H0U   30  -0.628   0.003  -0.061
    1UNK    H0V   31  -0.727  -0.145   0.121
    1UNK    H0W   32  -0.567  -0.214   0.147
    1UNK    H0X   33  -0.676  -0.422  -0.207
    1UNK    H0Y   34  -0.760  -0.307  -0.314
    1UNK    H0Z   35  -0.853  -0.415  -0.204
   1.00000   1.00000   1.00000

