LIGPARGEN GENERATED GRO FILE
   36
    1UNK    C00    1   0.100   0.100   0.000
    1UNK    C01    2  -0.050   0.100   0.000
    1UNK    O02    3  -0.117   0.100   0.102
    1UNK    O03    4  -0.097   0.094  -0.128
    1UNK    C04    5  -0.239   0.082  -0.155
    1UNK    C05    6  -0.310   0.207  -0.100
    1UNK    C06    7  -0.251   0.086  -0.309
    1UNK    C07    8  -0.190  -0.036  -0.379
    1UNK    C08    9  -0.243  -0.168  -0.324
    1UNK    C09   10  -0.231  -0.180  -0.171
    1UNK    C0A   11  -0.082  -0.198  -0.132
    1UNK    C0B   12  -0.300  -0.311  -0.125
    1UNK    C0C   13  -0.297  -0.054  -0.101
    1UNK    C0D   14  -0.451  -0.057  -0.113
    1UNK    H0E   15   0.136   0.006   0.043
    1UNK    H0F   16   0.136   0.185   0.058
    1UNK    H0G   17   0.139   0.108  -0.102
    1UNK    H0H   18  -0.254   0.298  -0.125
    1UNK    H0I   19  -0.317   0.205   0.010
    1UNK    H0J   20  -0.411   0.218  -0.139
    1UNK    H0K   21  -0.200   0.175  -0.348
    1UNK    H0M   22  -0.356   0.094  -0.339
    1UNK    H0N   23  -0.081  -0.032  -0.370
    1UNK    H0O   24  -0.212  -0.030  -0.486
    1UNK    H0P   25  -0.189  -0.251  -0.373
    1UNK    H0Q   26  -0.348  -0.178  -0.355
    1UNK    H0R   27  -0.044  -0.294  -0.168
    1UNK    H0S   28  -0.069  -0.196  -0.023
    1UNK    H0T   29  -0.017  -0.122  -0.176
    1UNK    H0U   30  -0.247  -0.399  -0.162
    1UNK    H0V   31  -0.403  -0.319  -0.162
    1UNK    H0W   32  -0.302  -0.318  -0.015
    1UNK    H0X   33  -0.275  -0.062   0.006
    1UNK    H0Y   34  -0.486  -0.055  -0.216
    1UNK    H0Z   35  -0.497   0.028  -0.061
    1UNK    H10   36  -0.493  -0.146  -0.065
   1.00000   1.00000   1.00000

