
;
; GENERATED BY LigParGen Server
; Jorgensen Lab @ Yale University 
;
[ atomtypes ]
  opls_818  H818     1.0080     0.000    A    2.50000E-01   1.25520E-01
  opls_824  H824     1.0080     0.000    A    2.50000E-01   1.25520E-01
  opls_809  O809    15.9990     0.000    A    2.90000E-01   5.85760E-01
  opls_836  H836     1.0080     0.000    A    2.50000E-01   1.25520E-01
  opls_834  H834     1.0080     0.000    A    2.50000E-01   1.25520E-01
  opls_828  H828     1.0080     0.000    A    2.50000E-01   1.25520E-01
  opls_814  C814    12.0110     0.000    A    3.55000E-01   2.92880E-01
  opls_832  H832     1.0080     0.000    A    2.50000E-01   1.25520E-01
  opls_802  C802    12.0110     0.000    A    3.50000E-01   2.76144E-01
  opls_827  H827     1.0080     0.000    A    2.50000E-01   1.25520E-01
  opls_801  C801    12.0110     0.000    A    3.50000E-01   2.76144E-01
  opls_838  H838     1.0080     0.000    A    2.50000E-01   1.25520E-01
  opls_822  H822     1.0080     0.000    A    2.50000E-01   1.25520E-01
  opls_803  C803    12.0110     0.000    A    3.50000E-01   2.76144E-01
  opls_805  C805    12.0110     0.000    A    3.50000E-01   2.76144E-01
  opls_825  H825     1.0080     0.000    A    2.50000E-01   1.25520E-01
  opls_830  H830     1.0080     0.000    A    2.50000E-01   1.25520E-01
  opls_810  C810    12.0110     0.000    A    3.50000E-01   2.76144E-01
  opls_820  H820     1.0080     0.000    A    2.50000E-01   1.25520E-01
  opls_837  H837     1.0080     0.000    A    2.50000E-01   1.25520E-01
  opls_821  H821     1.0080     0.000    A    2.50000E-01   1.25520E-01
  opls_831  H831     1.0080     0.000    A    2.50000E-01   1.25520E-01
  opls_816  H816     1.0080     0.000    A    2.50000E-01   1.25520E-01
  opls_800  C800    12.0110     0.000    A    3.50000E-01   2.76144E-01
  opls_808  O808    15.9990     0.000    A    2.96000E-01   8.78640E-01
  opls_811  C811    12.0110     0.000    A    3.50000E-01   2.76144E-01
  opls_806  C806    12.0110     0.000    A    3.55000E-01   2.92880E-01
  opls_823  H823     1.0080     0.000    A    2.50000E-01   1.25520E-01
  opls_813  C813    12.0110     0.000    A    3.50000E-01   2.76144E-01
  opls_826  H826     1.0080     0.000    A    2.50000E-01   1.25520E-01
  opls_835  H835     1.0080     0.000    A    2.50000E-01   1.25520E-01
  opls_819  H819     1.0080     0.000    A    2.50000E-01   1.25520E-01
  opls_804  C804    12.0110     0.000    A    3.50000E-01   2.76144E-01
  opls_833  H833     1.0080     0.000    A    2.50000E-01   1.25520E-01
  opls_839  H839     1.0080     0.000    A    2.50000E-01   1.25520E-01
  opls_812  C812    12.0110     0.000    A    3.50000E-01   2.76144E-01
  opls_815  O815    15.9990     0.000    A    2.96000E-01   8.78640E-01
  opls_817  H817     1.0080     0.000    A    2.50000E-01   1.25520E-01
  opls_829  H829     1.0080     0.000    A    2.50000E-01   1.25520E-01
  opls_807  C807    12.0110     0.000    A    3.50000E-01   2.76144E-01
[ moleculetype ]
; Name               nrexcl
UNK                   3
[ atoms ]
;   nr       type  resnr residue  atom   cgnr     charge       mass  
     1   opls_800      1    UNK   C00      1    -0.2401    12.0110 
     2   opls_801      1    UNK   C01      1    -0.1744    12.0110 
     3   opls_802      1    UNK   C02      1    -0.2137    12.0110 
     4   opls_803      1    UNK   C03      1      0.074    12.0110 
     5   opls_804      1    UNK   C04      1    -0.1675    12.0110 
     6   opls_805      1    UNK   C05      1    -0.2285    12.0110 
     7   opls_806      1    UNK   C06      1     0.3586    12.0110 
     8   opls_807      1    UNK   C07      1    -0.3032    12.0110 
     9   opls_808      1    UNK   O08      1    -0.4579    15.9990 
    10   opls_809      1    UNK   O09      1    -0.3878    15.9990 
    11   opls_810      1    UNK   C0A      1     0.0104    12.0110 
    12   opls_811      1    UNK   C0B      1    -0.2172    12.0110 
    13   opls_812      1    UNK   C0C      1    -0.1635    12.0110 
    14   opls_813      1    UNK   C0D      1    -0.2565    12.0110 
    15   opls_814      1    UNK   C0E      1     0.3121    12.0110 
    16   opls_815      1    UNK   O0F      1     -0.445    15.9990 
    17   opls_816      1    UNK   H0G      1     0.0826     1.0080 
    18   opls_817      1    UNK   H0H      1     0.0826     1.0080 
    19   opls_818      1    UNK   H0I      1     0.0826     1.0080 
    20   opls_819      1    UNK   H0J      1     0.0934     1.0080 
    21   opls_820      1    UNK   H0K      1     0.0934     1.0080 
    22   opls_821      1    UNK   H0M      1     0.0967     1.0080 
    23   opls_822      1    UNK   H0N      1     0.0967     1.0080 
    24   opls_823      1    UNK   H0O      1     0.0875     1.0080 
    25   opls_824      1    UNK   H0P      1     0.1161     1.0080 
    26   opls_825      1    UNK   H0Q      1     0.1161     1.0080 
    27   opls_826      1    UNK   H0R      1     0.1269     1.0080 
    28   opls_827      1    UNK   H0S      1     0.1269     1.0080 
    29   opls_828      1    UNK   H0T      1     0.1169     1.0080 
    30   opls_829      1    UNK   H0U      1     0.1169     1.0080 
    31   opls_830      1    UNK   H0V      1     0.1169     1.0080 
    32   opls_831      1    UNK   H0W      1      0.095     1.0080 
    33   opls_832      1    UNK   H0X      2      0.095     1.0080 
    34   opls_833      1    UNK   H0Y      2     0.0974     1.0080 
    35   opls_834      1    UNK   H0Z      2     0.0974     1.0080 
    36   opls_835      1    UNK   H10      2     0.1072     1.0080 
    37   opls_836      1    UNK   H11      2     0.1072     1.0080 
    38   opls_837      1    UNK   H12      2     0.1232     1.0080 
    39   opls_838      1    UNK   H13      2     0.1232     1.0080 
    40   opls_839      1    UNK   H14      2     0.1027     1.0080 
[ bonds ]
    2     1     1      0.1529 224262.400
    3     2     1      0.1529 224262.400
    4     3     1      0.1529 224262.400
    5     4     1      0.1529 224262.400
    6     5     1      0.1529 224262.400
    7     6     1      0.1522 265265.600
    8     7     1      0.1522 265265.600
    9     7     1      0.1229 476976.000
   10     4     1      0.1410 267776.000
   11    10     1      0.1410 267776.000
   12    11     1      0.1529 224262.400
   13    12     1      0.1529 224262.400
   14    13     1      0.1529 224262.400
   15    14     1      0.1522 265265.600
   16    15     1      0.1229 476976.000
   17     1     1      0.1090 284512.000
   18     1     1      0.1090 284512.000
   19     1     1      0.1090 284512.000
   20     2     1      0.1090 284512.000
   21     2     1      0.1090 284512.000
   22     3     1      0.1090 284512.000
   23     3     1      0.1090 284512.000
   24     4     1      0.1090 284512.000
   25     5     1      0.1090 284512.000
   26     5     1      0.1090 284512.000
   27     6     1      0.1090 284512.000
   28     6     1      0.1090 284512.000
   29     8     1      0.1090 284512.000
   30     8     1      0.1090 284512.000
   31     8     1      0.1090 284512.000
   32    11     1      0.1090 284512.000
   33    11     1      0.1090 284512.000
   34    12     1      0.1090 284512.000
   35    12     1      0.1090 284512.000
   36    13     1      0.1090 284512.000
   37    13     1      0.1090 284512.000
   38    14     1      0.1090 284512.000
   39    14     1      0.1090 284512.000
   40    15     1      0.1090 284512.000

[ angles ]
;  ai    aj    ak funct            c0            c1            c2            c3 
    1     2     3     1    112.700    488.273
    2     3     4     1    112.700    488.273
    3     4     5     1    112.700    488.273
    4     5     6     1    112.700    488.273
    5     6     7     1    111.100    527.184
    6     7     8     1    116.000    585.760
    6     7     9     1    120.400    669.440
    3     4    10     1    109.500    418.400
    4    10    11     1    109.500    502.080
   10    11    12     1    109.500    418.400
   11    12    13     1    112.700    488.273
   12    13    14     1    112.700    488.273
   13    14    15     1    111.100    527.184
   14    15    16     1    120.400    669.440
    2     1    17     1    110.700    313.800
    2     1    18     1    110.700    313.800
    2     1    19     1    110.700    313.800
    1     2    20     1    110.700    313.800
    1     2    21     1    110.700    313.800
    2     3    22     1    110.700    313.800
    2     3    23     1    110.700    313.800
    3     4    24     1    110.700    313.800
    4     5    25     1    110.700    313.800
    4     5    26     1    110.700    313.800
    5     6    27     1    110.700    313.800
    5     6    28     1    110.700    313.800
    7     8    29     1    109.500    292.880
    7     8    30     1    109.500    292.880
    7     8    31     1    109.500    292.880
   10    11    32     1    109.500    292.880
   10    11    33     1    109.500    292.880
   11    12    34     1    110.700    313.800
   11    12    35     1    110.700    313.800
   12    13    36     1    110.700    313.800
   12    13    37     1    110.700    313.800
   13    14    38     1    110.700    313.800
   13    14    39     1    110.700    313.800
   14    15    40     1    115.000    292.880
   17     1    19     1    107.800    276.144
    3     2    20     1    110.700    313.800
   16    15    40     1    123.000    292.880
   34    12    35     1    107.800    276.144
   12    11    32     1    110.700    313.800
    3     2    21     1    110.700    313.800
   14    13    37     1    110.700    313.800
   17     1    18     1    107.800    276.144
   27     6    28     1    107.800    276.144
    5     4    24     1    110.700    313.800
   12    11    33     1    110.700    313.800
    4     3    22     1    110.700    313.800
    7     6    28     1    109.500    292.880
    8     7     9     1    120.400    669.440
   29     8    31     1    107.800    276.144
   22     3    23     1    107.800    276.144
    4     3    23     1    110.700    313.800
   13    12    35     1    110.700    313.800
   38    14    39     1    107.800    276.144
   32    11    33     1    107.800    276.144
   10     4    24     1    109.500    292.880
    7     6    27     1    109.500    292.880
   25     5    26     1    107.800    276.144
   29     8    30     1    107.800    276.144
    6     5    26     1    110.700    313.800
   20     2    21     1    107.800    276.144
   30     8    31     1    107.800    276.144
   13    12    34     1    110.700    313.800
   14    13    36     1    110.700    313.800
    6     5    25     1    110.700    313.800
   18     1    19     1    107.800    276.144
    5     4    10     1    109.500    418.400
   15    14    38     1    109.500    292.880
   36    13    37     1    107.800    276.144
   15    14    39     1    109.500    292.880

[ dihedrals ]
; IMPROPER DIHEDRAL ANGLES 
;  ai    aj    ak    al funct            c0            c1            c2            c3            c4            c5
    40    15    14    16    4        180.000     43.932     2  
     9     7     6     8    4        180.000     43.932     2  

[ dihedrals ]
; PROPER DIHEDRAL ANGLES
;  ai    aj    ak    al funct            c0            c1            c2            c3            c4            c5
    7    6    5    4        3      -4.960   6.286   1.310  -2.636  -0.000   0.000
   15   14   13   12        3      -4.960   6.286   1.310  -2.636  -0.000   0.000
    8    7    6    5        3       0.818  -7.906   0.602   6.485  -0.000   0.000
    4    3    2    1        3       2.301  -1.464   0.837  -1.674  -0.000   0.000
    5    4    3    2        3       2.301  -1.464   0.837  -1.674  -0.000   0.000
    6    5    4    3        3       2.301  -1.464   0.837  -1.674  -0.000   0.000
   14   13   12   11        3       2.301  -1.464   0.837  -1.674  -0.000   0.000
   13   12   11   10        3       2.874   0.582   2.092  -5.548  -0.000   0.000
   12   11   10    4        3       1.715   2.845   1.046  -5.607  -0.000   0.000
   11   10    4    5        3       1.715   2.845   1.046  -5.607  -0.000   0.000
   11   10    4    3        3       1.715   2.845   1.046  -5.607  -0.000   0.000
   40   15   14   13        3       0.000   0.000   0.000  -0.000  -0.000   0.000
   40   15   14   39        3       0.753   2.259   0.000  -3.012  -0.000   0.000
   40   15   14   38        3       0.753   2.259   0.000  -3.012  -0.000   0.000
   30    8    7    6        3       0.575   1.726   0.000  -2.301  -0.000   0.000
   27    6    7    8        3       0.575   1.726   0.000  -2.301  -0.000   0.000
   31    8    7    6        3       0.575   1.726   0.000  -2.301  -0.000   0.000
   29    8    7    6        3       0.575   1.726   0.000  -2.301  -0.000   0.000
   28    6    7    8        3       0.575   1.726   0.000  -2.301  -0.000   0.000
   38   14   15   16        3       0.000   0.000   0.000  -0.000  -0.000   0.000
   31    8    7    9        3       0.000   0.000   0.000  -0.000  -0.000   0.000
   27    6    7    9        3       0.000   0.000   0.000  -0.000  -0.000   0.000
   28    6    7    9        3       0.000   0.000   0.000  -0.000  -0.000   0.000
   29    8    7    9        3       0.000   0.000   0.000  -0.000  -0.000   0.000
   39   14   15   16        3       0.000   0.000   0.000  -0.000  -0.000   0.000
   30    8    7    9        3       0.000   0.000   0.000  -0.000  -0.000   0.000
   26    5    6    7        3      -0.209  -0.628   0.000   0.837  -0.000   0.000
   36   13   14   15        3      -0.209  -0.628   0.000   0.837  -0.000   0.000
   25    5    6    7        3      -0.209  -0.628   0.000   0.837  -0.000   0.000
   37   13   14   15        3      -0.209  -0.628   0.000   0.837  -0.000   0.000
   23    3    4    5        3       0.628   1.883   0.000  -2.510  -0.000   0.000
   36   13   12   11        3       0.628   1.883   0.000  -2.510  -0.000   0.000
   22    3    4    5        3       0.628   1.883   0.000  -2.510  -0.000   0.000
   28    6    5    4        3       0.628   1.883   0.000  -2.510  -0.000   0.000
   17    1    2    3        3       0.628   1.883   0.000  -2.510  -0.000   0.000
   23    3    2    1        3       0.628   1.883   0.000  -2.510  -0.000   0.000
   39   14   13   12        3       0.628   1.883   0.000  -2.510  -0.000   0.000
   24    4    5    6        3       0.628   1.883   0.000  -2.510  -0.000   0.000
   24    4    3    2        3       0.628   1.883   0.000  -2.510  -0.000   0.000
   35   12   13   14        3       0.628   1.883   0.000  -2.510  -0.000   0.000
   27    6    5    4        3       0.628   1.883   0.000  -2.510  -0.000   0.000
   34   12   13   14        3       0.628   1.883   0.000  -2.510  -0.000   0.000
   33   11   12   13        3       0.628   1.883   0.000  -2.510  -0.000   0.000
   20    2    3    4        3       0.628   1.883   0.000  -2.510  -0.000   0.000
   21    2    3    4        3       0.628   1.883   0.000  -2.510  -0.000   0.000
   22    3    2    1        3       0.628   1.883   0.000  -2.510  -0.000   0.000
   38   14   13   12        3       0.628   1.883   0.000  -2.510  -0.000   0.000
   18    1    2    3        3       0.628   1.883   0.000  -2.510  -0.000   0.000
   37   13   12   11        3       0.628   1.883   0.000  -2.510  -0.000   0.000
   26    5    4    3        3       0.628   1.883   0.000  -2.510  -0.000   0.000
   32   11   12   13        3       0.628   1.883   0.000  -2.510  -0.000   0.000
   25    5    4    3        3       0.628   1.883   0.000  -2.510  -0.000   0.000
   19    1    2    3        3       0.628   1.883   0.000  -2.510  -0.000   0.000
   28    6    5   25        3       0.628   1.883   0.000  -2.510  -0.000   0.000
   38   14   13   37        3       0.628   1.883   0.000  -2.510  -0.000   0.000
   26    5    4   24        3       0.628   1.883   0.000  -2.510  -0.000   0.000
   22    3    2   20        3       0.628   1.883   0.000  -2.510  -0.000   0.000
   20    2    1   17        3       0.628   1.883   0.000  -2.510  -0.000   0.000
   39   14   13   36        3       0.628   1.883   0.000  -2.510  -0.000   0.000
   21    2    1   19        3       0.628   1.883   0.000  -2.510  -0.000   0.000
   28    6    5   26        3       0.628   1.883   0.000  -2.510  -0.000   0.000
   27    6    5   26        3       0.628   1.883   0.000  -2.510  -0.000   0.000
   23    3    2   21        3       0.628   1.883   0.000  -2.510  -0.000   0.000
   36   13   12   35        3       0.628   1.883   0.000  -2.510  -0.000   0.000
   24    4    3   22        3       0.628   1.883   0.000  -2.510  -0.000   0.000
   24    4    3   23        3       0.628   1.883   0.000  -2.510  -0.000   0.000
   39   14   13   37        3       0.628   1.883   0.000  -2.510  -0.000   0.000
   21    2    1   17        3       0.628   1.883   0.000  -2.510  -0.000   0.000
   20    2    1   18        3       0.628   1.883   0.000  -2.510  -0.000   0.000
   38   14   13   36        3       0.628   1.883   0.000  -2.510  -0.000   0.000
   23    3    2   20        3       0.628   1.883   0.000  -2.510  -0.000   0.000
   22    3    2   21        3       0.628   1.883   0.000  -2.510  -0.000   0.000
   35   12   11   33        3       0.628   1.883   0.000  -2.510  -0.000   0.000
   35   12   11   32        3       0.628   1.883   0.000  -2.510  -0.000   0.000
   37   13   12   35        3       0.628   1.883   0.000  -2.510  -0.000   0.000
   34   12   11   33        3       0.628   1.883   0.000  -2.510  -0.000   0.000
   36   13   12   34        3       0.628   1.883   0.000  -2.510  -0.000   0.000
   37   13   12   34        3       0.628   1.883   0.000  -2.510  -0.000   0.000
   34   12   11   32        3       0.628   1.883   0.000  -2.510  -0.000   0.000
   27    6    5   25        3       0.628   1.883   0.000  -2.510  -0.000   0.000
   20    2    1   19        3       0.628   1.883   0.000  -2.510  -0.000   0.000
   21    2    1   18        3       0.628   1.883   0.000  -2.510  -0.000   0.000
   25    5    4   24        3       0.628   1.883   0.000  -2.510  -0.000   0.000
   26    5    4   10        3       0.979   2.937   0.000  -3.916  -0.000   0.000
   25    5    4   10        3       0.979   2.937   0.000  -3.916  -0.000   0.000
   23    3    4   10        3       0.979   2.937   0.000  -3.916  -0.000   0.000
   22    3    4   10        3       0.979   2.937   0.000  -3.916  -0.000   0.000
   34   12   11   10        3       0.979   2.937   0.000  -3.916  -0.000   0.000
   35   12   11   10        3       0.979   2.937   0.000  -3.916  -0.000   0.000
   33   11   10    4        3       1.590   4.770   0.000  -6.360  -0.000   0.000
   24    4   10   11        3       1.590   4.770   0.000  -6.360  -0.000   0.000
   32   11   10    4        3       1.590   4.770   0.000  -6.360  -0.000   0.000
    9    7    6    5        3       0.000   0.000   0.000  -0.000  -0.000   0.000
   16   15   14   13        3       0.000   0.000   0.000  -0.000  -0.000   0.000
   10    4    3    2        3       2.874   0.582   2.092  -5.548  -0.000   0.000
   10    4    5    6        3       2.874   0.582   2.092  -5.548  -0.000   0.000

[ pairs ]
     1     4    1
     2     5    1
     3     6    1
     4     7    1
     2    10    1
     5     8    1
     5     9    1
     3    11    1
     6    10    1
     5    11    1
     4    12    1
     3    17    1
     3    18    1
     3    19    1
    10    13    1
     1    22    1
     4    20    1
     1    23    1
    11    14    1
     4    21    1
     2    24    1
    12    15    1
     5    22    1
     5    23    1
     3    25    1
    13    16    1
     3    26    1
     6    24    1
     4    27    1
    10    22    1
     7    25    1
     4    28    1
    10    23    1
     7    26    1
    11    24    1
    10    25    1
     8    27    1
     6    29    1
    10    26    1
     9    27    1
     8    28    1
     6    30    1
     4    32    1
    17    20    1
     9    28    1
     6    31    1
     4    33    1
    18    20    1
    17    21    1
     9    29    1
    19    20    1
    18    21    1
     9    30    1
    19    21    1
     9    31    1
    20    22    1
    21    22    1
    20    23    1
    21    23    1
    10    34    1
    13    32    1
    10    35    1
    22    24    1
    13    33    1
    23    24    1
    11    36    1
    14    34    1
    11    37    1
    24    25    1
    14    35    1
    24    26    1
    12    38    1
    15    36    1
    12    39    1
    25    27    1
    15    37    1
    26    27    1
    25    28    1
    13    40    1
    26    28    1
    16    38    1
    16    39    1
    32    34    1
    33    34    1
    32    35    1
    33    35    1
    34    36    1
    35    36    1
    34    37    1
    35    37    1
    36    38    1
    37    38    1
    36    39    1
    37    39    1
    38    40    1
    39    40    1

