LIGPARGEN GENERATED GRO FILE
   40
    1UNK    C00    1   0.100   0.100   0.000
    1UNK    C01    2  -0.052   0.100   0.000
    1UNK    C02    3  -0.105   0.100   0.143
    1UNK    C03    4  -0.258   0.111   0.157
    1UNK    C04    5  -0.330  -0.007   0.090
    1UNK    C05    6  -0.483   0.001   0.095
    1UNK    C06    7  -0.547  -0.116   0.021
    1UNK    C07    8  -0.697  -0.122   0.017
    1UNK    O08    9  -0.480  -0.206  -0.030
    1UNK    O09   10  -0.296   0.111   0.296
    1UNK    C0A   11  -0.242   0.215   0.377
    1UNK    C0B   12  -0.293   0.354   0.338
    1UNK    C0C   13  -0.446   0.364   0.343
    1UNK    C0D   14  -0.501   0.346   0.484
    1UNK    C0E   15  -0.651   0.355   0.491
    1UNK    O0F   16  -0.724   0.376   0.394
    1UNK    H0G   17   0.138   0.100  -0.102
    1UNK    H0H   18   0.139   0.011   0.051
    1UNK    H0I   19   0.139   0.189   0.051
    1UNK    H0J   20  -0.087   0.012  -0.055
    1UNK    H0K   21  -0.088   0.189  -0.053
    1UNK    H0M   22  -0.058   0.185   0.194
    1UNK    H0N   23  -0.070   0.011   0.197
    1UNK    H0O   24  -0.294   0.203   0.110
    1UNK    H0P   25  -0.299  -0.101   0.139
    1UNK    H0Q   26  -0.300  -0.014  -0.015
    1UNK    H0R   27  -0.517   0.093   0.047
    1UNK    H0S   28  -0.519  -0.001   0.199
    1UNK    H0T   29  -0.740  -0.022   0.032
    1UNK    H0U   30  -0.734  -0.189   0.095
    1UNK    H0V   31  -0.729  -0.158  -0.081
    1UNK    H0W   32  -0.133   0.213   0.377
    1UNK    H0X   33  -0.270   0.193   0.480
    1UNK    H0Y   34  -0.260   0.379   0.237
    1UNK    H0Z   35  -0.249   0.429   0.405
    1UNK    H10   36  -0.491   0.290   0.275
    1UNK    H11   37  -0.476   0.463   0.305
    1UNK    H12   38  -0.460   0.422   0.551
    1UNK    H13   39  -0.475   0.247   0.524
    1UNK    H14   40  -0.694   0.342   0.592
   1.00000   1.00000   1.00000

