LIGPARGEN GENERATED GRO FILE
   51
    1UNK    C00    1   0.100   0.100   0.000
    1UNK    C01    2  -0.052   0.100   0.000
    1UNK    C02    3  -0.107   0.100   0.143
    1UNK    C03    4  -0.262   0.111   0.165
    1UNK    C04    5  -0.346  -0.013   0.112
    1UNK    C05    6  -0.498   0.008   0.124
    1UNK    C06    7  -0.324  -0.052  -0.035
    1UNK    C07    8  -0.291   0.138   0.321
    1UNK    C08    9  -0.222   0.030   0.408
    1UNK    C09   10  -0.263   0.006   0.554
    1UNK    C0A   11  -0.411   0.008   0.594
    1UNK    C0B   12  -0.507  -0.058   0.496
    1UNK    C0C   13  -0.462   0.145   0.644
    1UNK    C0D   14  -0.452   0.265   0.549
    1UNK    C0E   15  -0.309   0.310   0.516
    1UNK    C0F   16  -0.261   0.283   0.371
    1UNK    C0G   17  -0.323   0.391   0.280
    1UNK    H0H   18   0.138   0.087  -0.102
    1UNK    H0I   19   0.140   0.017   0.060
    1UNK    H0J   20   0.140   0.194   0.040
    1UNK    H0K   21  -0.081   0.010  -0.054
    1UNK    H0M   22  -0.090   0.186  -0.056
    1UNK    H0N   23  -0.060   0.185   0.194
    1UNK    H0O   24  -0.070   0.009   0.193
    1UNK    H0P   25  -0.297   0.197   0.107
    1UNK    H0Q   26  -0.320  -0.101   0.172
    1UNK    H0R   27  -0.532   0.086   0.055
    1UNK    H0S   28  -0.531   0.036   0.223
    1UNK    H0T   29  -0.551  -0.085   0.100
    1UNK    H0U   30  -0.320   0.036  -0.100
    1UNK    H0V   31  -0.404  -0.116  -0.071
    1UNK    H0W   32  -0.233  -0.112  -0.047
    1UNK    H0X   33  -0.398   0.126   0.332
    1UNK    H0Y   34  -0.114   0.051   0.410
    1UNK    H0Z   35  -0.231  -0.067   0.358
    1UNK    H10   36  -0.206   0.071   0.620
    1UNK    H11   37  -0.226  -0.095   0.578
    1UNK    H12   38  -0.416  -0.056   0.684
    1UNK    H13   39  -0.551   0.015   0.427
    1UNK    H14   40  -0.591  -0.103   0.549
    1UNK    H15   41  -0.458  -0.137   0.438
    1UNK    H16   42  -0.408   0.170   0.736
    1UNK    H17   43  -0.567   0.134   0.673
    1UNK    H18   44  -0.501   0.349   0.601
    1UNK    H19   45  -0.513   0.249   0.459
    1UNK    H1A   46  -0.238   0.268   0.588
    1UNK    H1B   47  -0.303   0.418   0.535
    1UNK    H1C   48  -0.153   0.299   0.371
    1UNK    H1D   49  -0.427   0.368   0.256
    1UNK    H1E   50  -0.266   0.400   0.187
    1UNK    H1F   51  -0.320   0.489   0.327
   1.00000   1.00000   1.00000

