LIGPARGEN GENERATED GRO FILE
   35
    1UNK    C00    1   0.100   0.100   0.000
    1UNK    C01    2  -0.053   0.100   0.000
    1UNK    C02    3  -0.119   0.100   0.141
    1UNK    C03    4  -0.064   0.214   0.228
    1UNK    C04    5  -0.103   0.355   0.184
    1UNK    C05    6  -0.274   0.100   0.120
    1UNK    C06    7  -0.373   0.073   0.239
    1UNK    C07    8  -0.333  -0.058   0.311
    1UNK    C08    9  -0.374   0.190   0.341
    1UNK    Cl0   10  -0.497   0.176   0.470
    1UNK    C0A   11  -0.516   0.051   0.178
    1UNK    C0B   12  -0.573   0.170   0.100
    1UNK    Cl1   13  -0.738   0.134   0.043
    1UNK    H0D   14   0.138   0.089  -0.102
    1UNK    H0E   15   0.139   0.017   0.060
    1UNK    H0F   16   0.140   0.194   0.038
    1UNK    H0G   17  -0.086   0.011  -0.055
    1UNK    H0H   18  -0.087   0.186  -0.059
    1UNK    H0I   19  -0.090   0.005   0.188
    1UNK    H0J   20   0.046   0.209   0.231
    1UNK    H0K   21  -0.092   0.199   0.333
    1UNK    H0M   22  -0.093   0.369   0.077
    1UNK    H0N   23  -0.040   0.429   0.234
    1UNK    H0O   24  -0.207   0.378   0.211
    1UNK    H0P   25  -0.294   0.022   0.045
    1UNK    H0Q   26  -0.301   0.194   0.072
    1UNK    H0R   27  -0.234  -0.052   0.356
    1UNK    H0S   28  -0.333  -0.143   0.241
    1UNK    H0T   29  -0.404  -0.083   0.391
    1UNK    H0U   30  -0.392   0.285   0.291
    1UNK    H0V   31  -0.279   0.197   0.394
    1UNK    H0W   32  -0.586   0.024   0.258
    1UNK    H0X   33  -0.513  -0.036   0.111
    1UNK    H0Y   34  -0.513   0.191   0.011
    1UNK    H0Z   35  -0.579   0.260   0.161
   1.00000   1.00000   1.00000

