
;
; GENERATED BY LigParGen Server
; Jorgensen Lab @ Yale University 
;
[ atomtypes ]
  opls_818  H818     1.0080     0.000    A    2.50000E-01   1.25520E-01
  opls_804  C804    12.0110     0.000    A    3.50000E-01   2.76144E-01
  opls_824  H824     1.0080     0.000    A    2.50000E-01   1.25520E-01
  opls_809  O809    15.9990     0.000    A    2.90000E-01   5.85760E-01
  opls_836  H836     1.0080     0.000    A    2.50000E-01   1.25520E-01
  opls_834  H834     1.0080     0.000    A    2.50000E-01   1.25520E-01
  opls_810  C810    12.0110     0.000    A    3.50000E-01   2.76144E-01
  opls_828  H828     1.0080     0.000    A    2.50000E-01   1.25520E-01
  opls_812  O812    15.9990     0.000    A    2.90000E-01   5.85760E-01
  opls_815  O815    15.9990     0.000    A    2.90000E-01   5.85760E-01
  opls_806  C806    12.0110     0.000    A    3.50000E-01   2.76144E-01
  opls_827  H827     1.0080     0.000    A    2.50000E-01   1.25520E-01
  opls_801  C801    12.0110     0.000    A    3.50000E-01   2.76144E-01
  opls_838  H838     1.0080     0.000    A    2.50000E-01   1.25520E-01
  opls_822  H822     1.0080     0.000    A    2.50000E-01   1.25520E-01
  opls_803  C803    12.0110     0.000    A    3.50000E-01   2.76144E-01
  opls_825  H825     1.0080     0.000    A    2.50000E-01   1.25520E-01
  opls_830  H830     1.0080     0.000    A    2.50000E-01   1.25520E-01
  opls_821  H821     1.0080     0.000    A    2.50000E-01   1.25520E-01
  opls_820  H820     1.0080     0.000    A    2.50000E-01   1.25520E-01
  opls_837  H837     1.0080     0.000    A    2.50000E-01   1.25520E-01
  opls_813  C813    12.0110     0.000    A    3.55000E-01   2.92880E-01
  opls_829  H829     1.0080     0.000    A    2.50000E-01   1.25520E-01
  opls_831  H831     1.0080     0.000    A    2.50000E-01   1.25520E-01
  opls_832  H832     1.0080     0.000    A    2.50000E-01   1.25520E-01
  opls_800  C800    12.0110     0.000    A    3.50000E-01   2.76144E-01
  opls_805  C805    12.0110     0.000    A    3.50000E-01   2.76144E-01
  opls_811  C811    12.0110     0.000    A    3.50000E-01   2.76144E-01
  opls_823  H823     1.0080     0.000    A    2.50000E-01   1.25520E-01
  opls_826  H826     1.0080     0.000    A    2.50000E-01   1.25520E-01
  opls_835  H835     1.0080     0.000    A    2.50000E-01   1.25520E-01
  opls_841  H841     1.0080     0.000    A    2.50000E-01   1.25520E-01
  opls_819  H819     1.0080     0.000    A    2.50000E-01   1.25520E-01
  opls_816  C816    12.0110     0.000    A    3.50000E-01   2.76144E-01
  opls_833  H833     1.0080     0.000    A    2.50000E-01   1.25520E-01
  opls_839  H839     1.0080     0.000    A    2.50000E-01   1.25520E-01
  opls_808  C808    12.0110     0.000    A    3.50000E-01   2.76144E-01
  opls_817  H817     1.0080     0.000    A    2.50000E-01   1.25520E-01
  opls_814  O814    15.9990     0.000    A    2.96000E-01   8.78640E-01
  opls_840  H840     1.0080     0.000    A    2.50000E-01   1.25520E-01
  opls_807  C807    12.0110     0.000    A    3.50000E-01   2.76144E-01
  opls_802  N802    14.0070     0.000    A    3.30000E-01   7.11280E-01
[ moleculetype ]
; Name               nrexcl
UNK                   3
[ atoms ]
;   nr       type  resnr residue  atom   cgnr     charge       mass  
     1   opls_800      1    UNK   C00      1    -0.2393    12.0110 
     2   opls_801      1    UNK   C01      1     0.0097    12.0110 
     3   opls_802      1    UNK   N02      1    -0.5745    14.0070 
     4   opls_803      1    UNK   C03      1    -0.0525    12.0110 
     5   opls_804      1    UNK   C04      1     0.0111    12.0110 
     6   opls_805      1    UNK   C05      1    -0.1811    12.0110 
     7   opls_806      1    UNK   C06      1    -0.1757    12.0110 
     8   opls_807      1    UNK   C07      1    -0.2179    12.0110 
     9   opls_808      1    UNK   C08      1     0.0139    12.0110 
    10   opls_809      1    UNK   O09      1    -0.3758    15.9990 
    11   opls_810      1    UNK   C0A      1    -0.0296    12.0110 
    12   opls_811      1    UNK   C0B      1     0.0145    12.0110 
    13   opls_812      1    UNK   O0C      1    -0.3147    15.9990 
    14   opls_813      1    UNK   C0D      1     0.5643    12.0110 
    15   opls_814      1    UNK   O0E      1    -0.4885    15.9990 
    16   opls_815      1    UNK   O0F      1    -0.3159    15.9990 
    17   opls_816      1    UNK   C0G      1    -0.0452    12.0110 
    18   opls_817      1    UNK   H0H      1      0.087     1.0080 
    19   opls_818      1    UNK   H0I      1      0.087     1.0080 
    20   opls_819      1    UNK   H0J      1      0.087     1.0080 
    21   opls_820      1    UNK   H0K      1     0.0807     1.0080 
    22   opls_821      1    UNK   H0M      1     0.0807     1.0080 
    23   opls_822      1    UNK   H0N      1       0.08     1.0080 
    24   opls_823      1    UNK   H0O      1       0.08     1.0080 
    25   opls_824      1    UNK   H0P      1       0.08     1.0080 
    26   opls_825      1    UNK   H0Q      1      0.084     1.0080 
    27   opls_826      1    UNK   H0R      1      0.084     1.0080 
    28   opls_827      1    UNK   H0S      1     0.0962     1.0080 
    29   opls_828      1    UNK   H0T      1     0.0962     1.0080 
    30   opls_829      1    UNK   H0U      1     0.1004     1.0080 
    31   opls_830      1    UNK   H0V      1     0.1004     1.0080 
    32   opls_831      1    UNK   H0W      1     0.0966     1.0080 
    33   opls_832      1    UNK   H0X      2     0.0966     1.0080 
    34   opls_833      1    UNK   H0Y      2     0.0995     1.0080 
    35   opls_834      1    UNK   H0Z      2     0.0995     1.0080 
    36   opls_835      1    UNK   H10      2     0.0927     1.0080 
    37   opls_836      1    UNK   H11      2     0.0927     1.0080 
    38   opls_837      1    UNK   H12      2     0.1352     1.0080 
    39   opls_838      1    UNK   H13      2     0.1352     1.0080 
    40   opls_839      1    UNK   H14      2     0.1085     1.0080 
    41   opls_840      1    UNK   H15      2     0.1085     1.0080 
    42   opls_841      1    UNK   H16      2     0.1085     1.0080 
[ bonds ]
    2     1     1      0.1529 224262.400
    3     2     1      0.1448 319657.600
    4     3     1      0.1448 319657.600
    5     3     1      0.1448 319657.600
    6     5     1      0.1529 224262.400
    7     6     1      0.1529 224262.400
    8     7     1      0.1529 224262.400
    9     8     1      0.1529 224262.400
   10     9     1      0.1410 267776.000
   11    10     1      0.1410 267776.000
   12    11     1      0.1529 224262.400
   13    12     1      0.1410 267776.000
   14    13     1      0.1327 179075.200
   15    14     1      0.1229 476976.000
   16    14     1      0.1327 179075.200
   17    16     1      0.1410 267776.000
   18     1     1      0.1090 284512.000
   19     1     1      0.1090 284512.000
   20     1     1      0.1090 284512.000
   21     2     1      0.1090 284512.000
   22     2     1      0.1090 284512.000
   23     4     1      0.1090 284512.000
   24     4     1      0.1090 284512.000
   25     4     1      0.1090 284512.000
   26     5     1      0.1090 284512.000
   27     5     1      0.1090 284512.000
   28     6     1      0.1090 284512.000
   29     6     1      0.1090 284512.000
   30     7     1      0.1090 284512.000
   31     7     1      0.1090 284512.000
   32     8     1      0.1090 284512.000
   33     8     1      0.1090 284512.000
   34     9     1      0.1090 284512.000
   35     9     1      0.1090 284512.000
   36    11     1      0.1090 284512.000
   37    11     1      0.1090 284512.000
   38    12     1      0.1090 284512.000
   39    12     1      0.1090 284512.000
   40    17     1      0.1090 284512.000
   41    17     1      0.1090 284512.000
   42    17     1      0.1090 284512.000

[ angles ]
;  ai    aj    ak funct            c0            c1            c2            c3 
    1     2     3     1    109.470    470.282
    2     3     4     1    107.200    433.462
    2     3     5     1    107.200    433.462
    3     5     6     1    109.470    470.282
    5     6     7     1    112.700    488.273
    6     7     8     1    112.700    488.273
    7     8     9     1    112.700    488.273
    8     9    10     1    109.500    418.400
    9    10    11     1    109.500    502.080
   10    11    12     1    109.500    418.400
   11    12    13     1    109.500    418.400
   12    13    14     1    116.900    694.544
   13    14    15     1    123.400    694.544
   13    14    16     1    118.180    584.923
   14    16    17     1    116.900    694.544
    2     1    18     1    110.700    313.800
    2     1    19     1    110.700    313.800
    2     1    20     1    110.700    313.800
    1     2    21     1    110.700    313.800
    1     2    22     1    110.700    313.800
    3     4    23     1    109.500    292.880
    3     4    24     1    109.500    292.880
    3     4    25     1    109.500    292.880
    3     5    26     1    109.500    292.880
    3     5    27     1    109.500    292.880
    5     6    28     1    110.700    313.800
    5     6    29     1    110.700    313.800
    6     7    30     1    110.700    313.800
    6     7    31     1    110.700    313.800
    7     8    32     1    110.700    313.800
    7     8    33     1    110.700    313.800
    8     9    34     1    110.700    313.800
    8     9    35     1    110.700    313.800
   10    11    36     1    109.500    292.880
   10    11    37     1    109.500    292.880
   11    12    38     1    110.700    313.800
   11    12    39     1    110.700    313.800
   16    17    40     1    109.500    292.880
   16    17    41     1    109.500    292.880
   16    17    42     1    109.500    292.880
    9     8    32     1    110.700    313.800
   34     9    35     1    107.800    276.144
   15    14    16     1    123.400    694.544
   38    12    39     1    107.800    276.144
    9     8    33     1    110.700    313.800
   28     6    29     1    107.800    276.144
   32     8    33     1    107.800    276.144
   13    12    39     1    109.500    292.880
   24     4    25     1    107.800    276.144
   12    11    37     1    110.700    313.800
    7     6    28     1    110.700    313.800
   10     9    34     1    109.500    292.880
   40    17    42     1    107.800    276.144
   13    12    38     1    109.500    292.880
    3     2    22     1    109.500    292.880
    4     3     5     1    107.200    433.462
    6     5    27     1    110.700    313.800
   18     1    19     1    107.800    276.144
   26     5    27     1    107.800    276.144
    7     6    29     1    110.700    313.800
    8     7    31     1    110.700    313.800
   40    17    41     1    107.800    276.144
   41    17    42     1    107.800    276.144
   21     2    22     1    107.800    276.144
    6     5    26     1    110.700    313.800
   36    11    37     1    107.800    276.144
   18     1    20     1    107.800    276.144
   23     4    25     1    107.800    276.144
   30     7    31     1    107.800    276.144
   23     4    24     1    107.800    276.144
   19     1    20     1    107.800    276.144
    8     7    30     1    110.700    313.800
    3     2    21     1    109.500    292.880
   10     9    35     1    109.500    292.880
   12    11    36     1    110.700    313.800

[ dihedrals ]
; IMPROPER DIHEDRAL ANGLES 
;  ai    aj    ak    al funct            c0            c1            c2            c3            c4            c5
    16    14    13    15    4        180.000     43.932     2  

[ dihedrals ]
; PROPER DIHEDRAL ANGLES
;  ai    aj    ak    al funct            c0            c1            c2            c3            c4            c5
   14   13   12   11        3      -2.197   5.201   0.527  -3.531  -0.000   0.000
    8    7    6    5        3       2.301  -1.464   0.837  -1.674  -0.000   0.000
    9    8    7    6        3       2.301  -1.464   0.837  -1.674  -0.000   0.000
    7    6    5    3        3       3.335  -1.552   2.820  -4.602  -0.000   0.000
    6    5    3    2        3       1.789   3.492   0.536  -5.816  -0.000   0.000
    6    5    3    4        3       1.789   3.492   0.536  -5.816  -0.000   0.000
   12   11   10    9        3       1.715   2.845   1.046  -5.607  -0.000   0.000
    5    3    2    1        3       1.789   3.492   0.536  -5.816  -0.000   0.000
    4    3    2    1        3       1.789   3.492   0.536  -5.816  -0.000   0.000
   17   16   14   15        3      21.439   0.000  -21.439  -0.000  -0.000   0.000
   17   16   14   13        3      31.206  -9.768  -21.439  -0.000  -0.000   0.000
   11   10    9    8        3       1.715   2.845   1.046  -5.607  -0.000   0.000
   32    8    7    6        3       0.628   1.883   0.000  -2.510  -0.000   0.000
   33    8    7    6        3       0.628   1.883   0.000  -2.510  -0.000   0.000
   30    7    8    9        3       0.628   1.883   0.000  -2.510  -0.000   0.000
   27    5    6    7        3       0.628   1.883   0.000  -2.510  -0.000   0.000
   28    6    7    8        3       0.628   1.883   0.000  -2.510  -0.000   0.000
   31    7    6    5        3       0.628   1.883   0.000  -2.510  -0.000   0.000
   31    7    8    9        3       0.628   1.883   0.000  -2.510  -0.000   0.000
   30    7    6    5        3       0.628   1.883   0.000  -2.510  -0.000   0.000
   35    9    8    7        3       0.628   1.883   0.000  -2.510  -0.000   0.000
   34    9    8    7        3       0.628   1.883   0.000  -2.510  -0.000   0.000
   29    6    7    8        3       0.628   1.883   0.000  -2.510  -0.000   0.000
   26    5    6    7        3       0.628   1.883   0.000  -2.510  -0.000   0.000
   21    2    1   20        3       0.628   1.883   0.000  -2.510  -0.000   0.000
   32    8    7   31        3       0.628   1.883   0.000  -2.510  -0.000   0.000
   28    6    5   27        3       0.628   1.883   0.000  -2.510  -0.000   0.000
   33    8    7   30        3       0.628   1.883   0.000  -2.510  -0.000   0.000
   38   12   11   36        3       0.628   1.883   0.000  -2.510  -0.000   0.000
   29    6    5   26        3       0.628   1.883   0.000  -2.510  -0.000   0.000
   30    7    6   29        3       0.628   1.883   0.000  -2.510  -0.000   0.000
   31    7    6   28        3       0.628   1.883   0.000  -2.510  -0.000   0.000
   34    9    8   33        3       0.628   1.883   0.000  -2.510  -0.000   0.000
   35    9    8   32        3       0.628   1.883   0.000  -2.510  -0.000   0.000
   22    2    1   20        3       0.628   1.883   0.000  -2.510  -0.000   0.000
   21    2    1   18        3       0.628   1.883   0.000  -2.510  -0.000   0.000
   21    2    1   19        3       0.628   1.883   0.000  -2.510  -0.000   0.000
   32    8    7   30        3       0.628   1.883   0.000  -2.510  -0.000   0.000
   28    6    5   26        3       0.628   1.883   0.000  -2.510  -0.000   0.000
   39   12   11   37        3       0.628   1.883   0.000  -2.510  -0.000   0.000
   29    6    5   27        3       0.628   1.883   0.000  -2.510  -0.000   0.000
   35    9    8   33        3       0.628   1.883   0.000  -2.510  -0.000   0.000
   31    7    6   29        3       0.628   1.883   0.000  -2.510  -0.000   0.000
   39   12   11   36        3       0.628   1.883   0.000  -2.510  -0.000   0.000
   38   12   11   37        3       0.628   1.883   0.000  -2.510  -0.000   0.000
   33    8    7   31        3       0.628   1.883   0.000  -2.510  -0.000   0.000
   22    2    1   19        3       0.628   1.883   0.000  -2.510  -0.000   0.000
   22    2    1   18        3       0.628   1.883   0.000  -2.510  -0.000   0.000
   34    9    8   32        3       0.628   1.883   0.000  -2.510  -0.000   0.000
   30    7    6   28        3       0.628   1.883   0.000  -2.510  -0.000   0.000
   28    6    5    3        3      -4.096   5.088   2.966  -3.958  -0.000   0.000
   29    6    5    3        3      -4.096   5.088   2.966  -3.958  -0.000   0.000
   19    1    2    3        3      -4.096   5.088   2.966  -3.958  -0.000   0.000
   18    1    2    3        3      -4.096   5.088   2.966  -3.958  -0.000   0.000
   20    1    2    3        3      -4.096   5.088   2.966  -3.958  -0.000   0.000
   33    8    9   10        3       0.979   2.937   0.000  -3.916  -0.000   0.000
   38   12   11   10        3       0.979   2.937   0.000  -3.916  -0.000   0.000
   32    8    9   10        3       0.979   2.937   0.000  -3.916  -0.000   0.000
   36   11   12   13        3       0.979   2.937   0.000  -3.916  -0.000   0.000
   37   11   12   13        3       0.979   2.937   0.000  -3.916  -0.000   0.000
   39   12   11   10        3       0.979   2.937   0.000  -3.916  -0.000   0.000
   22    2    3    5        3       1.172   3.515   0.000  -4.686  -0.000   0.000
   24    4    3    2        3       1.172   3.515   0.000  -4.686  -0.000   0.000
   23    4    3    2        3       1.172   3.515   0.000  -4.686  -0.000   0.000
   25    4    3    5        3       1.172   3.515   0.000  -4.686  -0.000   0.000
   27    5    3    2        3       1.172   3.515   0.000  -4.686  -0.000   0.000
   23    4    3    5        3       1.172   3.515   0.000  -4.686  -0.000   0.000
   24    4    3    5        3       1.172   3.515   0.000  -4.686  -0.000   0.000
   22    2    3    4        3       1.172   3.515   0.000  -4.686  -0.000   0.000
   26    5    3    4        3       1.172   3.515   0.000  -4.686  -0.000   0.000
   27    5    3    4        3       1.172   3.515   0.000  -4.686  -0.000   0.000
   26    5    3    2        3       1.172   3.515   0.000  -4.686  -0.000   0.000
   25    4    3    2        3       1.172   3.515   0.000  -4.686  -0.000   0.000
   21    2    3    5        3       1.172   3.515   0.000  -4.686  -0.000   0.000
   21    2    3    4        3       1.172   3.515   0.000  -4.686  -0.000   0.000
   39   12   13   14        3       0.414   1.243   0.000  -1.657  -0.000   0.000
   38   12   13   14        3       0.414   1.243   0.000  -1.657  -0.000   0.000
   42   17   16   14        3       0.414   1.243   0.000  -1.657  -0.000   0.000
   40   17   16   14        3       0.414   1.243   0.000  -1.657  -0.000   0.000
   41   17   16   14        3       0.414   1.243   0.000  -1.657  -0.000   0.000
   34    9   10   11        3       1.590   4.770   0.000  -6.360  -0.000   0.000
   36   11   10    9        3       1.590   4.770   0.000  -6.360  -0.000   0.000
   35    9   10   11        3       1.590   4.770   0.000  -6.360  -0.000   0.000
   37   11   10    9        3       1.590   4.770   0.000  -6.360  -0.000   0.000
   15   14   13   12        3      21.439   0.000  -21.439  -0.000  -0.000   0.000
   16   14   13   12        3      31.206  -9.768  -21.439  -0.000  -0.000   0.000
   10    9    8    7        3       2.874   0.582   2.092  -5.548  -0.000   0.000
   13   12   11   10        3      -1.151   1.151   0.000  -0.000  -0.000   0.000

[ pairs ]
     1     4    1
     1     5    1
     2     6    1
     4     6    1
     3     7    1
     5     8    1
     6     9    1
     7    10    1
     8    11    1
     9    12    1
     3    18    1
     3    19    1
    10    13    1
     3    20    1
    11    14    1
     4    21    1
     2    23    1
     5    21    1
     4    22    1
     2    24    1
    12    15    1
     5    22    1
     2    25    1
    12    16    1
     5    23    1
     2    26    1
     5    24    1
     2    27    1
    13    17    1
     5    25    1
     4    26    1
     4    27    1
     3    28    1
    15    17    1
     3    29    1
     7    26    1
     7    27    1
     5    30    1
     8    28    1
     5    31    1
     8    29    1
     6    32    1
    18    21    1
     9    30    1
     6    33    1
    19    21    1
    18    22    1
     9    31    1
    20    21    1
    19    22    1
     7    34    1
    20    22    1
    10    32    1
     7    35    1
    10    33    1
    11    34    1
     9    36    1
    11    35    1
     9    37    1
    10    38    1
    13    36    1
    10    39    1
    13    37    1
    14    38    1
    14    39    1
    26    28    1
    14    40    1
    27    28    1
    26    29    1
    14    41    1
    27    29    1
    14    42    1
    28    30    1
    29    30    1
    28    31    1
    29    31    1
    30    32    1
    31    32    1
    30    33    1
    31    33    1
    32    34    1
    33    34    1
    32    35    1
    33    35    1
    36    38    1
    37    38    1
    36    39    1
    37    39    1

