LIGPARGEN GENERATED GRO FILE
   42
    1UNK    C00    1   0.100   0.100   0.000
    1UNK    C01    2  -0.053   0.100   0.000
    1UNK    N02    3  -0.113   0.100   0.135
    1UNK    C03    4  -0.075   0.220   0.211
    1UNK    C04    5  -0.260   0.088   0.121
    1UNK    C05    6  -0.335   0.086   0.255
    1UNK    C06    7  -0.486   0.073   0.235
    1UNK    C07    8  -0.559   0.084   0.369
    1UNK    C08    9  -0.709   0.057   0.357
    1UNK    O09   10  -0.739  -0.067   0.292
    1UNK    C0A   11  -0.697  -0.181   0.367
    1UNK    C0B   12  -0.726  -0.308   0.289
    1UNK    O0C   13  -0.676  -0.423   0.359
    1UNK    C0D   14  -0.543  -0.444   0.347
    1UNK    O0E   15  -0.466  -0.377   0.280
    1UNK    O0F   16  -0.508  -0.547   0.427
    1UNK    C0G   17  -0.368  -0.575   0.428
    1UNK    H0H   18   0.137   0.087  -0.102
    1UNK    H0I   19   0.140   0.018   0.061
    1UNK    H0J   20   0.141   0.195   0.037
    1UNK    H0K   21  -0.084   0.009  -0.053
    1UNK    H0M   22  -0.089   0.186  -0.059
    1UNK    H0N   23   0.033   0.228   0.221
    1UNK    H0O   24  -0.112   0.215   0.314
    1UNK    H0P   25  -0.113   0.311   0.164
    1UNK    H0Q   26  -0.283  -0.007   0.070
    1UNK    H0R   27  -0.299   0.169   0.059
    1UNK    H0S   28  -0.317   0.179   0.310
    1UNK    H0T   29  -0.298   0.003   0.317
    1UNK    H0U   30  -0.508  -0.022   0.186
    1UNK    H0V   31  -0.522   0.153   0.169
    1UNK    H0W   32  -0.543   0.183   0.413
    1UNK    H0X   33  -0.514   0.013   0.440
    1UNK    H0Y   34  -0.754   0.136   0.296
    1UNK    H0Z   35  -0.757   0.060   0.455
    1UNK    H10   36  -0.748  -0.183   0.464
    1UNK    H11   37  -0.589  -0.175   0.386
    1UNK    H12   38  -0.686  -0.304   0.187
    1UNK    H13   39  -0.835  -0.320   0.278
    1UNK    H14   40  -0.351  -0.659   0.495
    1UNK    H15   41  -0.312  -0.489   0.466
    1UNK    H16   42  -0.335  -0.603   0.328
   1.00000   1.00000   1.00000

