LIGPARGEN GENERATED GRO FILE
   33
    1UNK    C00    1   0.100   0.100   0.000
    1UNK    C01    2  -0.052   0.100   0.000
    1UNK    C02    3  -0.110   0.100   0.141
    1UNK    O03    4  -0.038   0.095   0.240
    1UNK    C04    5  -0.262   0.106   0.152
    1UNK    C05    6  -0.310   0.033   0.277
    1UNK    C06    7  -0.312   0.251   0.144
    1UNK    C07    8  -0.260   0.343   0.256
    1UNK    C08    9  -0.315   0.485   0.240
    1UNK    C09   10  -0.263   0.576   0.352
    1UNK    C0A   11  -0.316   0.718   0.338
    1UNK    C0B   12  -0.272   0.817   0.443
    1UNK    O0C   13  -0.392   0.752   0.248
    1UNK    H0D   14   0.138   0.100  -0.102
    1UNK    H0E   15   0.139   0.012   0.051
    1UNK    H0F   16   0.139   0.189   0.051
    1UNK    H0G   17  -0.089   0.011  -0.052
    1UNK    H0H   18  -0.088   0.189  -0.053
    1UNK    H0I   19  -0.302   0.052   0.065
    1UNK    H0J   20  -0.271   0.078   0.369
    1UNK    H0K   21  -0.277  -0.071   0.275
    1UNK    H0M   22  -0.420   0.034   0.282
    1UNK    H0N   23  -0.422   0.251   0.146
    1UNK    H0O   24  -0.283   0.294   0.047
    1UNK    H0P   25  -0.151   0.346   0.253
    1UNK    H0Q   26  -0.290   0.304   0.354
    1UNK    H0R   27  -0.424   0.483   0.242
    1UNK    H0S   28  -0.285   0.525   0.143
    1UNK    H0T   29  -0.154   0.581   0.348
    1UNK    H0U   30  -0.294   0.537   0.449
    1UNK    H0V   31  -0.205   0.769   0.515
    1UNK    H0W   32  -0.359   0.855   0.496
    1UNK    H0X   33  -0.218   0.899   0.394
   1.00000   1.00000   1.00000

