
;
; GENERATED BY LigParGen Server
; Jorgensen Lab @ Yale University 
;
[ atomtypes ]
  opls_814  C814    12.0110     0.000    A    3.50000E-01   2.76144E-01
  opls_824  H824     1.0080     0.000    A    2.50000E-01   1.25520E-01
  opls_810  O810    15.9990     0.000    A    2.90000E-01   5.85760E-01
  opls_818  C818    12.0110     0.000    A    3.50000E-01   2.76144E-01
  opls_843  H843     1.0080     0.000    A    2.50000E-01   1.25520E-01
  opls_836  H836     1.0080     0.000    A    2.50000E-01   1.25520E-01
  opls_834  H834     1.0080     0.000    A    2.50000E-01   1.25520E-01
  opls_828  H828     1.0080     0.000    A    2.50000E-01   1.25520E-01
  opls_802  C802    12.0110     0.000    A    3.50000E-01   2.76144E-01
  opls_827  H827     1.0080     0.000    A    2.50000E-01   1.25520E-01
  opls_809  C809    12.0110     0.000    A    3.50000E-01   2.76144E-01
  opls_806  C806    12.0110     0.000    A    3.50000E-01   2.76144E-01
  opls_822  H822     1.0080     0.000    A    2.50000E-01   1.25520E-01
  opls_803  C803    12.0110     0.000    A    3.50000E-01   2.76144E-01
  opls_838  H838     1.0080     0.000    A    2.50000E-01   1.25520E-01
  opls_825  H825     1.0080     0.000    A    2.50000E-01   1.25520E-01
  opls_830  H830     1.0080     0.000    A    2.50000E-01   1.25520E-01
  opls_805  C805    12.0110     0.000    A    3.50000E-01   2.76144E-01
  opls_842  H842     1.0080     0.000    A    2.50000E-01   1.25520E-01
  opls_820  H820     1.0080     0.000    A    2.50000E-01   1.25520E-01
  opls_837  H837     1.0080     0.000    A    2.50000E-01   1.25520E-01
  opls_821  H821     1.0080     0.000    A    2.50000E-01   1.25520E-01
  opls_831  H831     1.0080     0.000    A    2.50000E-01   1.25520E-01
  opls_816  N816    14.0070     0.000    A    3.30000E-01   7.11280E-01
  opls_812  O812    15.9990     0.000    A    2.96000E-01   8.78640E-01
  opls_832  H832     1.0080     0.000    A    2.50000E-01   1.25520E-01
  opls_800  C800    12.0110     0.000    A    3.50000E-01   2.76144E-01
  opls_846  H846     1.0080     0.000    A    2.50000E-01   1.25520E-01
  opls_848  H848     1.0080     0.000    A    2.50000E-01   1.25520E-01
  opls_815  C815    12.0110     0.000    A    3.50000E-01   2.76144E-01
  opls_811  C811    12.0110     0.000    A    3.55000E-01   2.92880E-01
  opls_823  H823     1.0080     0.000    A    2.50000E-01   1.25520E-01
  opls_813  O813    15.9990     0.000    A    2.90000E-01   5.85760E-01
  opls_826  H826     1.0080     0.000    A    2.50000E-01   1.25520E-01
  opls_835  H835     1.0080     0.000    A    2.50000E-01   1.25520E-01
  opls_841  H841     1.0080     0.000    A    2.50000E-01   1.25520E-01
  opls_847  H847     1.0080     0.000    A    2.50000E-01   1.25520E-01
  opls_819  H819     1.0080     0.000    A    2.50000E-01   1.25520E-01
  opls_804  C804    12.0110     0.000    A    3.50000E-01   2.76144E-01
  opls_833  H833     1.0080     0.000    A    2.50000E-01   1.25520E-01
  opls_839  H839     1.0080     0.000    A    2.50000E-01   1.25520E-01
  opls_817  C817    12.0110     0.000    A    3.50000E-01   2.76144E-01
  opls_801  C801    12.0110     0.000    A    3.50000E-01   2.76144E-01
  opls_808  C808    12.0110     0.000    A    3.50000E-01   2.76144E-01
  opls_840  H840     1.0080     0.000    A    2.50000E-01   1.25520E-01
  opls_849  H849     1.0080     0.000    A    2.50000E-01   1.25520E-01
  opls_829  H829     1.0080     0.000    A    2.50000E-01   1.25520E-01
  opls_844  H844     1.0080     0.000    A    2.50000E-01   1.25520E-01
  opls_845  H845     1.0080     0.000    A    2.50000E-01   1.25520E-01
  opls_807  C807    12.0110     0.000    A    3.50000E-01   2.76144E-01
[ moleculetype ]
; Name               nrexcl
UNK                   3
[ atoms ]
;   nr       type  resnr residue  atom   cgnr     charge       mass  
     1   opls_800      1    UNK   C00      1     -0.239    12.0110 
     2   opls_801      1    UNK   C01      1    -0.1796    12.0110 
     3   opls_802      1    UNK   C02      1    -0.1776    12.0110 
     4   opls_803      1    UNK   C03      1    -0.1742    12.0110 
     5   opls_804      1    UNK   C04      1    -0.1103    12.0110 
     6   opls_805      1    UNK   C05      1    -0.2357    12.0110 
     7   opls_806      1    UNK   C06      1    -0.1657    12.0110 
     8   opls_807      1    UNK   C07      1    -0.2122    12.0110 
     9   opls_808      1    UNK   C08      1     0.0898    12.0110 
    10   opls_809      1    UNK   C09      1    -0.2467    12.0110 
    11   opls_810      1    UNK   O0A      1    -0.3383    15.9990 
    12   opls_811      1    UNK   C0B      1     0.5793    12.0110 
    13   opls_812      1    UNK   O0C      1    -0.4871    15.9990 
    14   opls_813      1    UNK   O0D      1    -0.3269    15.9990 
    15   opls_814      1    UNK   C0E      1     0.0206    12.0110 
    16   opls_815      1    UNK   C0F      1    -0.0149    12.0110 
    17   opls_816      1    UNK   N0G      1     -0.579    14.0070 
    18   opls_817      1    UNK   C0H      1    -0.0572    12.0110 
    19   opls_818      1    UNK   C0I      1    -0.0483    12.0110 
    20   opls_819      1    UNK   H0J      1     0.0812     1.0080 
    21   opls_820      1    UNK   H0K      1     0.0812     1.0080 
    22   opls_821      1    UNK   H0M      1     0.0812     1.0080 
    23   opls_822      1    UNK   H0N      1     0.0884     1.0080 
    24   opls_823      1    UNK   H0O      1     0.0884     1.0080 
    25   opls_824      1    UNK   H0P      1     0.0906     1.0080 
    26   opls_825      1    UNK   H0Q      1     0.0906     1.0080 
    27   opls_826      1    UNK   H0R      1     0.0885     1.0080 
    28   opls_827      1    UNK   H0S      1     0.0885     1.0080 
    29   opls_828      1    UNK   H0T      1     0.0968     1.0080 
    30   opls_829      1    UNK   H0U      1     0.0837     1.0080 
    31   opls_830      1    UNK   H0V      1     0.0837     1.0080 
    32   opls_831      1    UNK   H0W      1     0.0837     1.0080 
    33   opls_832      1    UNK   H0X      2     0.0902     1.0080 
    34   opls_833      1    UNK   H0Y      2     0.0902     1.0080 
    35   opls_834      1    UNK   H0Z      2     0.1073     1.0080 
    36   opls_835      1    UNK   H10      2     0.1073     1.0080 
    37   opls_836      1    UNK   H11      2     0.1209     1.0080 
    38   opls_837      1    UNK   H12      2     0.1022     1.0080 
    39   opls_838      1    UNK   H13      2     0.1022     1.0080 
    40   opls_839      1    UNK   H14      2     0.1022     1.0080 
    41   opls_840      1    UNK   H15      2       0.12     1.0080 
    42   opls_841      1    UNK   H16      2       0.12     1.0080 
    43   opls_842      1    UNK   H17      2     0.1016     1.0080 
    44   opls_843      1    UNK   H18      2     0.1016     1.0080 
    45   opls_844      1    UNK   H19      2     0.0851     1.0080 
    46   opls_845      1    UNK   H1A      2     0.0851     1.0080 
    47   opls_846      1    UNK   H1B      2     0.0851     1.0080 
    48   opls_847      1    UNK   H1C      2     0.0852     1.0080 
    49   opls_848      1    UNK   H1D      2     0.0852     1.0080 
    50   opls_849      1    UNK   H1E      2     0.0852     1.0080 
[ bonds ]
    2     1     1      0.1529 224262.400
    3     2     1      0.1529 224262.400
    4     3     1      0.1529 224262.400
    5     4     1      0.1529 224262.400
    6     5     1      0.1529 224262.400
    7     5     1      0.1529 224262.400
    8     7     1      0.1529 224262.400
    9     8     1      0.1529 224262.400
   10     9     1      0.1529 224262.400
   11     9     1      0.1410 267776.000
   12    11     1      0.1327 179075.200
   13    12     1      0.1229 476976.000
   14    12     1      0.1327 179075.200
   15    14     1      0.1410 267776.000
   16    15     1      0.1529 224262.400
   17    16     1      0.1448 319657.600
   18    17     1      0.1448 319657.600
   19    17     1      0.1448 319657.600
   20     1     1      0.1090 284512.000
   21     1     1      0.1090 284512.000
   22     1     1      0.1090 284512.000
   23     2     1      0.1090 284512.000
   24     2     1      0.1090 284512.000
   25     3     1      0.1090 284512.000
   26     3     1      0.1090 284512.000
   27     4     1      0.1090 284512.000
   28     4     1      0.1090 284512.000
   29     5     1      0.1090 284512.000
   30     6     1      0.1090 284512.000
   31     6     1      0.1090 284512.000
   32     6     1      0.1090 284512.000
   33     7     1      0.1090 284512.000
   34     7     1      0.1090 284512.000
   35     8     1      0.1090 284512.000
   36     8     1      0.1090 284512.000
   37     9     1      0.1090 284512.000
   38    10     1      0.1090 284512.000
   39    10     1      0.1090 284512.000
   40    10     1      0.1090 284512.000
   41    15     1      0.1090 284512.000
   42    15     1      0.1090 284512.000
   43    16     1      0.1090 284512.000
   44    16     1      0.1090 284512.000
   45    18     1      0.1090 284512.000
   46    18     1      0.1090 284512.000
   47    18     1      0.1090 284512.000
   48    19     1      0.1090 284512.000
   49    19     1      0.1090 284512.000
   50    19     1      0.1090 284512.000

[ angles ]
;  ai    aj    ak funct            c0            c1            c2            c3 
    1     2     3     1    112.700    488.273
    2     3     4     1    112.700    488.273
    3     4     5     1    112.700    488.273
    4     5     6     1    112.700    488.273
    4     5     7     1    112.700    488.273
    5     7     8     1    112.700    488.273
    7     8     9     1    112.700    488.273
    8     9    10     1    112.700    488.273
    8     9    11     1    109.500    418.400
    9    11    12     1    116.900    694.544
   11    12    13     1    123.400    694.544
   11    12    14     1    118.180    584.923
   12    14    15     1    116.900    694.544
   14    15    16     1    109.500    418.400
   15    16    17     1    109.470    470.282
   16    17    18     1    107.200    433.462
   16    17    19     1    107.200    433.462
    2     1    20     1    110.700    313.800
    2     1    21     1    110.700    313.800
    2     1    22     1    110.700    313.800
    1     2    23     1    110.700    313.800
    1     2    24     1    110.700    313.800
    2     3    25     1    110.700    313.800
    2     3    26     1    110.700    313.800
    3     4    27     1    110.700    313.800
    3     4    28     1    110.700    313.800
    4     5    29     1    110.700    313.800
    5     6    30     1    110.700    313.800
    5     6    31     1    110.700    313.800
    5     6    32     1    110.700    313.800
    5     7    33     1    110.700    313.800
    5     7    34     1    110.700    313.800
    7     8    35     1    110.700    313.800
    7     8    36     1    110.700    313.800
    8     9    37     1    110.700    313.800
    9    10    38     1    110.700    313.800
    9    10    39     1    110.700    313.800
    9    10    40     1    110.700    313.800
   14    15    41     1    109.500    292.880
   14    15    42     1    109.500    292.880
   15    16    43     1    110.700    313.800
   15    16    44     1    110.700    313.800
   17    18    45     1    109.500    292.880
   17    18    46     1    109.500    292.880
   17    18    47     1    109.500    292.880
   17    19    48     1    109.500    292.880
   17    19    49     1    109.500    292.880
   17    19    50     1    109.500    292.880
   13    12    14     1    123.400    694.544
   45    18    47     1    107.800    276.144
   27     4    28     1    107.800    276.144
   16    15    42     1    110.700    313.800
   48    19    50     1    107.800    276.144
   20     1    21     1    107.800    276.144
    5     4    27     1    110.700    313.800
   16    15    41     1    110.700    313.800
    5     4    28     1    110.700    313.800
   30     6    32     1    107.800    276.144
   33     7    34     1    107.800    276.144
    8     7    33     1    110.700    313.800
    6     5     7     1    112.700    488.273
    9     8    36     1    110.700    313.800
   39    10    40     1    107.800    276.144
   17    16    44     1    109.500    292.880
   38    10    39     1    107.800    276.144
    8     7    34     1    110.700    313.800
   11     9    37     1    109.500    292.880
   49    19    50     1    107.800    276.144
   41    15    42     1    107.800    276.144
   35     8    36     1    107.800    276.144
   43    16    44     1    107.800    276.144
   46    18    47     1    107.800    276.144
    4     3    25     1    110.700    313.800
   21     1    22     1    107.800    276.144
    6     5    29     1    110.700    313.800
   20     1    22     1    107.800    276.144
    4     3    26     1    110.700    313.800
   48    19    49     1    107.800    276.144
   17    16    43     1    109.500    292.880
   25     3    26     1    107.800    276.144
   31     6    32     1    107.800    276.144
    7     5    29     1    110.700    313.800
   30     6    31     1    107.800    276.144
    3     2    23     1    110.700    313.800
    9     8    35     1    110.700    313.800
   10     9    37     1    110.700    313.800
   18    17    19     1    107.200    433.462
   23     2    24     1    107.800    276.144
   10     9    11     1    109.500    418.400
    3     2    24     1    110.700    313.800
   45    18    46     1    107.800    276.144
   38    10    40     1    107.800    276.144

[ dihedrals ]
; IMPROPER DIHEDRAL ANGLES 
;  ai    aj    ak    al funct            c0            c1            c2            c3            c4            c5
    14    12    11    13    4        180.000     43.932     2  

[ dihedrals ]
; PROPER DIHEDRAL ANGLES
;  ai    aj    ak    al funct            c0            c1            c2            c3            c4            c5
   12   11    9    8        3      -2.197   5.201   0.527  -3.531  -0.000   0.000
   12   11    9   10        3      -2.197   5.201   0.527  -3.531  -0.000   0.000
    4    3    2    1        3       2.301  -1.464   0.837  -1.674  -0.000   0.000
    5    4    3    2        3       2.301  -1.464   0.837  -1.674  -0.000   0.000
    6    5    4    3        3       2.301  -1.464   0.837  -1.674  -0.000   0.000
    8    7    5    4        3       2.301  -1.464   0.837  -1.674  -0.000   0.000
    9    8    7    5        3       2.301  -1.464   0.837  -1.674  -0.000   0.000
   10    9    8    7        3       2.301  -1.464   0.837  -1.674  -0.000   0.000
    7    5    4    3        3       2.301  -1.464   0.837  -1.674  -0.000   0.000
    8    7    5    6        3       2.301  -1.464   0.837  -1.674  -0.000   0.000
   16   15   14   12        3      -2.197   5.201   0.527  -3.531  -0.000   0.000
   19   17   16   15        3       1.789   3.492   0.536  -5.816  -0.000   0.000
   18   17   16   15        3       1.789   3.492   0.536  -5.816  -0.000   0.000
   15   14   12   13        3      21.439   0.000  -21.439  -0.000  -0.000   0.000
   15   14   12   11        3      31.206  -9.768  -21.439  -0.000  -0.000   0.000
   20    1    2    3        3       0.628   1.883   0.000  -2.510  -0.000   0.000
   33    7    5    4        3       0.628   1.883   0.000  -2.510  -0.000   0.000
   29    5    7    8        3       0.628   1.883   0.000  -2.510  -0.000   0.000
   35    8    9   10        3       0.628   1.883   0.000  -2.510  -0.000   0.000
   31    6    5    7        3       0.628   1.883   0.000  -2.510  -0.000   0.000
   26    3    2    1        3       0.628   1.883   0.000  -2.510  -0.000   0.000
   23    2    3    4        3       0.628   1.883   0.000  -2.510  -0.000   0.000
   40   10    9    8        3       0.628   1.883   0.000  -2.510  -0.000   0.000
   36    8    9   10        3       0.628   1.883   0.000  -2.510  -0.000   0.000
   33    7    5    6        3       0.628   1.883   0.000  -2.510  -0.000   0.000
   39   10    9    8        3       0.628   1.883   0.000  -2.510  -0.000   0.000
   28    4    5    7        3       0.628   1.883   0.000  -2.510  -0.000   0.000
   21    1    2    3        3       0.628   1.883   0.000  -2.510  -0.000   0.000
   32    6    5    7        3       0.628   1.883   0.000  -2.510  -0.000   0.000
   27    4    5    6        3       0.628   1.883   0.000  -2.510  -0.000   0.000
   34    7    5    4        3       0.628   1.883   0.000  -2.510  -0.000   0.000
   24    2    3    4        3       0.628   1.883   0.000  -2.510  -0.000   0.000
   27    4    5    7        3       0.628   1.883   0.000  -2.510  -0.000   0.000
   28    4    5    6        3       0.628   1.883   0.000  -2.510  -0.000   0.000
   30    6    5    7        3       0.628   1.883   0.000  -2.510  -0.000   0.000
   27    4    3    2        3       0.628   1.883   0.000  -2.510  -0.000   0.000
   32    6    5    4        3       0.628   1.883   0.000  -2.510  -0.000   0.000
   37    9    8    7        3       0.628   1.883   0.000  -2.510  -0.000   0.000
   36    8    7    5        3       0.628   1.883   0.000  -2.510  -0.000   0.000
   22    1    2    3        3       0.628   1.883   0.000  -2.510  -0.000   0.000
   33    7    8    9        3       0.628   1.883   0.000  -2.510  -0.000   0.000
   34    7    5    6        3       0.628   1.883   0.000  -2.510  -0.000   0.000
   29    5    4    3        3       0.628   1.883   0.000  -2.510  -0.000   0.000
   25    3    2    1        3       0.628   1.883   0.000  -2.510  -0.000   0.000
   31    6    5    4        3       0.628   1.883   0.000  -2.510  -0.000   0.000
   28    4    3    2        3       0.628   1.883   0.000  -2.510  -0.000   0.000
   25    3    4    5        3       0.628   1.883   0.000  -2.510  -0.000   0.000
   26    3    4    5        3       0.628   1.883   0.000  -2.510  -0.000   0.000
   35    8    7    5        3       0.628   1.883   0.000  -2.510  -0.000   0.000
   30    6    5    4        3       0.628   1.883   0.000  -2.510  -0.000   0.000
   38   10    9    8        3       0.628   1.883   0.000  -2.510  -0.000   0.000
   34    7    8    9        3       0.628   1.883   0.000  -2.510  -0.000   0.000
   35    8    7   33        3       0.628   1.883   0.000  -2.510  -0.000   0.000
   24    2    1   21        3       0.628   1.883   0.000  -2.510  -0.000   0.000
   23    2    1   22        3       0.628   1.883   0.000  -2.510  -0.000   0.000
   23    2    1   21        3       0.628   1.883   0.000  -2.510  -0.000   0.000
   27    4    3   25        3       0.628   1.883   0.000  -2.510  -0.000   0.000
   40   10    9   37        3       0.628   1.883   0.000  -2.510  -0.000   0.000
   26    3    2   24        3       0.628   1.883   0.000  -2.510  -0.000   0.000
   31    6    5   29        3       0.628   1.883   0.000  -2.510  -0.000   0.000
   37    9    8   36        3       0.628   1.883   0.000  -2.510  -0.000   0.000
   39   10    9   37        3       0.628   1.883   0.000  -2.510  -0.000   0.000
   29    5    4   27        3       0.628   1.883   0.000  -2.510  -0.000   0.000
   32    6    5   29        3       0.628   1.883   0.000  -2.510  -0.000   0.000
   36    8    7   33        3       0.628   1.883   0.000  -2.510  -0.000   0.000
   36    8    7   34        3       0.628   1.883   0.000  -2.510  -0.000   0.000
   26    3    2   23        3       0.628   1.883   0.000  -2.510  -0.000   0.000
   25    3    2   24        3       0.628   1.883   0.000  -2.510  -0.000   0.000
   29    5    4   28        3       0.628   1.883   0.000  -2.510  -0.000   0.000
   34    7    5   29        3       0.628   1.883   0.000  -2.510  -0.000   0.000
   23    2    1   20        3       0.628   1.883   0.000  -2.510  -0.000   0.000
   44   16   15   41        3       0.628   1.883   0.000  -2.510  -0.000   0.000
   37    9    8   35        3       0.628   1.883   0.000  -2.510  -0.000   0.000
   28    4    3   26        3       0.628   1.883   0.000  -2.510  -0.000   0.000
   43   16   15   41        3       0.628   1.883   0.000  -2.510  -0.000   0.000
   44   16   15   42        3       0.628   1.883   0.000  -2.510  -0.000   0.000
   38   10    9   37        3       0.628   1.883   0.000  -2.510  -0.000   0.000
   43   16   15   42        3       0.628   1.883   0.000  -2.510  -0.000   0.000
   25    3    2   23        3       0.628   1.883   0.000  -2.510  -0.000   0.000
   33    7    5   29        3       0.628   1.883   0.000  -2.510  -0.000   0.000
   35    8    7   34        3       0.628   1.883   0.000  -2.510  -0.000   0.000
   30    6    5   29        3       0.628   1.883   0.000  -2.510  -0.000   0.000
   28    4    3   25        3       0.628   1.883   0.000  -2.510  -0.000   0.000
   24    2    1   22        3       0.628   1.883   0.000  -2.510  -0.000   0.000
   24    2    1   20        3       0.628   1.883   0.000  -2.510  -0.000   0.000
   27    4    3   26        3       0.628   1.883   0.000  -2.510  -0.000   0.000
   41   15   16   17        3      -4.096   5.088   2.966  -3.958  -0.000   0.000
   42   15   16   17        3      -4.096   5.088   2.966  -3.958  -0.000   0.000
   35    8    9   11        3       0.979   2.937   0.000  -3.916  -0.000   0.000
   44   16   15   14        3       0.979   2.937   0.000  -3.916  -0.000   0.000
   36    8    9   11        3       0.979   2.937   0.000  -3.916  -0.000   0.000
   38   10    9   11        3       0.979   2.937   0.000  -3.916  -0.000   0.000
   43   16   15   14        3       0.979   2.937   0.000  -3.916  -0.000   0.000
   39   10    9   11        3       0.979   2.937   0.000  -3.916  -0.000   0.000
   40   10    9   11        3       0.979   2.937   0.000  -3.916  -0.000   0.000
   50   19   17   16        3       1.172   3.515   0.000  -4.686  -0.000   0.000
   45   18   17   16        3       1.172   3.515   0.000  -4.686  -0.000   0.000
   50   19   17   18        3       1.172   3.515   0.000  -4.686  -0.000   0.000
   48   19   17   16        3       1.172   3.515   0.000  -4.686  -0.000   0.000
   44   16   17   19        3       1.172   3.515   0.000  -4.686  -0.000   0.000
   49   19   17   18        3       1.172   3.515   0.000  -4.686  -0.000   0.000
   47   18   17   16        3       1.172   3.515   0.000  -4.686  -0.000   0.000
   49   19   17   16        3       1.172   3.515   0.000  -4.686  -0.000   0.000
   47   18   17   19        3       1.172   3.515   0.000  -4.686  -0.000   0.000
   46   18   17   19        3       1.172   3.515   0.000  -4.686  -0.000   0.000
   43   16   17   18        3       1.172   3.515   0.000  -4.686  -0.000   0.000
   45   18   17   19        3       1.172   3.515   0.000  -4.686  -0.000   0.000
   44   16   17   18        3       1.172   3.515   0.000  -4.686  -0.000   0.000
   43   16   17   19        3       1.172   3.515   0.000  -4.686  -0.000   0.000
   48   19   17   18        3       1.172   3.515   0.000  -4.686  -0.000   0.000
   46   18   17   16        3       1.172   3.515   0.000  -4.686  -0.000   0.000
   37    9   11   12        3       0.414   1.243   0.000  -1.657  -0.000   0.000
   42   15   14   12        3       0.414   1.243   0.000  -1.657  -0.000   0.000
   41   15   14   12        3       0.414   1.243   0.000  -1.657  -0.000   0.000
   17   16   15   14        3      16.736  -16.736   0.000  -0.000  -0.000   0.000
   13   12   11    9        3      21.439   0.000  -21.439  -0.000  -0.000   0.000
   14   12   11    9        3      31.206  -9.768  -21.439  -0.000  -0.000   0.000
   11    9    8    7        3       2.874   0.582   2.092  -5.548  -0.000   0.000

[ pairs ]
     1     4    1
     2     5    1
     3     6    1
     3     7    1
     4     8    1
     6     8    1
     5     9    1
     7    10    1
     7    11    1
     8    12    1
    10    12    1
     9    13    1
     9    14    1
     3    20    1
     3    21    1
     3    22    1
    11    15    1
     1    25    1
     4    23    1
     1    26    1
    13    15    1
    12    16    1
     4    24    1
     2    27    1
     5    25    1
     2    28    1
    14    17    1
     5    26    1
     3    29    1
    15    18    1
     6    27    1
    15    19    1
     7    27    1
     6    28    1
     4    30    1
     7    28    1
     4    31    1
     4    32    1
     8    29    1
     7    30    1
     4    33    1
     7    31    1
     4    34    1
     7    32    1
     6    33    1
     6    34    1
     5    35    1
     5    36    1
     9    33    1
    20    23    1
     9    34    1
    21    23    1
    20    24    1
     7    37    1
    22    23    1
    21    24    1
    10    35    1
    22    24    1
    11    35    1
    10    36    1
     8    38    1
    11    36    1
     8    39    1
    23    25    1
     8    40    1
    24    25    1
    23    26    1
    12    37    1
    11    38    1
    24    26    1
    11    39    1
    11    40    1
    25    27    1
    26    27    1
    25    28    1
    12    41    1
    26    28    1
    12    42    1
    27    29    1
    28    29    1
    14    43    1
    17    41    1
    14    44    1
    29    30    1
    17    42    1
    29    31    1
    29    32    1
    18    43    1
    16    45    1
    29    33    1
    19    43    1
    18    44    1
    16    46    1
    29    34    1
    19    44    1
    16    47    1
    19    45    1
    16    48    1
    19    46    1
    16    49    1
    19    47    1
    18    48    1
    16    50    1
    18    49    1
    33    35    1
    18    50    1
    34    35    1
    33    36    1
    34    36    1
    35    37    1
    36    37    1
    37    38    1
    37    39    1
    37    40    1
    41    43    1
    42    43    1
    41    44    1
    42    44    1

