LIGPARGEN GENERATED GRO FILE
   50
    1UNK    C00    1   0.100   0.100   0.000
    1UNK    C01    2  -0.052   0.100   0.000
    1UNK    C02    3  -0.107   0.100   0.143
    1UNK    C03    4  -0.260   0.100   0.145
    1UNK    C04    5  -0.321   0.100   0.288
    1UNK    C05    6  -0.278   0.224   0.367
    1UNK    C06    7  -0.475   0.089   0.277
    1UNK    C07    8  -0.548   0.087   0.412
    1UNK    C08    9  -0.702   0.082   0.398
    1UNK    C09   10  -0.749  -0.048   0.334
    1UNK    O0A   11  -0.765   0.086   0.528
    1UNK    C0B   12  -0.759   0.203   0.596
    1UNK    O0C   13  -0.713   0.308   0.555
    1UNK    O0D   14  -0.798   0.179   0.724
    1UNK    C0E   15  -0.719   0.247   0.822
    1UNK    C0F   16  -0.792   0.365   0.888
    1UNK    N0G   17  -0.714   0.425   0.998
    1UNK    C0H   18  -0.589   0.484   0.951
    1UNK    C0I   19  -0.793   0.527   1.068
    1UNK    H0J   20   0.138   0.100  -0.102
    1UNK    H0K   21   0.139   0.011   0.051
    1UNK    H0M   22   0.139   0.189   0.051
    1UNK    H0N   23  -0.089   0.012  -0.055
    1UNK    H0O   24  -0.088   0.189  -0.053
    1UNK    H0P   25  -0.068   0.189   0.194
    1UNK    H0Q   26  -0.070   0.012   0.197
    1UNK    H0R   27  -0.296   0.011   0.092
    1UNK    H0S   28  -0.297   0.188   0.090
    1UNK    H0T   29  -0.283   0.011   0.341
    1UNK    H0U   30  -0.313   0.316   0.318
    1UNK    H0V   31  -0.169   0.230   0.376
    1UNK    H0W   32  -0.317   0.222   0.469
    1UNK    H0X   33  -0.498  -0.004   0.223
    1UNK    H0Y   34  -0.513   0.171   0.216
    1UNK    H0Z   35  -0.522   0.177   0.468
    1UNK    H10   36  -0.514   0.003   0.473
    1UNK    H11   37  -0.739   0.166   0.338
    1UNK    H12   38  -0.710  -0.135   0.389
    1UNK    H13   39  -0.717  -0.056   0.229
    1UNK    H14   40  -0.858  -0.056   0.337
    1UNK    H15   41  -0.624   0.279   0.778
    1UNK    H16   42  -0.695   0.173   0.898
    1UNK    H17   43  -0.888   0.327   0.928
    1UNK    H18   44  -0.819   0.440   0.812
    1UNK    H19   45  -0.521   0.407   0.913
    1UNK    H1A   46  -0.535   0.532   1.034
    1UNK    H1B   47  -0.605   0.558   0.872
    1UNK    H1C   48  -0.884   0.484   1.110
    1UNK    H1D   49  -0.821   0.610   1.002
    1UNK    H1E   50  -0.736   0.568   1.152
   1.00000   1.00000   1.00000

