LIGPARGEN GENERATED GRO FILE
   40
    1UNK    C00    1   0.100   0.100   0.000
    1UNK    C01    2  -0.052   0.100   0.000
    1UNK    C02    3  -0.112   0.100   0.140
    1UNK    C03    4  -0.255   0.143   0.115
    1UNK    C04    5  -0.244   0.253   0.009
    1UNK    C05    6  -0.365   0.259  -0.085
    1UNK    C06    7  -0.495   0.290  -0.011
    1UNK    C07    8  -0.613   0.296  -0.107
    1UNK    C08    9  -0.745   0.320  -0.033
    1UNK    C09   10  -0.860   0.326  -0.129
    1UNK    C0A   11  -0.999   0.357  -0.078
    1UNK    C0B   12  -0.925   0.458  -0.161
    1UNK    C0C   13  -0.968   0.487  -0.301
    1UNK    C0D   14  -0.113   0.224  -0.066
    1UNK    H0E   15   0.138   0.009   0.048
    1UNK    H0F   16   0.140   0.186   0.055
    1UNK    H0G   17   0.139   0.104  -0.102
    1UNK    H0H   18  -0.087   0.011  -0.054
    1UNK    H0I   19  -0.061   0.173   0.205
    1UNK    H0J   20  -0.106   0.002   0.188
    1UNK    H0K   21  -0.304   0.179   0.207
    1UNK    H0M   22  -0.313   0.057   0.077
    1UNK    H0N   23  -0.234   0.350   0.060
    1UNK    H0O   24  -0.375   0.164  -0.139
    1UNK    H0P   25  -0.347   0.337  -0.161
    1UNK    H0Q   26  -0.486   0.386   0.042
    1UNK    H0R   27  -0.514   0.213   0.065
    1UNK    H0S   28  -0.620   0.201  -0.163
    1UNK    H0T   29  -0.597   0.375  -0.181
    1UNK    H0U   30  -0.738   0.413   0.025
    1UNK    H0V   31  -0.762   0.239   0.039
    1UNK    H0W   32  -0.854   0.249  -0.205
    1UNK    H0X   33  -1.012   0.378   0.028
    1UNK    H0Y   34  -1.082   0.304  -0.122
    1UNK    H0Z   35  -0.889   0.547  -0.111
    1UNK    H10   36  -0.999   0.397  -0.354
    1UNK    H11   37  -0.886   0.534  -0.356
    1UNK    H12   38  -1.053   0.557  -0.300
    1UNK    H13   39  -0.046   0.311  -0.056
    1UNK    H14   40  -0.128   0.207  -0.173
   1.00000   1.00000   1.00000

