LIGPARGEN GENERATED GRO FILE
   36
    1UNK    C00    1   0.100   0.100   0.000
    1UNK    C01    2  -0.052   0.100   0.000
    1UNK    C02    3  -0.106   0.100   0.143
    1UNK    C03    4  -0.260   0.100   0.152
    1UNK    C04    5  -0.333  -0.021   0.088
    1UNK    C05    6  -0.283  -0.154   0.149
    1UNK    C06    7  -0.340  -0.283   0.089
    1UNK    C07    8  -0.309  -0.302  -0.058
    1UNK    C08    9  -0.487  -0.007   0.108
    1UNK    C09   10  -0.553   0.119   0.048
    1UNK    C0A   11  -0.530   0.133  -0.102
    1UNK    C0B   12  -0.699   0.115   0.075
    1UNK    N0C   13  -0.812   0.112   0.097
    1UNK    H0D   14   0.138   0.105  -0.102
    1UNK    H0E   15   0.139   0.009   0.046
    1UNK    H0F   16   0.139   0.186   0.055
    1UNK    H0G   17  -0.087   0.012  -0.055
    1UNK    H0H   18  -0.088   0.189  -0.053
    1UNK    H0I   19  -0.070   0.190   0.194
    1UNK    H0J   20  -0.065   0.016   0.199
    1UNK    H0K   21  -0.295   0.193   0.106
    1UNK    H0M   22  -0.287   0.105   0.258
    1UNK    H0N   23  -0.312  -0.021  -0.019
    1UNK    H0O   24  -0.304  -0.154   0.257
    1UNK    H0P   25  -0.174  -0.160   0.139
    1UNK    H0Q   26  -0.448  -0.289   0.105
    1UNK    H0R   27  -0.297  -0.368   0.144
    1UNK    H0S   28  -0.352  -0.222  -0.119
    1UNK    H0T   29  -0.350  -0.397  -0.094
    1UNK    H0U   30  -0.201  -0.303  -0.076
    1UNK    H0V   31  -0.509  -0.010   0.215
    1UNK    H0W   32  -0.537  -0.094   0.064
    1UNK    H0X   33  -0.514   0.209   0.097
    1UNK    H0Y   34  -0.543   0.037  -0.154
    1UNK    H0Z   35  -0.428   0.168  -0.123
    1UNK    H10   36  -0.599   0.205  -0.148
   1.00000   1.00000   1.00000

