LIGPARGEN GENERATED GRO FILE
   37
    1UNK    C00    1   0.100   0.100   0.000
    1UNK    C01    2  -0.052   0.100   0.000
    1UNK    C02    3  -0.106   0.100   0.143
    1UNK    C03    4  -0.260   0.100   0.152
    1UNK    C04    5  -0.327   0.222   0.081
    1UNK    C05    6  -0.477   0.214   0.102
    1UNK    N06    7  -0.602   0.208   0.120
    1UNK    S07    8  -0.270   0.378   0.147
    1UNK    O08    9  -0.306   0.388   0.287
    1UNK    O09   10  -0.133   0.398   0.105
    1UNK    C0A   11  -0.366   0.499   0.056
    1UNK    C0B   12  -0.323   0.641   0.091
    1UNK    C0C   13  -0.331  -0.037   0.140
    1UNK    C0D   14  -0.263  -0.167   0.111
    1UNK    C0E   15  -0.314   0.026   0.276
    1UNK    C0F   16  -0.436   0.056   0.357
    1UNK    H0G   17   0.138   0.107  -0.102
    1UNK    H0H   18   0.139   0.008   0.045
    1UNK    H0I   19   0.139   0.185   0.056
    1UNK    H0J   20  -0.089   0.012  -0.055
    1UNK    H0K   21  -0.086   0.188  -0.055
    1UNK    H0M   22  -0.067   0.185   0.200
    1UNK    H0N   23  -0.065   0.012   0.195
    1UNK    H0O   24  -0.306   0.220  -0.026
    1UNK    H0P   25  -0.471   0.485   0.079
    1UNK    H0Q   26  -0.349   0.480  -0.051
    1UNK    H0R   27  -0.341   0.662   0.196
    1UNK    H0S   28  -0.380   0.713   0.031
    1UNK    H0T   29  -0.217   0.656   0.071
    1UNK    H0U   30  -0.431  -0.040   0.097
    1UNK    H0V   31  -0.164  -0.175   0.155
    1UNK    H0W   32  -0.255  -0.182   0.003
    1UNK    H0X   33  -0.323  -0.249   0.152
    1UNK    H0Y   34  -0.239  -0.016   0.343
    1UNK    H0Z   35  -0.529   0.046   0.300
    1UNK    H10   36  -0.430   0.155   0.401
    1UNK    H11   37  -0.444  -0.017   0.439
   1.00000   1.00000   1.00000

