
;
; GENERATED BY LigParGen Server
; Jorgensen Lab @ Yale University 
;
[ atomtypes ]
  opls_818  H818     1.0080     0.000    A    2.50000E-01   1.25520E-01
  opls_824  H824     1.0080     0.000    A    2.50000E-01   1.25520E-01
  opls_807  S807    32.0600     0.000    A    3.55000E-01   1.04600E+00
  opls_804  C804    12.0110     0.000    A    3.50000E-01   2.76144E-01
  opls_808  O808    15.9990     0.000    A    2.96000E-01   7.11280E-01
  opls_836  H836     1.0080     0.000    A    2.50000E-01   1.25520E-01
  opls_834  H834     1.0080     0.000    A    2.50000E-01   1.25520E-01
  opls_828  H828     1.0080     0.000    A    2.50000E-01   1.25520E-01
  opls_835  H835     1.0080     0.000    A    2.50000E-01   1.25520E-01
  opls_803  C803    12.0110     0.000    A    3.45000E-01   3.47272E-01
  opls_802  C802    12.0110     0.000    A    3.50000E-01   2.76144E-01
  opls_827  H827     1.0080     0.000    A    2.50000E-01   1.25520E-01
  opls_801  C801    12.0110     0.000    A    3.50000E-01   2.76144E-01
  opls_822  H822     1.0080     0.000    A    2.50000E-01   1.25520E-01
  opls_825  H825     1.0080     0.000    A    2.50000E-01   1.25520E-01
  opls_815  C815    12.0110     0.000    A    3.50000E-01   2.76144E-01
  opls_830  H830     1.0080     0.000    A    2.50000E-01   1.25520E-01
  opls_821  H821     1.0080     0.000    A    2.50000E-01   1.25520E-01
  opls_820  H820     1.0080     0.000    A    2.50000E-01   1.25520E-01
  opls_829  H829     1.0080     0.000    A    2.50000E-01   1.25520E-01
  opls_831  H831     1.0080     0.000    A    2.50000E-01   1.25520E-01
  opls_832  H832     1.0080     0.000    A    2.50000E-01   1.25520E-01
  opls_816  H816     1.0080     0.000    A    2.50000E-01   1.25520E-01
  opls_800  C800    12.0110     0.000    A    3.50000E-01   2.76144E-01
  opls_814  C814    12.0110     0.000    A    3.45000E-01   3.47272E-01
  opls_805  C805    12.0110     0.000    A    3.30000E-01   2.76144E-01
  opls_811  C811    12.0110     0.000    A    3.50000E-01   2.76144E-01
  opls_823  H823     1.0080     0.000    A    2.50000E-01   1.25520E-01
  opls_813  C813    12.0110     0.000    A    3.50000E-01   2.76144E-01
  opls_826  H826     1.0080     0.000    A    2.50000E-01   1.25520E-01
  opls_806  N806    14.0070     0.000    A    3.20000E-01   7.11280E-01
  opls_819  H819     1.0080     0.000    A    2.50000E-01   1.25520E-01
  opls_810  C810    12.0110     0.000    A    3.50000E-01   2.76144E-01
  opls_833  H833     1.0080     0.000    A    2.50000E-01   1.25520E-01
  opls_809  O809    15.9990     0.000    A    2.96000E-01   7.11280E-01
  opls_817  H817     1.0080     0.000    A    2.50000E-01   1.25520E-01
  opls_812  C812    12.0110     0.000    A    3.45000E-01   3.47272E-01
[ moleculetype ]
; Name               nrexcl
UNK                   3
[ atoms ]
;   nr       type  resnr residue  atom   cgnr     charge       mass  
     1   opls_800      1    UNK   C00      1    -0.2377    12.0110 
     2   opls_801      1    UNK   C01      1    -0.1708    12.0110 
     3   opls_802      1    UNK   C02      1    -0.1552    12.0110 
     4   opls_803      1    UNK   C03      1     -0.099    12.0110 
     5   opls_804      1    UNK   C04      1    -0.2681    12.0110 
     6   opls_805      1    UNK   C05      1     0.1342    12.0110 
     7   opls_806      1    UNK   N06      1    -0.3392    14.0070 
     8   opls_807      1    UNK   S07      1      1.306    32.0600 
     9   opls_808      1    UNK   O08      1    -0.5415    15.9990 
    10   opls_809      1    UNK   O09      1    -0.5415    15.9990 
    11   opls_810      1    UNK   C0A      1    -0.4873    12.0110 
    12   opls_811      1    UNK   C0B      1     -0.209    12.0110 
    13   opls_812      1    UNK   C0C      1    -0.1629    12.0110 
    14   opls_813      1    UNK   C0D      1    -0.2126    12.0110 
    15   opls_814      1    UNK   C0E      1    -0.1356    12.0110 
    16   opls_815      1    UNK   C0F      1    -0.2288    12.0110 
    17   opls_816      1    UNK   H0G      1     0.0856     1.0080 
    18   opls_817      1    UNK   H0H      1     0.0856     1.0080 
    19   opls_818      1    UNK   H0I      1     0.0856     1.0080 
    20   opls_819      1    UNK   H0J      1      0.089     1.0080 
    21   opls_820      1    UNK   H0K      1      0.089     1.0080 
    22   opls_821      1    UNK   H0M      1     0.1103     1.0080 
    23   opls_822      1    UNK   H0N      1     0.1103     1.0080 
    24   opls_823      1    UNK   H0O      1     0.1975     1.0080 
    25   opls_824      1    UNK   H0P      1     0.1599     1.0080 
    26   opls_825      1    UNK   H0Q      1     0.1599     1.0080 
    27   opls_826      1    UNK   H0R      1     0.1087     1.0080 
    28   opls_827      1    UNK   H0S      1     0.1087     1.0080 
    29   opls_828      1    UNK   H0T      1     0.1087     1.0080 
    30   opls_829      1    UNK   H0U      1     0.1405     1.0080 
    31   opls_830      1    UNK   H0V      1     0.0897     1.0080 
    32   opls_831      1    UNK   H0W      1     0.0897     1.0080 
    33   opls_832      1    UNK   H0X      2     0.0897     1.0080 
    34   opls_833      1    UNK   H0Y      2     0.1399     1.0080 
    35   opls_834      1    UNK   H0Z      2     0.1002     1.0080 
    36   opls_835      1    UNK   H10      2     0.1002     1.0080 
    37   opls_836      1    UNK   H11      2     0.1002     1.0080 
[ bonds ]
    2     1     1      0.1529 224262.400
    3     2     1      0.1529 224262.400
    4     3     1      0.1510 234304.000
    5     4     1      0.1510 234304.000
    6     5     1      0.1470 326352.000
    7     6     1      0.1157 543920.000
    8     5     1      0.1770 284512.000
    9     8     1      0.1440 585760.000
   10     8     1      0.1440 585760.000
   11     8     1      0.1770 284512.000
   12    11     1      0.1529 224262.400
   13     4     1      0.1520 217568.000
   14    13     1      0.1510 234304.000
   15     4     1      0.1520 217568.000
   16    15     1      0.1510 234304.000
   17     1     1      0.1090 284512.000
   18     1     1      0.1090 284512.000
   19     1     1      0.1090 284512.000
   20     2     1      0.1090 284512.000
   21     2     1      0.1090 284512.000
   22     3     1      0.1090 284512.000
   23     3     1      0.1090 284512.000
   24     5     1      0.1090 284512.000
   25    11     1      0.1090 284512.000
   26    11     1      0.1090 284512.000
   27    12     1      0.1090 284512.000
   28    12     1      0.1090 284512.000
   29    12     1      0.1090 284512.000
   30    13     1      0.1088 284512.000
   31    14     1      0.1090 284512.000
   32    14     1      0.1090 284512.000
   33    14     1      0.1090 284512.000
   34    15     1      0.1088 284512.000
   35    16     1      0.1090 284512.000
   36    16     1      0.1090 284512.000
   37    16     1      0.1090 284512.000
   15    13     1      0.1520 217568.000

[ angles ]
;  ai    aj    ak funct            c0            c1            c2            c3 
    1     2     3     1    112.700    488.273
    2     3     4     1    112.700    488.273
    3     4     5     1    114.300    292.880
    4     5     6     1    112.700    488.273
    5     6     7     1    180.000   1255.200
    4     5     8     1    108.600    418.400
    5     8     9     1    108.900    619.232
    5     8    10     1    108.900    619.232
    5     8    11     1    102.000    518.816
    8    11    12     1    108.600    418.400
    3     4    13     1    117.200    313.800
    4    13    14     1    117.200    313.800
    3     4    15     1    117.200    313.800
    4    15    16     1    117.200    313.800
    2     1    17     1    110.700    313.800
    2     1    18     1    110.700    313.800
    2     1    19     1    110.700    313.800
    1     2    20     1    110.700    313.800
    1     2    21     1    110.700    313.800
    2     3    22     1    110.700    313.800
    2     3    23     1    110.700    313.800
    4     5    24     1    110.700    313.800
    8    11    25     1    109.500    292.880
    8    11    26     1    109.500    292.880
   11    12    27     1    110.700    313.800
   11    12    28     1    110.700    313.800
   11    12    29     1    110.700    313.800
    4    13    30     1    117.200    313.800
   13    14    31     1    110.700    313.800
   13    14    32     1    110.700    313.800
   13    14    33     1    110.700    313.800
    4    15    34     1    117.200    313.800
   15    16    35     1    110.700    313.800
   15    16    36     1    110.700    313.800
   15    16    37     1    110.700    313.800
   27    12    29     1    107.800    276.144
    8     5    24     1    109.500    292.880
   13    15    34     1    117.200    313.800
   10     8    11     1    108.900    619.232
    3     2    20     1    110.700    313.800
    6     5    24     1    108.500    292.880
   35    16    37     1    107.800    276.144
   12    11    25     1    110.700    313.800
    3     2    21     1    110.700    313.800
   28    12    29     1    107.800    276.144
   14    13    30     1    114.300    292.880
   31    14    32     1    107.800    276.144
   13     4    15     1     83.000    251.040
    4     3    22     1    110.700    313.800
   15    13    30     1    117.200    313.800
   22     3    23     1    107.800    276.144
   14    13    15     1    117.200    313.800
    5     4    13     1    117.200    313.800
    4     3    23     1    110.700    313.800
   27    12    28     1    107.800    276.144
   35    16    36     1    107.800    276.144
   18     1    19     1    107.800    276.144
    4    15    13     1     83.000    251.040
   17     1    19     1    107.800    276.144
    4    13    15     1     83.000    251.040
   31    14    33     1    107.800    276.144
    5     4    15     1    117.200    313.800
    6     5     8     1    110.580    432.207
   20     2    21     1    107.800    276.144
    9     8    11     1    108.900    619.232
   17     1    18     1    107.800    276.144
   36    16    37     1    107.800    276.144
   32    14    33     1    107.800    276.144
   25    11    26     1    107.800    276.144
   12    11    26     1    110.700    313.800
   16    15    34     1    114.300    292.880
    9     8    10     1    119.000    870.272
   13    15    16     1    117.200    313.800

[ dihedrals ]
; IMPROPER DIHEDRAL ANGLES 
;  ai    aj    ak    al funct            c0            c1            c2            c3            c4            c5

[ dihedrals ]
; PROPER DIHEDRAL ANGLES
;  ai    aj    ak    al funct            c0            c1            c2            c3            c4            c5
   12   11    8    5        3       0.000   0.000   0.000  -0.000  -0.000   0.000
   12   11    8   10        3       0.000   0.000   0.000  -0.000  -0.000   0.000
   12   11    8    9        3       0.000   0.000   0.000  -0.000  -0.000   0.000
    5    4    3    2        3       2.301  -1.464   0.837  -1.674  -0.000   0.000
   16   15    4    3        3       0.000   0.000   0.000  -0.000  -0.000   0.000
   16   15   13   14        3       0.000   0.000   0.000  -0.000  -0.000   0.000
   16   15    4    5        3       0.000   0.000   0.000  -0.000  -0.000   0.000
   14   13    4    3        3       0.000   0.000   0.000  -0.000  -0.000   0.000
   14   13    4    5        3       0.000   0.000   0.000  -0.000  -0.000   0.000
   16   15   13    4        3       0.000   0.000   0.000  -0.000  -0.000   0.000
   14   13   15    4        3       0.000   0.000   0.000  -0.000  -0.000   0.000
   16   15    4   13        3       0.000   0.000   0.000  -0.000  -0.000   0.000
   11    8    5    4        3       0.000   0.000   0.000  -0.000  -0.000   0.000
   11    8    5    6        3       0.000   0.000   0.000  -0.000  -0.000   0.000
    4    3    2    1        3       2.301  -1.464   0.837  -1.674  -0.000   0.000
   13    4    3    2        3       0.000   0.000   0.000  -0.000  -0.000   0.000
   15    4    3    2        3       0.000   0.000   0.000  -0.000  -0.000   0.000
   15    4    5    6        3       0.000   0.000   0.000  -0.000  -0.000   0.000
   13    4    5    6        3       0.000   0.000   0.000  -0.000  -0.000   0.000
   13    4    5    8        3       2.784   0.278   0.828  -3.891  -0.000   0.000
   15    4    5    8        3       2.784   0.278   0.828  -3.891  -0.000   0.000
    6    5    4    3        3      -2.720   0.000   2.720  -0.000  -0.000   0.000
   22    3    2    1        3       0.628   1.883   0.000  -2.510  -0.000   0.000
   23    3    2    1        3       0.628   1.883   0.000  -2.510  -0.000   0.000
   18    1    2    3        3       0.628   1.883   0.000  -2.510  -0.000   0.000
   17    1    2    3        3       0.628   1.883   0.000  -2.510  -0.000   0.000
   19    1    2    3        3       0.628   1.883   0.000  -2.510  -0.000   0.000
   20    2    3    4        3       0.628   1.883   0.000  -2.510  -0.000   0.000
   21    2    3    4        3       0.628   1.883   0.000  -2.510  -0.000   0.000
   27   12   11   26        3       0.628   1.883   0.000  -2.510  -0.000   0.000
   29   12   11   26        3       0.628   1.883   0.000  -2.510  -0.000   0.000
   20    2    1   17        3       0.628   1.883   0.000  -2.510  -0.000   0.000
   22    3    2   20        3       0.628   1.883   0.000  -2.510  -0.000   0.000
   23    3    2   21        3       0.628   1.883   0.000  -2.510  -0.000   0.000
   29   12   11   25        3       0.628   1.883   0.000  -2.510  -0.000   0.000
   27   12   11   25        3       0.628   1.883   0.000  -2.510  -0.000   0.000
   20    2    1   19        3       0.628   1.883   0.000  -2.510  -0.000   0.000
   21    2    1   18        3       0.628   1.883   0.000  -2.510  -0.000   0.000
   21    2    1   17        3       0.628   1.883   0.000  -2.510  -0.000   0.000
   20    2    1   18        3       0.628   1.883   0.000  -2.510  -0.000   0.000
   22    3    2   21        3       0.628   1.883   0.000  -2.510  -0.000   0.000
   23    3    2   20        3       0.628   1.883   0.000  -2.510  -0.000   0.000
   21    2    1   19        3       0.628   1.883   0.000  -2.510  -0.000   0.000
   28   12   11   25        3       0.628   1.883   0.000  -2.510  -0.000   0.000
   28   12   11   26        3       0.628   1.883   0.000  -2.510  -0.000   0.000
   28   12   11    8        3       0.946   2.837   0.000  -3.782  -0.000   0.000
   29   12   11    8        3       0.946   2.837   0.000  -3.782  -0.000   0.000
   27   12   11    8        3       0.946   2.837   0.000  -3.782  -0.000   0.000
   24    5    4    3        3       0.628   1.883   0.000  -2.510  -0.000   0.000
   22    3    4    5        3       0.628   1.883   0.000  -2.510  -0.000   0.000
   23    3    4    5        3       0.628   1.883   0.000  -2.510  -0.000   0.000
   22    3    4   15        3       0.628   1.883   0.000  -2.510  -0.000   0.000
   35   16   15    4        3       0.628   1.883   0.000  -2.510  -0.000   0.000
   35   16   15   13        3       0.628   1.883   0.000  -2.510  -0.000   0.000
   37   16   15   13        3       0.628   1.883   0.000  -2.510  -0.000   0.000
   31   14   13    4        3       0.628   1.883   0.000  -2.510  -0.000   0.000
   32   14   13   15        3       0.628   1.883   0.000  -2.510  -0.000   0.000
   23    3    4   13        3       0.628   1.883   0.000  -2.510  -0.000   0.000
   33   14   13   15        3       0.628   1.883   0.000  -2.510  -0.000   0.000
   22    3    4   13        3       0.628   1.883   0.000  -2.510  -0.000   0.000
   37   16   15    4        3       0.628   1.883   0.000  -2.510  -0.000   0.000
   36   16   15    4        3       0.628   1.883   0.000  -2.510  -0.000   0.000
   31   14   13   15        3       0.628   1.883   0.000  -2.510  -0.000   0.000
   23    3    4   15        3       0.628   1.883   0.000  -2.510  -0.000   0.000
   24    5    4   13        3       0.628   1.883   0.000  -2.510  -0.000   0.000
   36   16   15   13        3       0.628   1.883   0.000  -2.510  -0.000   0.000
   24    5    4   15        3       0.628   1.883   0.000  -2.510  -0.000   0.000
   33   14   13    4        3       0.628   1.883   0.000  -2.510  -0.000   0.000
   32   14   13    4        3       0.628   1.883   0.000  -2.510  -0.000   0.000
   36   16   15   34        3       0.628   1.883   0.000  -2.510  -0.000   0.000
   33   14   13   30        3       0.628   1.883   0.000  -2.510  -0.000   0.000
   31   14   13   30        3       0.628   1.883   0.000  -2.510  -0.000   0.000
   37   16   15   34        3       0.628   1.883   0.000  -2.510  -0.000   0.000
   32   14   13   30        3       0.628   1.883   0.000  -2.510  -0.000   0.000
   35   16   15   34        3       0.628   1.883   0.000  -2.510  -0.000   0.000
   24    5    6    7        3       0.000   0.000   0.000  -0.000  -0.000   0.000
   26   11    8    5        3       0.732   2.197   0.000  -2.929  -0.000   0.000
   25   11    8    5        3       0.732   2.197   0.000  -2.929  -0.000   0.000
   24    5    8   11        3       0.732   2.197   0.000  -2.929  -0.000   0.000
   24    5    8    9        3       0.732   2.197   0.000  -2.929  -0.000   0.000
   25   11    8    9        3       0.732   2.197   0.000  -2.929  -0.000   0.000
   26   11    8   10        3       0.732   2.197   0.000  -2.929  -0.000   0.000
   24    5    8   10        3       0.732   2.197   0.000  -2.929  -0.000   0.000
   25   11    8   10        3       0.732   2.197   0.000  -2.929  -0.000   0.000
   26   11    8    9        3       0.732   2.197   0.000  -2.929  -0.000   0.000
   30   13    4    5        3       0.000   0.000   0.000  -0.000  -0.000   0.000
   30   13   15   16        3       0.000   0.000   0.000  -0.000  -0.000   0.000
   34   15    4    3        3       0.000   0.000   0.000  -0.000  -0.000   0.000
   30   13    4    3        3       0.000   0.000   0.000  -0.000  -0.000   0.000
   34   15    4    5        3       0.000   0.000   0.000  -0.000  -0.000   0.000
   34   15   13   14        3       0.000   0.000   0.000  -0.000  -0.000   0.000
   30   13   15    4        3       0.000   0.000   0.000  -0.000  -0.000   0.000
   30   13    4   15        3       0.000   0.000   0.000  -0.000  -0.000   0.000
   34   15   13    4        3       0.000   0.000   0.000  -0.000  -0.000   0.000
   34   15    4   13        3       0.000   0.000   0.000  -0.000  -0.000   0.000
   34   15   13   30        3       0.000   0.000   0.000  -0.000  -0.000   0.000
    7    6    5    4        3       0.000   0.000   0.000  -0.000  -0.000   0.000
   10    8    5    4        3       0.000   0.000   0.000  -0.000  -0.000   0.000
    9    8    5    4        3       0.000   0.000   0.000  -0.000  -0.000   0.000
   10    8    5    6        3       0.000   0.000   0.000  -0.000  -0.000   0.000
    9    8    5    6        3       0.000   0.000   0.000  -0.000  -0.000   0.000
    8    5    4    3        3       2.784   0.278   0.828  -3.891  -0.000   0.000
    8    5    6    7        3       0.000   0.000   0.000  -0.000  -0.000   0.000

[ pairs ]
     1     4    1
     2     5    1
     3     6    1
     4     7    1
     3     8    1
     4     9    1
     4    10    1
     7     8    1
     6     9    1
     4    11    1
     2    13    1
     6    10    1
     6    11    1
     5    12    1
     3    14    1
     2    15    1
     6    13    1
     5    14    1
     3    16    1
     3    17    1
     9    12    1
     8    13    1
     6    15    1
     5    16    1
     3    18    1
    10    12    1
     3    19    1
     8    15    1
     1    22    1
     4    20    1
     1    23    1
     4    21    1
     5    22    1
     3    24    1
     5    23    1
    14    16    1
     5    25    1
     7    24    1
     5    26    1
     9    24    1
     3    30    1
    10    24    1
     9    25    1
    13    22    1
    11    24    1
    10    25    1
     9    26    1
     8    27    1
     5    30    1
     4    31    1
    13    23    1
    10    26    1
     8    28    1
     4    32    1
    17    20    1
    15    22    1
    13    24    1
     8    29    1
     4    33    1
     3    34    1
    18    20    1
    17    21    1
    15    23    1
    19    20    1
    18    21    1
    15    24    1
     5    34    1
     4    35    1
    19    21    1
     4    36    1
     4    37    1
    20    22    1
    21    22    1
    20    23    1
    21    23    1
    16    30    1
    15    31    1
    15    32    1
    15    33    1
    14    34    1
    13    35    1
    13    36    1
    13    37    1
    25    27    1
    26    27    1
    25    28    1
    26    28    1
    25    29    1
    26    29    1
    30    31    1
    30    32    1
    30    33    1
    30    34    1
    34    35    1
    34    36    1
    34    37    1

