LIGPARGEN GENERATED GRO FILE
   38
    1UNK    C00    1   0.100   0.100   0.000
    1UNK    C01    2  -0.053   0.100   0.000
    1UNK    C02    3  -0.142   0.100   0.131
    1UNK    C03    4  -0.291   0.121   0.082
    1UNK    C04    5  -0.319   0.173  -0.060
    1UNK    C05    6  -0.355  -0.018   0.092
    1UNK    C06    7  -0.297  -0.070   0.219
    1UNK    C07    8  -0.333  -0.212   0.257
    1UNK    C08    9  -0.303  -0.230   0.406
    1UNK    C09   10  -0.168  -0.172   0.446
    1UNK    C0A   11  -0.141  -0.032   0.382
    1UNK    O0B   12  -0.115   0.067   0.447
    1UNK    C0C   13  -0.145  -0.032   0.225
    1UNK    C0D   14  -0.022  -0.117   0.194
    1UNK    C0E   15   0.098  -0.050   0.261
    1UNK    O0F   16   0.194  -0.111   0.306
    1UNK    H0G   17   0.135   0.131  -0.099
    1UNK    H0H   18   0.143   0.001   0.015
    1UNK    H0I   19   0.142   0.171   0.072
    1UNK    H0J   20  -0.086   0.019  -0.066
    1UNK    H0K   21  -0.075   0.194  -0.052
    1UNK    H0M   22  -0.112   0.186   0.191
    1UNK    H0N   23  -0.338   0.190   0.153
    1UNK    H0O   24  -0.289   0.100  -0.136
    1UNK    H0P   25  -0.269   0.268  -0.081
    1UNK    H0Q   26  -0.426   0.189  -0.073
    1UNK    H0R   27  -0.332  -0.082   0.007
    1UNK    H0S   28  -0.464  -0.007   0.100
    1UNK    H0T   29  -0.350  -0.008   0.294
    1UNK    H0U   30  -0.279  -0.284   0.196
    1UNK    H0V   31  -0.440  -0.228   0.241
    1UNK    H0W   32  -0.310  -0.336   0.432
    1UNK    H0X   33  -0.381  -0.179   0.464
    1UNK    H0Y   34  -0.089  -0.242   0.416
    1UNK    H0Z   35  -0.160  -0.164   0.555
    1UNK    H10   36  -0.004  -0.128   0.087
    1UNK    H11   37  -0.026  -0.219   0.232
    1UNK    H12   38   0.099   0.061   0.263
   1.00000   1.00000   1.00000

