LIGPARGEN GENERATED GRO FILE
   40
    1UNK    C00    1   0.100   0.100   0.000
    1UNK    C01    2  -0.053   0.100   0.000
    1UNK    C02    3  -0.107   0.100   0.144
    1UNK    C03    4  -0.203  -0.017   0.174
    1UNK    C04    5  -0.349   0.029   0.196
    1UNK    C05    6  -0.398  -0.019   0.333
    1UNK    C06    7  -0.446  -0.025   0.089
    1UNK    C07    8  -0.562   0.070   0.052
    1UNK    C08    9  -0.515   0.074  -0.096
    1UNK    C09   10  -0.470   0.211  -0.147
    1UNK    C0A   11  -0.362   0.205  -0.253
    1UNK    O0B   12  -0.370   0.128  -0.349
    1UNK    C0C   13  -0.244   0.298  -0.239
    1UNK    C0D   14  -0.118   0.220  -0.202
    1UNK    O0E   15  -0.103   0.219  -0.061
    1UNK    C0F   16  -0.404  -0.027  -0.060
    1UNK    H0G   17   0.139   0.009   0.048
    1UNK    H0H   18   0.140   0.187   0.054
    1UNK    H0I   19   0.140   0.104  -0.102
    1UNK    H0J   20  -0.087   0.012  -0.055
    1UNK    H0K   21  -0.156   0.196   0.166
    1UNK    H0M   22  -0.024   0.093   0.215
    1UNK    H0N   23  -0.166  -0.064   0.266
    1UNK    H0O   24  -0.196  -0.095   0.098
    1UNK    H0P   25  -0.354   0.139   0.196
    1UNK    H0Q   26  -0.395  -0.129   0.340
    1UNK    H0R   27  -0.501   0.013   0.352
    1UNK    H0S   28  -0.335   0.021   0.413
    1UNK    H0T   29  -0.482  -0.125   0.117
    1UNK    H0U   30  -0.560   0.168   0.103
    1UNK    H0V   31  -0.662   0.027   0.067
    1UNK    H0W   32  -0.589   0.029  -0.164
    1UNK    H0X   33  -0.434   0.272  -0.063
    1UNK    H0Y   34  -0.556   0.263  -0.190
    1UNK    H0Z   35  -0.266   0.375  -0.164
    1UNK    H10   36  -0.232   0.349  -0.336
    1UNK    H11   37  -0.030   0.269  -0.244
    1UNK    H12   38  -0.122   0.117  -0.241
    1UNK    H13   39  -0.302   0.008  -0.081
    1UNK    H14   40  -0.417  -0.124  -0.108
   1.00000   1.00000   1.00000

