LIGPARGEN GENERATED GRO FILE
   54
    1UNK    C00    1   0.100   0.100   0.000
    1UNK    C01    2  -0.052   0.100   0.000
    1UNK    C02    3  -0.108   0.100   0.142
    1UNK    C03    4  -0.261   0.107   0.143
    1UNK    C04    5  -0.322   0.107   0.285
    1UNK    C05    6  -0.279   0.232   0.363
    1UNK    C06    7  -0.477   0.083   0.283
    1UNK    C07    8  -0.534   0.077   0.428
    1UNK    C08    9  -0.613  -0.052   0.457
    1UNK    C09   10  -0.763  -0.029   0.480
    1UNK    C0A   11  -0.852  -0.126   0.400
    1UNK    C0B   12  -0.961  -0.053   0.319
    1UNK    C0C   13  -0.947  -0.074   0.167
    1UNK    C0D   14  -0.930   0.057   0.089
    1UNK    C0E   15  -0.815   0.053  -0.013
    1UNK    C0F   16  -0.719   0.173  -0.002
    1UNK    C0G   17  -0.581   0.136   0.054
    1UNK    C0H   18  -0.559   0.183   0.197
    1UNK    H0I   19   0.138   0.100  -0.102
    1UNK    H0J   20   0.139   0.011   0.051
    1UNK    H0K   21   0.139   0.189   0.051
    1UNK    H0M   22  -0.089   0.012  -0.055
    1UNK    H0N   23  -0.087   0.189  -0.054
    1UNK    H0O   24  -0.066   0.187   0.195
    1UNK    H0P   25  -0.074   0.010   0.195
    1UNK    H0Q   26  -0.300   0.020   0.087
    1UNK    H0R   27  -0.293   0.197   0.089
    1UNK    H0S   28  -0.279   0.020   0.338
    1UNK    H0T   29  -0.313   0.323   0.314
    1UNK    H0U   30  -0.170   0.237   0.373
    1UNK    H0V   31  -0.317   0.232   0.466
    1UNK    H0W   32  -0.490  -0.016   0.239
    1UNK    H0X   33  -0.594   0.167   0.450
    1UNK    H0Y   34  -0.453   0.079   0.501
    1UNK    H0Z   35  -0.572  -0.096   0.549
    1UNK    H10   36  -0.595  -0.127   0.380
    1UNK    H11   37  -0.790   0.075   0.462
    1UNK    H12   38  -0.783  -0.047   0.587
    1UNK    H13   39  -0.901  -0.193   0.471
    1UNK    H14   40  -0.792  -0.191   0.335
    1UNK    H15   41  -0.964   0.054   0.344
    1UNK    H16   42  -1.058  -0.094   0.350
    1UNK    H17   43  -1.040  -0.123   0.132
    1UNK    H18   44  -0.867  -0.145   0.144
    1UNK    H19   45  -0.919   0.142   0.157
    1UNK    H1A   46  -1.024   0.075   0.034
    1UNK    H1B   47  -0.861   0.056  -0.113
    1UNK    H1C   48  -0.760  -0.041  -0.008
    1UNK    H1D   49  -0.764   0.256   0.054
    1UNK    H1E   50  -0.704   0.211  -0.104
    1UNK    H1F   51  -0.505   0.183  -0.010
    1UNK    H1G   52  -0.564   0.028   0.045
    1UNK    H1H   53  -0.657   0.201   0.244
    1UNK    H1I   54  -0.509   0.281   0.194
   1.00000   1.00000   1.00000

