
;
; GENERATED BY LigParGen Server
; Jorgensen Lab @ Yale University 
;
[ atomtypes ]
  opls_807  O807    15.9990     0.000    A    2.96000E-01   8.78640E-01
  opls_818  H818     1.0080     0.000    A    2.50000E-01   1.25520E-01
  opls_816  C816    12.0110     0.000    A    3.45000E-01   3.47272E-01
  opls_824  H824     1.0080     0.000    A    2.50000E-01   1.25520E-01
  opls_805  C805    12.0110     0.000    A    3.50000E-01   2.76144E-01
  opls_811  S811    32.0600     0.000    A    3.55000E-01   1.04600E+00
  opls_804  O804    15.9990     0.000    A    2.96000E-01   8.78640E-01
  opls_836  H836     1.0080     0.000    A    2.50000E-01   1.25520E-01
  opls_834  H834     1.0080     0.000    A    2.50000E-01   1.25520E-01
  opls_828  H828     1.0080     0.000    A    2.50000E-01   1.25520E-01
  opls_802  C802    12.0110     0.000    A    3.50000E-01   2.76144E-01
  opls_827  H827     1.0080     0.000    A    2.50000E-01   1.25520E-01
  opls_809  C809    12.0110     0.000    A    3.50000E-01   2.76144E-01
  opls_838  H838     1.0080     0.000    A    2.50000E-01   1.25520E-01
  opls_822  H822     1.0080     0.000    A    2.50000E-01   1.25520E-01
  opls_825  H825     1.0080     0.000    A    2.50000E-01   1.25520E-01
  opls_826  H826     1.0080     0.000    A    2.50000E-01   1.25520E-01
  opls_830  H830     1.0080     0.000    A    2.50000E-01   1.25520E-01
  opls_821  H821     1.0080     0.000    A    2.50000E-01   1.25520E-01
  opls_812  O812    15.9990     0.000    A    2.96000E-01   7.11280E-01
  opls_820  H820     1.0080     0.000    A    2.50000E-01   1.25520E-01
  opls_837  H837     1.0080     0.000    A    2.50000E-01   1.25520E-01
  opls_829  H829     1.0080     0.000    A    2.50000E-01   1.25520E-01
  opls_831  H831     1.0080     0.000    A    2.50000E-01   1.25520E-01
  opls_832  H832     1.0080     0.000    A    2.50000E-01   1.25520E-01
  opls_800  C800    12.0110     0.000    A    3.50000E-01   2.76144E-01
  opls_814  C814    12.0110     0.000    A    3.45000E-01   3.47272E-01
  opls_823  H823     1.0080     0.000    A    2.50000E-01   1.25520E-01
  opls_806  C806    12.0110     0.000    A    3.55000E-01   2.92880E-01
  opls_833  H833     1.0080     0.000    A    2.50000E-01   1.25520E-01
  opls_815  C815    12.0110     0.000    A    3.45000E-01   3.47272E-01
  opls_835  H835     1.0080     0.000    A    2.50000E-01   1.25520E-01
  opls_813  O813    15.9990     0.000    A    2.96000E-01   7.11280E-01
  opls_819  H819     1.0080     0.000    A    2.50000E-01   1.25520E-01
  opls_810  C810    12.0110     0.000    A    3.50000E-01   2.76144E-01
  opls_817  C817    12.0110     0.000    A    3.50000E-01   2.76144E-01
  opls_801  C801    12.0110     0.000    A    3.50000E-01   2.76144E-01
  opls_803  C803    12.0110     0.000    A    3.55000E-01   2.92880E-01
  opls_808  N808    14.0070     0.000    A    3.30000E-01   7.11280E-01
[ moleculetype ]
; Name               nrexcl
UNK                   3
[ atoms ]
;   nr       type  resnr residue  atom   cgnr     charge       mass  
     1   opls_800      1    UNK   C00      1    -0.2494    12.0110 
     2   opls_801      1    UNK   C01      1    -0.1237    12.0110 
     3   opls_802      1    UNK   C02      1    -0.2554    12.0110 
     4   opls_803      1    UNK   C03      1     0.3207    12.0110 
     5   opls_804      1    UNK   O04      1    -0.4569    15.9990 
     6   opls_805      1    UNK   C05      1     0.0316    12.0110 
     7   opls_806      1    UNK   C06      1     0.3283    12.0110 
     8   opls_807      1    UNK   O07      1     -0.436    15.9990 
     9   opls_808      1    UNK   N08      1    -0.5304    14.0070 
    10   opls_809      1    UNK   C09      1    -0.0771    12.0110 
    11   opls_810      1    UNK   C0A      1    -0.2518    12.0110 
    12   opls_811      1    UNK   S0B      1     1.2643    32.0600 
    13   opls_812      1    UNK   O0C      1    -0.5608    15.9990 
    14   opls_813      1    UNK   O0D      1    -0.5608    15.9990 
    15   opls_814      1    UNK   C0E      1    -0.4763    12.0110 
    16   opls_815      1    UNK   C0F      1    -0.1835    12.0110 
    17   opls_816      1    UNK   C0G      1    -0.1207    12.0110 
    18   opls_817      1    UNK   C0H      1    -0.2132    12.0110 
    19   opls_818      1    UNK   H0I      1     0.0926     1.0080 
    20   opls_819      1    UNK   H0J      1     0.0926     1.0080 
    21   opls_820      1    UNK   H0K      1     0.0926     1.0080 
    22   opls_821      1    UNK   H0M      1     0.1279     1.0080 
    23   opls_822      1    UNK   H0N      1     0.1185     1.0080 
    24   opls_823      1    UNK   H0O      1     0.1185     1.0080 
    25   opls_824      1    UNK   H0P      1     0.1146     1.0080 
    26   opls_825      1    UNK   H0Q      1     0.1272     1.0080 
    27   opls_826      1    UNK   H0R      1     0.1295     1.0080 
    28   opls_827      1    UNK   H0S      1      0.103     1.0080 
    29   opls_828      1    UNK   H0T      1      0.103     1.0080 
    30   opls_829      1    UNK   H0U      1      0.103     1.0080 
    31   opls_830      1    UNK   H0V      1      0.148     1.0080 
    32   opls_831      1    UNK   H0W      1      0.148     1.0080 
    33   opls_832      1    UNK   H0X      2     0.1975     1.0080 
    34   opls_833      1    UNK   H0Y      2     0.1447     1.0080 
    35   opls_834      1    UNK   H0Z      2     0.1447     1.0080 
    36   opls_835      1    UNK   H10      2     0.1663     1.0080 
    37   opls_836      1    UNK   H11      2      0.093     1.0080 
    38   opls_837      1    UNK   H12      2      0.093     1.0080 
    39   opls_838      1    UNK   H13      2      0.093     1.0080 
[ bonds ]
    2     1     1      0.1529 224262.400
    3     2     1      0.1529 224262.400
    4     3     1      0.1522 265265.600
    5     4     1      0.1229 476976.000
    6     2     1      0.1529 224262.400
    7     6     1      0.1522 265265.600
    8     7     1      0.1229 476976.000
    9     6     1      0.1448 319657.600
   10     9     1      0.1448 319657.600
   11     9     1      0.1448 319657.600
   12    11     1      0.1770 284512.000
   13    12     1      0.1440 585760.000
   14    12     1      0.1440 585760.000
   15    12     1      0.1770 284512.000
   16    15     1      0.1520 217568.000
   17    15     1      0.1520 217568.000
   18    17     1      0.1510 234304.000
   19     1     1      0.1090 284512.000
   20     1     1      0.1090 284512.000
   21     1     1      0.1090 284512.000
   22     2     1      0.1090 284512.000
   23     3     1      0.1090 284512.000
   24     3     1      0.1090 284512.000
   25     4     1      0.1090 284512.000
   26     6     1      0.1090 284512.000
   27     7     1      0.1090 284512.000
   28    10     1      0.1090 284512.000
   29    10     1      0.1090 284512.000
   30    10     1      0.1090 284512.000
   31    11     1      0.1090 284512.000
   32    11     1      0.1090 284512.000
   33    15     1      0.1088 284512.000
   34    16     1      0.1088 284512.000
   35    16     1      0.1088 284512.000
   36    17     1      0.1088 284512.000
   37    18     1      0.1090 284512.000
   38    18     1      0.1090 284512.000
   39    18     1      0.1090 284512.000
   17    16     1      0.1520 217568.000

[ angles ]
;  ai    aj    ak funct            c0            c1            c2            c3 
    1     2     3     1    112.700    488.273
    2     3     4     1    111.100    527.184
    3     4     5     1    120.400    669.440
    1     2     6     1    112.700    488.273
    2     6     7     1    111.100    527.184
    6     7     8     1    120.400    669.440
    2     6     9     1    109.470    470.282
    6     9    10     1    107.200    433.462
    6     9    11     1    107.200    433.462
    9    11    12     1    108.600    418.400
   11    12    13     1    108.900    619.232
   11    12    14     1    108.900    619.232
   11    12    15     1    102.000    518.816
   12    15    16     1    128.000    460.240
   12    15    17     1    128.000    460.240
   15    17    18     1    117.200    313.800
    2     1    19     1    110.700    313.800
    2     1    20     1    110.700    313.800
    2     1    21     1    110.700    313.800
    1     2    22     1    110.700    313.800
    2     3    23     1    110.700    313.800
    2     3    24     1    110.700    313.800
    3     4    25     1    115.000    292.880
    2     6    26     1    110.700    313.800
    6     7    27     1    115.000    292.880
    9    10    28     1    109.500    292.880
    9    10    29     1    109.500    292.880
    9    10    30     1    109.500    292.880
    9    11    31     1    109.500    292.880
    9    11    32     1    109.500    292.880
   12    15    33     1    108.000    313.800
   15    16    34     1    117.200    313.800
   15    16    35     1    117.200    313.800
   15    17    36     1    117.200    313.800
   17    18    37     1    110.700    313.800
   17    18    38     1    110.700    313.800
   17    18    39     1    110.700    313.800
   12    11    31     1    109.500    292.880
    8     7    27     1    123.000    292.880
   28    10    29     1    107.800    276.144
   13    12    14     1    119.000    870.272
    7     6     9     1    111.200    669.440
   15    17    16     1     83.000    251.040
   38    18    39     1    107.800    276.144
   16    17    18     1    117.200    313.800
    4     3    23     1    109.500    292.880
    9     6    26     1    109.500    292.880
   34    16    35     1    114.300    292.880
   28    10    30     1    107.800    276.144
   12    11    32     1    109.500    292.880
   31    11    32     1    107.800    276.144
   20     1    21     1    107.800    276.144
    3     2    22     1    110.700    313.800
   14    12    15     1    108.900    619.232
    7     6    26     1    109.500    292.880
   16    17    36     1    117.200    313.800
    6     2    22     1    110.700    313.800
   19     1    21     1    107.800    276.144
   18    17    36     1    114.300    292.880
   23     3    24     1    107.800    276.144
   37    18    39     1    107.800    276.144
    4     3    24     1    109.500    292.880
    5     4    25     1    123.000    292.880
    3     2     6     1    112.700    488.273
   16    15    17     1     83.000    251.040
   13    12    15     1    108.900    619.232
   17    16    35     1    117.200    313.800
   10     9    11     1    107.200    433.462
   37    18    38     1    107.800    276.144
   15    16    17     1     83.000    251.040
   17    16    34     1    117.200    313.800
   19     1    20     1    107.800    276.144
   16    15    33     1    117.200    313.800
   17    15    33     1    117.200    313.800
   29    10    30     1    107.800    276.144

[ dihedrals ]
; IMPROPER DIHEDRAL ANGLES 
;  ai    aj    ak    al funct            c0            c1            c2            c3            c4            c5
    27     7     6     8    4        180.000     43.932     2  
    25     4     3     5    4        180.000     43.932     2  

[ dihedrals ]
; PROPER DIHEDRAL ANGLES
;  ai    aj    ak    al funct            c0            c1            c2            c3            c4            c5
    4    3    2    1        3      -4.960   6.286   1.310  -2.636  -0.000   0.000
    7    6    2    1        3      -4.960   6.286   1.310  -2.636  -0.000   0.000
    7    6    2    3        3      -4.960   6.286   1.310  -2.636  -0.000   0.000
    6    2    3    4        3      -4.960   6.286   1.310  -2.636  -0.000   0.000
   18   17   16   15        3       0.000   0.000   0.000  -0.000  -0.000   0.000
   18   17   15   16        3       0.000   0.000   0.000  -0.000  -0.000   0.000
   18   17   15   12        3       0.000   0.000   0.000  -0.000  -0.000   0.000
   10    9    6    7        3       1.789   3.492   0.536  -5.816  -0.000   0.000
   11    9    6    7        3       1.789   3.492   0.536  -5.816  -0.000   0.000
   10    9    6    2        3       1.789   3.492   0.536  -5.816  -0.000   0.000
   11    9    6    2        3       1.789   3.492   0.536  -5.816  -0.000   0.000
   17   15   12   11        3       0.000   0.000   0.000  -0.000  -0.000   0.000
   16   15   12   11        3       0.000   0.000   0.000  -0.000  -0.000   0.000
   17   15   12   16        3       0.000   0.000   0.000  -0.000  -0.000   0.000
   16   15   12   14        3       0.000   0.000   0.000  -0.000  -0.000   0.000
   17   15   12   14        3       0.000   0.000   0.000  -0.000  -0.000   0.000
   16   15   12   13        3       0.000   0.000   0.000  -0.000  -0.000   0.000
   17   15   12   13        3       0.000   0.000   0.000  -0.000  -0.000   0.000
   15   12   11    9        3       0.000   0.000   0.000  -0.000  -0.000   0.000
   25    4    3    2        3       0.000   0.000   0.000  -0.000  -0.000   0.000
   27    7    6    2        3       0.000   0.000   0.000  -0.000  -0.000   0.000
   27    7    6   26        3       0.753   2.259   0.000  -3.012  -0.000   0.000
   25    4    3   23        3       0.753   2.259   0.000  -3.012  -0.000   0.000
   25    4    3   24        3       0.753   2.259   0.000  -3.012  -0.000   0.000
   27    7    6    9        3      -4.096   5.088   2.966  -3.958  -0.000   0.000
   26    6    7    8        3       0.000   0.000   0.000  -0.000  -0.000   0.000
   23    3    4    5        3       0.000   0.000   0.000  -0.000  -0.000   0.000
   24    3    4    5        3       0.000   0.000   0.000  -0.000  -0.000   0.000
   22    2    3    4        3      -0.209  -0.628   0.000   0.837  -0.000   0.000
   22    2    6    7        3      -0.209  -0.628   0.000   0.837  -0.000   0.000
   21    1    2    3        3       0.628   1.883   0.000  -2.510  -0.000   0.000
   26    6    2    3        3       0.628   1.883   0.000  -2.510  -0.000   0.000
   24    3    2    6        3       0.628   1.883   0.000  -2.510  -0.000   0.000
   20    1    2    6        3       0.628   1.883   0.000  -2.510  -0.000   0.000
   21    1    2    6        3       0.628   1.883   0.000  -2.510  -0.000   0.000
   23    3    2    1        3       0.628   1.883   0.000  -2.510  -0.000   0.000
   19    1    2    6        3       0.628   1.883   0.000  -2.510  -0.000   0.000
   24    3    2    1        3       0.628   1.883   0.000  -2.510  -0.000   0.000
   23    3    2    6        3       0.628   1.883   0.000  -2.510  -0.000   0.000
   20    1    2    3        3       0.628   1.883   0.000  -2.510  -0.000   0.000
   26    6    2    1        3       0.628   1.883   0.000  -2.510  -0.000   0.000
   19    1    2    3        3       0.628   1.883   0.000  -2.510  -0.000   0.000
   22    2    1   19        3       0.628   1.883   0.000  -2.510  -0.000   0.000
   22    2    1   21        3       0.628   1.883   0.000  -2.510  -0.000   0.000
   22    2    1   20        3       0.628   1.883   0.000  -2.510  -0.000   0.000
   23    3    2   22        3       0.628   1.883   0.000  -2.510  -0.000   0.000
   26    6    2   22        3       0.628   1.883   0.000  -2.510  -0.000   0.000
   24    3    2   22        3       0.628   1.883   0.000  -2.510  -0.000   0.000
   22    2    6    9        3      -4.096   5.088   2.966  -3.958  -0.000   0.000
   38   18   17   16        3       0.628   1.883   0.000  -2.510  -0.000   0.000
   39   18   17   15        3       0.628   1.883   0.000  -2.510  -0.000   0.000
   38   18   17   15        3       0.628   1.883   0.000  -2.510  -0.000   0.000
   39   18   17   16        3       0.628   1.883   0.000  -2.510  -0.000   0.000
   37   18   17   15        3       0.628   1.883   0.000  -2.510  -0.000   0.000
   37   18   17   16        3       0.628   1.883   0.000  -2.510  -0.000   0.000
   38   18   17   36        3       0.628   1.883   0.000  -2.510  -0.000   0.000
   37   18   17   36        3       0.628   1.883   0.000  -2.510  -0.000   0.000
   39   18   17   36        3       0.628   1.883   0.000  -2.510  -0.000   0.000
   29   10    9    6        3       1.172   3.515   0.000  -4.686  -0.000   0.000
   28   10    9    6        3       1.172   3.515   0.000  -4.686  -0.000   0.000
   31   11    9   10        3       1.172   3.515   0.000  -4.686  -0.000   0.000
   29   10    9   11        3       1.172   3.515   0.000  -4.686  -0.000   0.000
   30   10    9   11        3       1.172   3.515   0.000  -4.686  -0.000   0.000
   30   10    9    6        3       1.172   3.515   0.000  -4.686  -0.000   0.000
   31   11    9    6        3       1.172   3.515   0.000  -4.686  -0.000   0.000
   26    6    9   10        3       1.172   3.515   0.000  -4.686  -0.000   0.000
   28   10    9   11        3       1.172   3.515   0.000  -4.686  -0.000   0.000
   26    6    9   11        3       1.172   3.515   0.000  -4.686  -0.000   0.000
   32   11    9    6        3       1.172   3.515   0.000  -4.686  -0.000   0.000
   32   11    9   10        3       1.172   3.515   0.000  -4.686  -0.000   0.000
   31   11   12   15        3       0.732   2.197   0.000  -2.929  -0.000   0.000
   32   11   12   15        3       0.732   2.197   0.000  -2.929  -0.000   0.000
   32   11   12   14        3       0.732   2.197   0.000  -2.929  -0.000   0.000
   32   11   12   13        3       0.732   2.197   0.000  -2.929  -0.000   0.000
   31   11   12   14        3       0.732   2.197   0.000  -2.929  -0.000   0.000
   31   11   12   13        3       0.732   2.197   0.000  -2.929  -0.000   0.000
   35   16   17   18        3       0.000   0.000   0.000  -0.000  -0.000   0.000
   34   16   17   18        3       0.000   0.000   0.000  -0.000  -0.000   0.000
   33   15   17   18        3       0.000   0.000   0.000  -0.000  -0.000   0.000
   34   16   15   17        3       0.000   0.000   0.000  -0.000  -0.000   0.000
   33   15   16   17        3       0.000   0.000   0.000  -0.000  -0.000   0.000
   33   15   17   16        3       0.000   0.000   0.000  -0.000  -0.000   0.000
   36   17   16   15        3       0.000   0.000   0.000  -0.000  -0.000   0.000
   35   16   15   17        3       0.000   0.000   0.000  -0.000  -0.000   0.000
   36   17   15   16        3       0.000   0.000   0.000  -0.000  -0.000   0.000
   35   16   17   15        3       0.000   0.000   0.000  -0.000  -0.000   0.000
   34   16   17   15        3       0.000   0.000   0.000  -0.000  -0.000   0.000
   34   16   15   33        3       0.000   0.000   0.000  -0.000  -0.000   0.000
   36   17   15   33        3       0.000   0.000   0.000  -0.000  -0.000   0.000
   35   16   15   33        3       0.000   0.000   0.000  -0.000  -0.000   0.000
   36   17   16   35        3       0.000   0.000   0.000  -0.000  -0.000   0.000
   36   17   16   34        3       0.000   0.000   0.000  -0.000  -0.000   0.000
   34   16   15   12        3       0.000   0.000   0.000  -0.000  -0.000   0.000
   36   17   15   12        3       0.000   0.000   0.000  -0.000  -0.000   0.000
   35   16   15   12        3       0.000   0.000   0.000  -0.000  -0.000   0.000
   33   15   12   11        3       0.732   2.197   0.000  -2.929  -0.000   0.000
   33   15   12   14        3       0.732   2.197   0.000  -2.929  -0.000   0.000
   33   15   12   13        3       0.732   2.197   0.000  -2.929  -0.000   0.000
    9    6    7    8        3       0.000   0.000   0.000  -0.000  -0.000   0.000
    9    6    2    1        3       3.335  -1.552   2.820  -4.602  -0.000   0.000
    9    6    2    3        3       3.335  -1.552   2.820  -4.602  -0.000   0.000
    8    7    6    2        3       0.000   0.000   0.000  -0.000  -0.000   0.000
    5    4    3    2        3       0.000   0.000   0.000  -0.000  -0.000   0.000
   13   12   11    9        3       0.000   0.000   0.000  -0.000  -0.000   0.000
   14   12   11    9        3       0.000   0.000   0.000  -0.000  -0.000   0.000
   12   11    9    6        3       2.784   0.278   0.828  -3.891  -0.000   0.000
   12   11    9   10        3       2.784   0.278   0.828  -3.891  -0.000   0.000

[ pairs ]
     1     4    1
     2     5    1
     1     7    1
     4     6    1
     3     7    1
     2     8    1
     1     9    1
     3     9    1
     2    10    1
     2    11    1
     8     9    1
     7    10    1
     7    11    1
     6    12    1
    10    12    1
     9    13    1
     3    19    1
     9    14    1
     3    20    1
     9    15    1
     3    21    1
     1    23    1
     6    19    1
     1    24    1
     6    20    1
     4    22    1
    11    16    1
     6    21    1
     2    25    1
     1    26    1
    11    17    1
     5    23    1
    13    16    1
     7    22    1
     6    23    1
     5    24    1
     3    26    1
     2    27    1
    14    16    1
    13    17    1
    12    18    1
     6    24    1
    14    17    1
     9    22    1
     8    26    1
     6    28    1
     6    29    1
    10    26    1
     9    27    1
     6    30    1
    11    26    1
     6    31    1
     6    32    1
    11    28    1
    11    29    1
    19    22    1
    11    30    1
    10    31    1
    20    22    1
    10    32    1
    21    22    1
    13    31    1
    11    33    1
    22    23    1
    14    31    1
    13    32    1
    22    24    1
    15    31    1
    14    32    1
    13    33    1
    12    34    1
    15    32    1
    14    33    1
    12    35    1
    23    25    1
    22    26    1
    12    36    1
    24    25    1
    18    33    1
    18    34    1
    15    37    1
    26    27    1
    18    35    1
    16    37    1
    15    38    1
    16    38    1
    15    39    1
    16    39    1
    33    34    1
    33    35    1
    33    36    1
    34    36    1
    35    36    1
    36    37    1
    36    38    1
    36    39    1

