LIGPARGEN GENERATED GRO FILE
   39
    1UNK    C00    1   0.100   0.100   0.000
    1UNK    C01    2  -0.055   0.100   0.000
    1UNK    C02    3  -0.101   0.100   0.147
    1UNK    C03    4  -0.069   0.228   0.220
    1UNK    O04    5  -0.154   0.313   0.246
    1UNK    C05    6  -0.112   0.214  -0.092
    1UNK    C06    7  -0.051   0.200  -0.234
    1UNK    O07    8  -0.016   0.094  -0.285
    1UNK    N08    9  -0.259   0.228  -0.112
    1UNK    C09   10  -0.320   0.111  -0.175
    1UNK    C0A   11  -0.336   0.279   0.005
    1UNK    S0B   12  -0.514   0.314  -0.010
    1UNK    O0C   13  -0.534   0.426  -0.100
    1UNK    O0D   14  -0.587   0.190  -0.028
    1UNK    C0E   15  -0.560   0.377   0.156
    1UNK    C0F   16  -0.709   0.404   0.166
    1UNK    C0G   17  -0.649   0.287   0.239
    1UNK    C0H   18  -0.645   0.291   0.389
    1UNK    H0I   19   0.139   0.025   0.069
    1UNK    H0J   20   0.140   0.197   0.030
    1UNK    H0K   21   0.142   0.075  -0.098
    1UNK    H0M   22  -0.085   0.003  -0.042
    1UNK    H0N   23  -0.051   0.020   0.202
    1UNK    H0O   24  -0.207   0.077   0.155
    1UNK    H0P   25   0.037   0.245   0.245
    1UNK    H0Q   26  -0.073   0.310  -0.056
    1UNK    H0R   27  -0.046   0.294  -0.292
    1UNK    H0S   28  -0.283   0.099  -0.278
    1UNK    H0T   29  -0.427   0.121  -0.188
    1UNK    H0U   30  -0.300   0.018  -0.120
    1UNK    H0V   31  -0.292   0.375   0.036
    1UNK    H0W   32  -0.333   0.209   0.088
    1UNK    H0X   33  -0.492   0.447   0.204
    1UNK    H0Y   34  -0.772   0.382   0.080
    1UNK    H0Z   35  -0.741   0.491   0.222
    1UNK    H10   36  -0.672   0.188   0.203
    1UNK    H11   37  -0.625   0.391   0.427
    1UNK    H12   38  -0.568   0.223   0.426
    1UNK    H13   39  -0.741   0.258   0.429
   1.00000   1.00000   1.00000

