
;
; GENERATED BY LigParGen Server
; Jorgensen Lab @ Yale University 
;
[ atomtypes ]
  opls_818  H818     1.0080     0.000    A    2.50000E-01   1.25520E-01
  opls_804  C804    12.0110     0.000    A    3.45000E-01   3.47272E-01
  opls_824  H824     1.0080     0.000    A    2.50000E-01   1.25520E-01
  opls_805  C805    12.0110     0.000    A    3.45000E-01   3.47272E-01
  opls_828  H828     1.0080     0.000    A    2.50000E-01   1.25520E-01
  opls_813  H813     1.0080     0.000    A    2.50000E-01   1.25520E-01
  opls_832  H832     1.0080     0.000    A    2.50000E-01   1.25520E-01
  opls_802  C802    12.0110     0.000    A    3.50000E-01   2.76144E-01
  opls_815  H815     1.0080     0.000    A    2.50000E-01   1.25520E-01
  opls_801  C801    12.0110     0.000    A    3.50000E-01   2.76144E-01
  opls_830  H830     1.0080     0.000    A    2.50000E-01   1.25520E-01
  opls_822  H822     1.0080     0.000    A    2.50000E-01   1.25520E-01
  opls_803  C803    12.0110     0.000    A    3.50000E-01   2.76144E-01
  opls_825  H825     1.0080     0.000    A    2.50000E-01   1.25520E-01
  opls_826  H826     1.0080     0.000    A    2.50000E-01   1.25520E-01
  opls_814  H814     1.0080     0.000    A    2.50000E-01   1.25520E-01
  opls_821  H821     1.0080     0.000    A    2.50000E-01   1.25520E-01
  opls_820  H820     1.0080     0.000    A    2.50000E-01   1.25520E-01
  opls_811  H811     1.0080     0.000    A    2.50000E-01   1.25520E-01
  opls_829  H829     1.0080     0.000    A    2.50000E-01   1.25520E-01
  opls_831  H831     1.0080     0.000    A    2.50000E-01   1.25520E-01
  opls_816  H816     1.0080     0.000    A    2.50000E-01   1.25520E-01
  opls_800  C800    12.0110     0.000    A    3.50000E-01   2.76144E-01
  opls_823  H823     1.0080     0.000    A    2.50000E-01   1.25520E-01
  opls_806  C806    12.0110     0.000    A    3.45000E-01   3.47272E-01
  opls_819  H819     1.0080     0.000    A    2.50000E-01   1.25520E-01
  opls_810  C810    12.0110     0.000    A    3.50000E-01   2.76144E-01
  opls_827  H827     1.0080     0.000    A    2.50000E-01   1.25520E-01
  opls_809  C809    12.0110     0.000    A    3.50000E-01   2.76144E-01
  opls_808  C808    12.0110     0.000    A    3.50000E-01   2.76144E-01
  opls_817  H817     1.0080     0.000    A    2.50000E-01   1.25520E-01
  opls_812  H812     1.0080     0.000    A    2.50000E-01   1.25520E-01
  opls_807  C807    12.0110     0.000    A    3.50000E-01   2.76144E-01
[ moleculetype ]
; Name               nrexcl
UNK                   3
[ atoms ]
;   nr       type  resnr residue  atom   cgnr     charge       mass  
     1   opls_800      1    UNK   C00      1    -0.2329    12.0110 
     2   opls_801      1    UNK   C01      1    -0.1033    12.0110 
     3   opls_802      1    UNK   C02      1    -0.2372    12.0110 
     4   opls_803      1    UNK   C03      1     -0.044    12.0110 
     5   opls_804      1    UNK   C04      1    -0.1706    12.0110 
     6   opls_805      1    UNK   C05      1     -0.258    12.0110 
     7   opls_806      1    UNK   C06      1    -0.2311    12.0110 
     8   opls_807      1    UNK   C07      1     -0.042    12.0110 
     9   opls_808      1    UNK   C08      1    -0.2341    12.0110 
    10   opls_809      1    UNK   C09      1    -0.2329    12.0110 
    11   opls_810      1    UNK   C0A      1    -0.2299    12.0110 
    12   opls_811      1    UNK   H0B      1     0.0813     1.0080 
    13   opls_812      1    UNK   H0C      1     0.0813     1.0080 
    14   opls_813      1    UNK   H0D      1     0.0813     1.0080 
    15   opls_814      1    UNK   H0E      1     0.0878     1.0080 
    16   opls_815      1    UNK   H0F      1     0.0808     1.0080 
    17   opls_816      1    UNK   H0G      1     0.0808     1.0080 
    18   opls_817      1    UNK   H0H      1     0.0808     1.0080 
    19   opls_818      1    UNK   H0I      1     0.0939     1.0080 
    20   opls_819      1    UNK   H0J      1     0.1295     1.0080 
    21   opls_820      1    UNK   H0K      1     0.1218     1.0080 
    22   opls_821      1    UNK   H0M      1     0.1218     1.0080 
    23   opls_822      1    UNK   H0N      1     0.1222     1.0080 
    24   opls_823      1    UNK   H0O      1     0.1222     1.0080 
    25   opls_824      1    UNK   H0P      1     0.0812     1.0080 
    26   opls_825      1    UNK   H0Q      1     0.0812     1.0080 
    27   opls_826      1    UNK   H0R      1     0.0812     1.0080 
    28   opls_827      1    UNK   H0S      1     0.0808     1.0080 
    29   opls_828      1    UNK   H0T      1     0.0808     1.0080 
    30   opls_829      1    UNK   H0U      1     0.0808     1.0080 
    31   opls_830      1    UNK   H0V      1     0.0816     1.0080 
    32   opls_831      1    UNK   H0W      1     0.0816     1.0080 
    33   opls_832      1    UNK   H0X      2     0.0816     1.0080 
[ bonds ]
    2     1     1      0.1529 224262.400
    3     2     1      0.1529 224262.400
    4     2     1      0.1529 224262.400
    5     4     1      0.1510 234304.000
    6     5     1      0.1520 217568.000
    7     5     1      0.1520 217568.000
    8     4     1      0.1529 224262.400
    9     8     1      0.1529 224262.400
   10     8     1      0.1529 224262.400
   11     8     1      0.1529 224262.400
   12     1     1      0.1090 284512.000
   13     1     1      0.1090 284512.000
   14     1     1      0.1090 284512.000
   15     2     1      0.1090 284512.000
   16     3     1      0.1090 284512.000
   17     3     1      0.1090 284512.000
   18     3     1      0.1090 284512.000
   19     4     1      0.1090 284512.000
   20     5     1      0.1088 284512.000
   21     6     1      0.1088 284512.000
   22     6     1      0.1088 284512.000
   23     7     1      0.1088 284512.000
   24     7     1      0.1088 284512.000
   25     9     1      0.1090 284512.000
   26     9     1      0.1090 284512.000
   27     9     1      0.1090 284512.000
   28    10     1      0.1090 284512.000
   29    10     1      0.1090 284512.000
   30    10     1      0.1090 284512.000
   31    11     1      0.1090 284512.000
   32    11     1      0.1090 284512.000
   33    11     1      0.1090 284512.000
    7     6     1      0.1520 217568.000

[ angles ]
;  ai    aj    ak funct            c0            c1            c2            c3 
    1     2     3     1    112.700    488.273
    1     2     4     1    112.700    488.273
    2     4     5     1    112.700    488.273
    4     5     6     1    117.200    313.800
    4     5     7     1    117.200    313.800
    2     4     8     1    112.700    488.273
    4     8     9     1    112.700    488.273
    4     8    10     1    112.700    488.273
    4     8    11     1    112.700    488.273
    2     1    12     1    110.700    313.800
    2     1    13     1    110.700    313.800
    2     1    14     1    110.700    313.800
    1     2    15     1    110.700    313.800
    2     3    16     1    110.700    313.800
    2     3    17     1    110.700    313.800
    2     3    18     1    110.700    313.800
    2     4    19     1    110.700    313.800
    4     5    20     1    114.300    292.880
    5     6    21     1    117.200    313.800
    5     6    22     1    117.200    313.800
    5     7    23     1    117.200    313.800
    5     7    24     1    117.200    313.800
    8     9    25     1    110.700    313.800
    8     9    26     1    110.700    313.800
    8     9    27     1    110.700    313.800
    8    10    28     1    110.700    313.800
    8    10    29     1    110.700    313.800
    8    10    30     1    110.700    313.800
    8    11    31     1    110.700    313.800
    8    11    32     1    110.700    313.800
    8    11    33     1    110.700    313.800
   23     7    24     1    114.300    292.880
   21     6    22     1    114.300    292.880
   10     8    11     1    112.700    488.273
    3     2    15     1    110.700    313.800
    9     8    10     1    112.700    488.273
    7     6    22     1    117.200    313.800
   12     1    13     1    107.800    276.144
   29    10    30     1    107.800    276.144
   28    10    29     1    107.800    276.144
   25     9    26     1    107.800    276.144
   26     9    27     1    107.800    276.144
    5     7     6     1     83.000    251.040
   12     1    14     1    107.800    276.144
    6     7    24     1    117.200    313.800
    5     6     7     1     83.000    251.040
   31    11    32     1    107.800    276.144
   16     3    18     1    107.800    276.144
   32    11    33     1    107.800    276.144
    5     4     8     1    112.700    488.273
    6     5    20     1    117.200    313.800
    6     7    23     1    117.200    313.800
    9     8    11     1    112.700    488.273
    6     5     7     1     83.000    251.040
    4     2    15     1    110.700    313.800
    3     2     4     1    112.700    488.273
    5     4    19     1    110.700    313.800
    7     5    20     1    117.200    313.800
   13     1    14     1    107.800    276.144
   25     9    27     1    107.800    276.144
    8     4    19     1    110.700    313.800
   16     3    17     1    107.800    276.144
   17     3    18     1    107.800    276.144
   28    10    30     1    107.800    276.144
    7     6    21     1    117.200    313.800
   31    11    33     1    107.800    276.144

[ dihedrals ]
; IMPROPER DIHEDRAL ANGLES 
;  ai    aj    ak    al funct            c0            c1            c2            c3            c4            c5

[ dihedrals ]
; PROPER DIHEDRAL ANGLES
;  ai    aj    ak    al funct            c0            c1            c2            c3            c4            c5
   11    8    4    2        3       2.301  -1.464   0.837  -1.674  -0.000   0.000
    8    4    2    3        3       2.301  -1.464   0.837  -1.674  -0.000   0.000
   10    8    4    2        3       2.301  -1.464   0.837  -1.674  -0.000   0.000
    8    4    2    1        3       2.301  -1.464   0.837  -1.674  -0.000   0.000
    9    8    4    2        3       2.301  -1.464   0.837  -1.674  -0.000   0.000
   11    8    4    5        3       2.301  -1.464   0.837  -1.674  -0.000   0.000
    9    8    4    5        3       2.301  -1.464   0.837  -1.674  -0.000   0.000
   10    8    4    5        3       2.301  -1.464   0.837  -1.674  -0.000   0.000
    8    4    5    6        3       0.000   0.000   0.000  -0.000  -0.000   0.000
    8    4    5    7        3       0.000   0.000   0.000  -0.000  -0.000   0.000
    5    4    2    3        3       2.301  -1.464   0.837  -1.674  -0.000   0.000
    5    4    2    1        3       2.301  -1.464   0.837  -1.674  -0.000   0.000
    7    5    4    2        3       0.000   0.000   0.000  -0.000  -0.000   0.000
    6    5    4    2        3       0.000   0.000   0.000  -0.000  -0.000   0.000
    7    5    4    6        3       0.000   0.000   0.000  -0.000  -0.000   0.000
   30   10    8    4        3       0.628   1.883   0.000  -2.510  -0.000   0.000
   16    3    2    4        3       0.628   1.883   0.000  -2.510  -0.000   0.000
   27    9    8   10        3       0.628   1.883   0.000  -2.510  -0.000   0.000
   30   10    8   11        3       0.628   1.883   0.000  -2.510  -0.000   0.000
   27    9    8    4        3       0.628   1.883   0.000  -2.510  -0.000   0.000
   28   10    8   11        3       0.628   1.883   0.000  -2.510  -0.000   0.000
   31   11    8    9        3       0.628   1.883   0.000  -2.510  -0.000   0.000
   30   10    8    9        3       0.628   1.883   0.000  -2.510  -0.000   0.000
   15    2    4    8        3       0.628   1.883   0.000  -2.510  -0.000   0.000
   33   11    8    4        3       0.628   1.883   0.000  -2.510  -0.000   0.000
   26    9    8   11        3       0.628   1.883   0.000  -2.510  -0.000   0.000
   13    1    2    4        3       0.628   1.883   0.000  -2.510  -0.000   0.000
   14    1    2    3        3       0.628   1.883   0.000  -2.510  -0.000   0.000
   17    3    2    1        3       0.628   1.883   0.000  -2.510  -0.000   0.000
   18    3    2    4        3       0.628   1.883   0.000  -2.510  -0.000   0.000
   32   11    8    9        3       0.628   1.883   0.000  -2.510  -0.000   0.000
   31   11    8   10        3       0.628   1.883   0.000  -2.510  -0.000   0.000
   18    3    2    1        3       0.628   1.883   0.000  -2.510  -0.000   0.000
   28   10    8    9        3       0.628   1.883   0.000  -2.510  -0.000   0.000
   14    1    2    4        3       0.628   1.883   0.000  -2.510  -0.000   0.000
   19    4    2    3        3       0.628   1.883   0.000  -2.510  -0.000   0.000
   25    9    8   10        3       0.628   1.883   0.000  -2.510  -0.000   0.000
   19    4    8    9        3       0.628   1.883   0.000  -2.510  -0.000   0.000
   33   11    8   10        3       0.628   1.883   0.000  -2.510  -0.000   0.000
   32   11    8    4        3       0.628   1.883   0.000  -2.510  -0.000   0.000
   19    4    8   11        3       0.628   1.883   0.000  -2.510  -0.000   0.000
   17    3    2    4        3       0.628   1.883   0.000  -2.510  -0.000   0.000
   29   10    8    9        3       0.628   1.883   0.000  -2.510  -0.000   0.000
   26    9    8    4        3       0.628   1.883   0.000  -2.510  -0.000   0.000
   32   11    8   10        3       0.628   1.883   0.000  -2.510  -0.000   0.000
   19    4    2    1        3       0.628   1.883   0.000  -2.510  -0.000   0.000
   29   10    8    4        3       0.628   1.883   0.000  -2.510  -0.000   0.000
   27    9    8   11        3       0.628   1.883   0.000  -2.510  -0.000   0.000
   26    9    8   10        3       0.628   1.883   0.000  -2.510  -0.000   0.000
   33   11    8    9        3       0.628   1.883   0.000  -2.510  -0.000   0.000
   16    3    2    1        3       0.628   1.883   0.000  -2.510  -0.000   0.000
   29   10    8   11        3       0.628   1.883   0.000  -2.510  -0.000   0.000
   28   10    8    4        3       0.628   1.883   0.000  -2.510  -0.000   0.000
   31   11    8    4        3       0.628   1.883   0.000  -2.510  -0.000   0.000
   13    1    2    3        3       0.628   1.883   0.000  -2.510  -0.000   0.000
   12    1    2    4        3       0.628   1.883   0.000  -2.510  -0.000   0.000
   19    4    8   10        3       0.628   1.883   0.000  -2.510  -0.000   0.000
   25    9    8   11        3       0.628   1.883   0.000  -2.510  -0.000   0.000
   12    1    2    3        3       0.628   1.883   0.000  -2.510  -0.000   0.000
   25    9    8    4        3       0.628   1.883   0.000  -2.510  -0.000   0.000
   15    2    4    5        3       0.628   1.883   0.000  -2.510  -0.000   0.000
   15    2    1   14        3       0.628   1.883   0.000  -2.510  -0.000   0.000
   16    3    2   15        3       0.628   1.883   0.000  -2.510  -0.000   0.000
   15    2    1   13        3       0.628   1.883   0.000  -2.510  -0.000   0.000
   15    2    1   12        3       0.628   1.883   0.000  -2.510  -0.000   0.000
   19    4    2   15        3       0.628   1.883   0.000  -2.510  -0.000   0.000
   17    3    2   15        3       0.628   1.883   0.000  -2.510  -0.000   0.000
   18    3    2   15        3       0.628   1.883   0.000  -2.510  -0.000   0.000
   19    4    5    6        3       0.628   1.883   0.000  -2.510  -0.000   0.000
   19    4    5    7        3       0.628   1.883   0.000  -2.510  -0.000   0.000
   20    5    4    2        3       0.628   1.883   0.000  -2.510  -0.000   0.000
   20    5    4    8        3       0.628   1.883   0.000  -2.510  -0.000   0.000
   20    5    4   19        3       0.628   1.883   0.000  -2.510  -0.000   0.000
   22    6    5    4        3       0.000   0.000   0.000  -0.000  -0.000   0.000
   21    6    5    4        3       0.000   0.000   0.000  -0.000  -0.000   0.000
   24    7    5    4        3       0.000   0.000   0.000  -0.000  -0.000   0.000
   23    7    5    4        3       0.000   0.000   0.000  -0.000  -0.000   0.000
   22    6    5    7        3       0.000   0.000   0.000  -0.000  -0.000   0.000
   20    5    7    6        3       0.000   0.000   0.000  -0.000  -0.000   0.000
   21    6    7    5        3       0.000   0.000   0.000  -0.000  -0.000   0.000
   23    7    5    6        3       0.000   0.000   0.000  -0.000  -0.000   0.000
   21    6    5    7        3       0.000   0.000   0.000  -0.000  -0.000   0.000
   24    7    6    5        3       0.000   0.000   0.000  -0.000  -0.000   0.000
   24    7    5    6        3       0.000   0.000   0.000  -0.000  -0.000   0.000
   23    7    6    5        3       0.000   0.000   0.000  -0.000  -0.000   0.000
   22    6    7    5        3       0.000   0.000   0.000  -0.000  -0.000   0.000
   20    5    6    7        3       0.000   0.000   0.000  -0.000  -0.000   0.000
   24    7    6   22        3       0.000   0.000   0.000  -0.000  -0.000   0.000
   22    6    5   20        3       0.000   0.000   0.000  -0.000  -0.000   0.000
   23    7    6   22        3       0.000   0.000   0.000  -0.000  -0.000   0.000
   24    7    6   21        3       0.000   0.000   0.000  -0.000  -0.000   0.000
   23    7    5   20        3       0.000   0.000   0.000  -0.000  -0.000   0.000
   24    7    5   20        3       0.000   0.000   0.000  -0.000  -0.000   0.000
   21    6    5   20        3       0.000   0.000   0.000  -0.000  -0.000   0.000
   23    7    6   21        3       0.000   0.000   0.000  -0.000  -0.000   0.000

[ pairs ]
     1     5    1
     3     5    1
     2     6    1
     2     7    1
     1     8    1
     3     8    1
     2     9    1
     2    10    1
     2    11    1
     6     8    1
     5     9    1
     7     8    1
     5    10    1
     3    12    1
     5    11    1
     4    12    1
     3    13    1
     4    13    1
     3    14    1
     1    16    1
     4    14    1
     1    17    1
     1    18    1
     5    15    1
     4    16    1
     1    19    1
     4    17    1
     4    18    1
     3    19    1
     2    20    1
     8    15    1
     6    19    1
     4    21    1
     7    19    1
     4    22    1
    12    15    1
     4    23    1
    13    15    1
     9    19    1
     8    20    1
     4    24    1
    14    15    1
    10    19    1
     4    25    1
    11    19    1
     4    26    1
    15    16    1
     4    27    1
    15    17    1
     4    28    1
    15    18    1
     4    29    1
    15    19    1
     4    30    1
    10    25    1
     4    31    1
    11    25    1
    10    26    1
     4    32    1
    11    26    1
    10    27    1
     9    28    1
     4    33    1
    11    27    1
     9    29    1
    19    20    1
    11    28    1
     9    30    1
    11    29    1
     9    31    1
    20    21    1
    11    30    1
    10    31    1
     9    32    1
    20    22    1
    10    32    1
     9    33    1
    20    23    1
    10    33    1
    21    23    1
    20    24    1
    22    23    1
    21    24    1
    22    24    1

