LIGPARGEN GENERATED GRO FILE
   33
    1UNK    C00    1   0.100   0.100   0.000
    1UNK    C01    2  -0.053   0.100   0.000
    1UNK    C02    3  -0.106   0.100   0.145
    1UNK    C03    4  -0.124   0.204  -0.096
    1UNK    C04    5  -0.100   0.353  -0.064
    1UNK    C05    6  -0.162   0.418   0.060
    1UNK    C06    7  -0.012   0.411   0.044
    1UNK    C07    8  -0.101   0.176  -0.252
    1UNK    C08    9  -0.140   0.030  -0.289
    1UNK    C09   10  -0.191   0.265  -0.342
    1UNK    C0A   11   0.045   0.200  -0.296
    1UNK    H0B   12   0.140   0.057   0.092
    1UNK    H0C   13   0.143   0.200  -0.012
    1UNK    H0D   14   0.138   0.037  -0.081
    1UNK    H0E   15  -0.082   0.000  -0.035
    1UNK    H0F   16  -0.084   0.192   0.199
    1UNK    H0G   17  -0.059   0.019   0.202
    1UNK    H0H   18  -0.214   0.083   0.147
    1UNK    H0I   19  -0.232   0.189  -0.080
    1UNK    H0J   20  -0.110   0.415  -0.152
    1UNK    H0K   21  -0.209   0.356   0.135
    1UNK    H0M   22  -0.208   0.515   0.049
    1UNK    H0N   23   0.042   0.348   0.113
    1UNK    H0O   24   0.041   0.501   0.019
    1UNK    H0P   25  -0.243   0.009  -0.259
    1UNK    H0Q   26  -0.075  -0.044  -0.241
    1UNK    H0R   27  -0.133   0.014  -0.397
    1UNK    H0S   28  -0.297   0.248  -0.320
    1UNK    H0T   29  -0.176   0.242  -0.448
    1UNK    H0U   30  -0.172   0.372  -0.332
    1UNK    H0V   31   0.111   0.117  -0.268
    1UNK    H0W   32   0.086   0.292  -0.255
    1UNK    H0X   33   0.053   0.207  -0.406
   1.00000   1.00000   1.00000

