LIGPARGEN GENERATED GRO FILE
  103
    1UNK      C    1   0.100   0.100   0.000
    1UNK      C    2  -0.052   0.100   0.000
    1UNK      C    3  -0.107   0.100   0.143
    1UNK      C    4  -0.261   0.100   0.145
    1UNK      C    5  -0.315   0.093   0.290
    1UNK      C    6  -0.467   0.093   0.298
    1UNK      C    7  -0.539  -0.029   0.238
    1UNK      C    8  -0.500  -0.174   0.284
    1UNK      C    9  -0.571  -0.274   0.191
    1UNK      C   10  -0.720  -0.266   0.210
    1UNK      C   11  -0.763  -0.294   0.354
    1UNK      C   12  -0.874  -0.197   0.390
    1UNK      C   13  -0.934  -0.232   0.526
    1UNK      C   14  -1.088  -0.230   0.507
    1UNK      C   15  -1.149  -0.366   0.487
    1UNK      C   16  -1.099  -0.464   0.587
    1UNK      C   17  -1.193  -0.552   0.638
    1UNK      C   18  -1.153  -0.649   0.727
    1UNK      C   19  -1.018  -0.665   0.749
    1UNK      C   20  -0.985  -0.767   0.834
    1UNK      C   21  -0.855  -0.806   0.847
    1UNK      C   22  -0.840  -0.913   0.931
    1UNK      C   23  -0.734  -1.000   0.922
    1UNK      C   24  -0.760  -1.112   1.001
    1UNK      C   25  -0.754  -1.234   0.940
    1UNK      C   26  -0.663  -1.243   0.838
    1UNK      C   27  -0.576  -1.133   0.814
    1UNK      C   28  -0.433  -1.176   0.866
    1UNK      C   29  -0.398  -1.333   0.886
    1UNK      C   30  -0.389  -1.417   0.757
    1UNK      C   31  -0.333  -1.559   0.768
    1UNK      C   32  -0.416  -1.662   0.847
    1UNK      C   33  -0.359  -1.804   0.836
    1UNK      C   34  -0.634  -0.988   0.825
    1UNK      C   35  -0.635  -0.835   0.764
    1UNK      C   36  -0.529  -0.765   0.673
    1UNK      N   37  -0.545  -0.611   0.647
    1UNK      C   38  -0.681  -0.560   0.604
    1UNK      C   39  -0.784  -0.630   0.697
    1UNK      C   40  -0.751  -0.752   0.770
    1UNK      C   41  -0.917  -0.586   0.690
    1UNK      C   42  -0.961  -0.475   0.617
    1UNK      C   43  -0.869  -0.356   0.606
    1UNK      C   44  -0.711  -0.388   0.591
    1UNK      C   45  -0.661  -0.284   0.470
    1UNK      C   46  -0.522  -0.221   0.433
    1UNK      H   47   0.138   0.100  -0.103
    1UNK      H   48   0.139   0.011   0.051
    1UNK      H   49   0.139   0.189   0.051
    1UNK      H   50  -0.088   0.012  -0.054
    1UNK      H   51  -0.088   0.188  -0.054
    1UNK      H   52  -0.071   0.188   0.197
    1UNK      H   53  -0.071   0.011   0.196
    1UNK      H   54  -0.298   0.014   0.086
    1UNK      H   55  -0.299   0.192   0.095
    1UNK      H   56  -0.277   0.181   0.342
    1UNK      H   57  -0.274   0.005   0.339
    1UNK      H   58  -0.504   0.183   0.247
    1UNK      H   59  -0.496   0.104   0.403
    1UNK      H   60  -0.524  -0.023   0.129
    1UNK      H   61  -0.646  -0.010   0.253
    1UNK      H   62  -0.393  -0.183   0.264
    1UNK      H   63  -0.536  -0.376   0.212
    1UNK      H   64  -0.546  -0.253   0.086
    1UNK      H   65  -0.770  -0.338   0.144
    1UNK      H   66  -0.758  -0.169   0.175
    1UNK      H   67  -0.805  -0.395   0.353
    1UNK      H   68  -0.947  -0.192   0.309
    1UNK      H   69  -0.834  -0.094   0.396
    1UNK      H   70  -0.915  -0.144   0.589
    1UNK      H   71  -1.135  -0.181   0.592
    1UNK      H   72  -1.117  -0.170   0.419
    1UNK      H   73  -1.129  -0.407   0.387
    1UNK      H   74  -1.258  -0.355   0.495
    1UNK      H   75  -1.299  -0.544   0.614
    1UNK      H   76  -1.227  -0.714   0.771
    1UNK      H   77  -1.065  -0.823   0.882
    1UNK      H   78  -0.926  -0.944   0.991
    1UNK      H   79  -0.803  -1.102   1.099
    1UNK      H   80  -0.806  -1.320   0.981
    1UNK      H   81  -0.640  -1.346   0.811
    1UNK      H   82  -0.428  -1.137   0.970
    1UNK      H   83  -0.356  -1.128   0.808
    1UNK      H   84  -0.470  -1.381   0.955
    1UNK      H   85  -0.302  -1.340   0.938
    1UNK      H   86  -0.325  -1.363   0.687
    1UNK      H   87  -0.487  -1.426   0.709
    1UNK      H   88  -0.231  -1.557   0.811
    1UNK      H   89  -0.321  -1.600   0.667
    1UNK      H   90  -0.518  -1.665   0.809
    1UNK      H   91  -0.419  -1.635   0.953
    1UNK      H   92  -0.357  -1.838   0.733
    1UNK      H   93  -0.418  -1.876   0.893
    1UNK      H   94  -0.257  -1.806   0.873
    1UNK      H   95  -0.524  -0.817   0.577
    1UNK      H   96  -0.433  -0.775   0.724
    1UNK      H   97  -0.478  -0.587   0.574
    1UNK      H   98  -0.699  -0.598   0.502
    1UNK      H   99  -0.871  -0.317   0.709
    1UNK      H  100  -0.663  -0.349   0.683
    1UNK      H  101  -0.690  -0.193   0.524
    1UNK      H  102  -0.444  -0.291   0.460
    1UNK      H  103  -0.507  -0.131   0.495
   1.00000   1.00000   1.00000

