
;
; GENERATED BY LigParGen Server
; Jorgensen Lab @ Yale University 
;
[ atomtypes ]
  opls_818  H818     1.0080     0.000    A    2.50000E-01   1.25520E-01
  opls_824  H824     1.0080     0.000    A    2.50000E-01   1.25520E-01
  opls_805  C805    12.0110     0.000    A    3.50000E-01   2.76144E-01
  opls_833  H833     1.0080     0.000    A    2.50000E-01   1.25520E-01
  opls_834  H834     1.0080     0.000    A    2.50000E-01   1.25520E-01
  opls_828  H828     1.0080     0.000    A    2.50000E-01   1.25520E-01
  opls_807  C807    12.0110     0.000    A    3.45000E-01   3.47272E-01
  opls_802  C802    12.0110     0.000    A    3.50000E-01   2.76144E-01
  opls_815  H815     1.0080     0.000    A    2.50000E-01   1.25520E-01
  opls_801  C801    12.0110     0.000    A    3.50000E-01   2.76144E-01
  opls_806  C806    12.0110     0.000    A    3.50000E-01   2.76144E-01
  opls_822  H822     1.0080     0.000    A    2.50000E-01   1.25520E-01
  opls_808  C808    12.0110     0.000    A    3.45000E-01   3.47272E-01
  opls_825  H825     1.0080     0.000    A    2.50000E-01   1.25520E-01
  opls_803  C803    12.0110     0.000    A    3.30000E-01   2.76144E-01
  opls_814  H814     1.0080     0.000    A    2.50000E-01   1.25520E-01
  opls_821  H821     1.0080     0.000    A    2.50000E-01   1.25520E-01
  opls_820  H820     1.0080     0.000    A    2.50000E-01   1.25520E-01
  opls_829  H829     1.0080     0.000    A    2.50000E-01   1.25520E-01
  opls_831  H831     1.0080     0.000    A    2.50000E-01   1.25520E-01
  opls_832  H832     1.0080     0.000    A    2.50000E-01   1.25520E-01
  opls_816  H816     1.0080     0.000    A    2.50000E-01   1.25520E-01
  opls_800  C800    12.0110     0.000    A    3.50000E-01   2.76144E-01
  opls_811  C811    12.0110     0.000    A    3.50000E-01   2.76144E-01
  opls_823  H823     1.0080     0.000    A    2.50000E-01   1.25520E-01
  opls_813  C813    12.0110     0.000    A    3.50000E-01   2.76144E-01
  opls_826  H826     1.0080     0.000    A    2.50000E-01   1.25520E-01
  opls_819  H819     1.0080     0.000    A    2.50000E-01   1.25520E-01
  opls_810  C810    12.0110     0.000    A    3.50000E-01   2.76144E-01
  opls_827  H827     1.0080     0.000    A    2.50000E-01   1.25520E-01
  opls_812  C812    12.0110     0.000    A    3.50000E-01   2.76144E-01
  opls_804  N804    14.0070     0.000    A    3.20000E-01   7.11280E-01
  opls_817  H817     1.0080     0.000    A    2.50000E-01   1.25520E-01
  opls_809  C809    12.0110     0.000    A    3.45000E-01   3.47272E-01
  opls_830  H830     1.0080     0.000    A    2.50000E-01   1.25520E-01
[ moleculetype ]
; Name               nrexcl
UNK                   3
[ atoms ]
;   nr       type  resnr residue  atom   cgnr     charge       mass  
     1   opls_800      1    UNK   C00      1     -0.237    12.0110 
     2   opls_801      1    UNK   C01      1    -0.0433    12.0110 
     3   opls_802      1    UNK   C02      1     0.0431    12.0110 
     4   opls_803      1    UNK   C03      1     0.1401    12.0110 
     5   opls_804      1    UNK   N04      1    -0.4086    14.0070 
     6   opls_805      1    UNK   C05      1    -0.1762    12.0110 
     7   opls_806      1    UNK   C06      1    -0.1507    12.0110 
     8   opls_807      1    UNK   C07      1    -0.1885    12.0110 
     9   opls_808      1    UNK   C08      1     -0.242    12.0110 
    10   opls_809      1    UNK   C09      1    -0.2367    12.0110 
    11   opls_810      1    UNK   C0A      1    -0.1717    12.0110 
    12   opls_811      1    UNK   C0B      1    -0.1845    12.0110 
    13   opls_812      1    UNK   C0C      1    -0.1826    12.0110 
    14   opls_813      1    UNK   C0D      1    -0.1745    12.0110 
    15   opls_814      1    UNK   H0E      1     0.0897     1.0080 
    16   opls_815      1    UNK   H0F      1     0.0897     1.0080 
    17   opls_816      1    UNK   H0G      1     0.0897     1.0080 
    18   opls_817      1    UNK   H0H      1     0.1334     1.0080 
    19   opls_818      1    UNK   H0I      1     0.1069     1.0080 
    20   opls_819      1    UNK   H0J      1     0.1069     1.0080 
    21   opls_820      1    UNK   H0K      1     0.0987     1.0080 
    22   opls_821      1    UNK   H0M      1     0.0987     1.0080 
    23   opls_822      1    UNK   H0N      1     0.1305     1.0080 
    24   opls_823      1    UNK   H0O      1     0.1251     1.0080 
    25   opls_824      1    UNK   H0P      1     0.1251     1.0080 
    26   opls_825      1    UNK   H0Q      1     0.1263     1.0080 
    27   opls_826      1    UNK   H0R      1     0.1263     1.0080 
    28   opls_827      1    UNK   H0S      1     0.1024     1.0080 
    29   opls_828      1    UNK   H0T      1     0.1024     1.0080 
    30   opls_829      1    UNK   H0U      1     0.0935     1.0080 
    31   opls_830      1    UNK   H0V      1     0.0935     1.0080 
    32   opls_831      1    UNK   H0W      1     0.0912     1.0080 
    33   opls_832      1    UNK   H0X      2     0.0912     1.0080 
    34   opls_833      1    UNK   H0Y      2      0.096     1.0080 
    35   opls_834      1    UNK   H0Z      2      0.096     1.0080 
[ bonds ]
    2     1     1      0.1529 224262.400
    3     2     1      0.1529 224262.400
    4     3     1      0.1470 326352.000
    5     4     1      0.1157 543920.000
    6     3     1      0.1529 224262.400
    7     6     1      0.1529 224262.400
    8     7     1      0.1510 234304.000
    9     8     1      0.1520 217568.000
   10     8     1      0.1520 217568.000
   11     2     1      0.1529 224262.400
   12    11     1      0.1529 224262.400
   13    12     1      0.1529 224262.400
   14     2     1      0.1529 224262.400
   15     1     1      0.1090 284512.000
   16     1     1      0.1090 284512.000
   17     1     1      0.1090 284512.000
   18     3     1      0.1090 284512.000
   19     6     1      0.1090 284512.000
   20     6     1      0.1090 284512.000
   21     7     1      0.1090 284512.000
   22     7     1      0.1090 284512.000
   23     8     1      0.1088 284512.000
   24     9     1      0.1088 284512.000
   25     9     1      0.1088 284512.000
   26    10     1      0.1088 284512.000
   27    10     1      0.1088 284512.000
   28    11     1      0.1090 284512.000
   29    11     1      0.1090 284512.000
   30    12     1      0.1090 284512.000
   31    12     1      0.1090 284512.000
   32    13     1      0.1090 284512.000
   33    13     1      0.1090 284512.000
   34    14     1      0.1090 284512.000
   35    14     1      0.1090 284512.000
   10     9     1      0.1520 217568.000
   14    13     1      0.1529 224262.400

[ angles ]
;  ai    aj    ak funct            c0            c1            c2            c3 
    1     2     3     1    112.700    488.273
    2     3     4     1    112.700    488.273
    3     4     5     1    180.000   1255.200
    2     3     6     1    112.700    488.273
    3     6     7     1    112.700    488.273
    6     7     8     1    112.700    488.273
    7     8     9     1    117.200    313.800
    7     8    10     1    117.200    313.800
    1     2    11     1    112.700    488.273
    2    11    12     1    112.700    488.273
   11    12    13     1    112.700    488.273
    1     2    14     1    112.700    488.273
    2     1    15     1    110.700    313.800
    2     1    16     1    110.700    313.800
    2     1    17     1    110.700    313.800
    2     3    18     1    110.700    313.800
    3     6    19     1    110.700    313.800
    3     6    20     1    110.700    313.800
    6     7    21     1    110.700    313.800
    6     7    22     1    110.700    313.800
    7     8    23     1    114.300    292.880
    8     9    24     1    117.200    313.800
    8     9    25     1    117.200    313.800
    8    10    26     1    117.200    313.800
    8    10    27     1    117.200    313.800
    2    11    28     1    110.700    313.800
    2    11    29     1    110.700    313.800
   11    12    30     1    110.700    313.800
   11    12    31     1    110.700    313.800
   12    13    32     1    110.700    313.800
   12    13    33     1    110.700    313.800
    2    14    34     1    110.700    313.800
    2    14    35     1    110.700    313.800
   26    10    27     1    114.300    292.880
    9    10    26     1    117.200    313.800
   13    14    34     1    110.700    313.800
    3     2    14     1    112.700    488.273
    8    10     9     1     83.000    251.040
   14    13    33     1    110.700    313.800
   28    11    29     1    107.800    276.144
   10     8    23     1    117.200    313.800
   34    14    35     1    107.800    276.144
   24     9    25     1    114.300    292.880
   13    12    31     1    110.700    313.800
   14    13    32     1    110.700    313.800
   11     2    14     1    112.700    488.273
   15     1    17     1    107.800    276.144
    9     8    23     1    117.200    313.800
    9     8    10     1     83.000    251.040
    7     6    19     1    110.700    313.800
   15     1    16     1    107.800    276.144
   13    14    35     1    110.700    313.800
    4     3    18     1    108.500    292.880
    3     2    11     1    112.700    488.273
   21     7    22     1    107.800    276.144
   30    12    31     1    107.800    276.144
   13    12    30     1    110.700    313.800
   10     9    24     1    117.200    313.800
   10     9    25     1    117.200    313.800
    8     7    22     1    110.700    313.800
    6     3    18     1    110.700    313.800
    2    14    13     1    112.700    488.273
   16     1    17     1    107.800    276.144
    8     7    21     1    110.700    313.800
   12    11    29     1    110.700    313.800
    4     3     6     1    112.700    488.273
   12    11    28     1    110.700    313.800
    9    10    27     1    117.200    313.800
    8     9    10     1     83.000    251.040
   12    13    14     1    112.700    488.273
   32    13    33     1    107.800    276.144
    7     6    20     1    110.700    313.800
   19     6    20     1    107.800    276.144

[ dihedrals ]
; IMPROPER DIHEDRAL ANGLES 
;  ai    aj    ak    al funct            c0            c1            c2            c3            c4            c5

[ dihedrals ]
; PROPER DIHEDRAL ANGLES
;  ai    aj    ak    al funct            c0            c1            c2            c3            c4            c5
   14    2    3    6        3       2.301  -1.464   0.837  -1.674  -0.000   0.000
   12   13   14    2        3       2.301  -1.464   0.837  -1.674  -0.000   0.000
    7    6    3    2        3       2.301  -1.464   0.837  -1.674  -0.000   0.000
   14    2   11   12        3       2.301  -1.464   0.837  -1.674  -0.000   0.000
   13   14    2   11        3       2.301  -1.464   0.837  -1.674  -0.000   0.000
   11    2    3    6        3       2.301  -1.464   0.837  -1.674  -0.000   0.000
   12   11    2    1        3       2.301  -1.464   0.837  -1.674  -0.000   0.000
   13   12   11    2        3       2.301  -1.464   0.837  -1.674  -0.000   0.000
   13   14    2    1        3       2.301  -1.464   0.837  -1.674  -0.000   0.000
   12   11    2    3        3       2.301  -1.464   0.837  -1.674  -0.000   0.000
   13   14    2    3        3       2.301  -1.464   0.837  -1.674  -0.000   0.000
   14   13   12   11        3       2.301  -1.464   0.837  -1.674  -0.000   0.000
    6    3    2    1        3       2.301  -1.464   0.837  -1.674  -0.000   0.000
   11    2    3    4        3      -2.720   0.000   2.720  -0.000  -0.000   0.000
    7    6    3    4        3      -2.720   0.000   2.720  -0.000  -0.000   0.000
   14    2    3    4        3      -2.720   0.000   2.720  -0.000  -0.000   0.000
    6    3    4    5        3       0.000   0.000   0.000  -0.000  -0.000   0.000
    8    7    6    3        3       2.301  -1.464   0.837  -1.674  -0.000   0.000
   10    8    7    6        3       0.000   0.000   0.000  -0.000  -0.000   0.000
    9    8    7    6        3       0.000   0.000   0.000  -0.000  -0.000   0.000
   10    8    7    9        3       0.000   0.000   0.000  -0.000  -0.000   0.000
    4    3    2    1        3      -2.720   0.000   2.720  -0.000  -0.000   0.000
   34   14    2   11        3       0.628   1.883   0.000  -2.510  -0.000   0.000
   34   14    2    3        3       0.628   1.883   0.000  -2.510  -0.000   0.000
   18    3    6    7        3       0.628   1.883   0.000  -2.510  -0.000   0.000
   16    1    2   11        3       0.628   1.883   0.000  -2.510  -0.000   0.000
   15    1    2   11        3       0.628   1.883   0.000  -2.510  -0.000   0.000
   17    1    2   14        3       0.628   1.883   0.000  -2.510  -0.000   0.000
   21    7    6    3        3       0.628   1.883   0.000  -2.510  -0.000   0.000
   34   14   13   12        3       0.628   1.883   0.000  -2.510  -0.000   0.000
   34   14    2    1        3       0.628   1.883   0.000  -2.510  -0.000   0.000
   35   14    2    1        3       0.628   1.883   0.000  -2.510  -0.000   0.000
   18    3    2   14        3       0.628   1.883   0.000  -2.510  -0.000   0.000
   31   12   13   14        3       0.628   1.883   0.000  -2.510  -0.000   0.000
   33   13   12   11        3       0.628   1.883   0.000  -2.510  -0.000   0.000
   30   12   13   14        3       0.628   1.883   0.000  -2.510  -0.000   0.000
   35   14   13   12        3       0.628   1.883   0.000  -2.510  -0.000   0.000
   32   13   14    2        3       0.628   1.883   0.000  -2.510  -0.000   0.000
   16    1    2   14        3       0.628   1.883   0.000  -2.510  -0.000   0.000
   19    6    3    2        3       0.628   1.883   0.000  -2.510  -0.000   0.000
   29   11    2   14        3       0.628   1.883   0.000  -2.510  -0.000   0.000
   18    3    2    1        3       0.628   1.883   0.000  -2.510  -0.000   0.000
   15    1    2   14        3       0.628   1.883   0.000  -2.510  -0.000   0.000
   31   12   11    2        3       0.628   1.883   0.000  -2.510  -0.000   0.000
   29   11   12   13        3       0.628   1.883   0.000  -2.510  -0.000   0.000
   18    3    2   11        3       0.628   1.883   0.000  -2.510  -0.000   0.000
   35   14    2   11        3       0.628   1.883   0.000  -2.510  -0.000   0.000
   28   11    2    1        3       0.628   1.883   0.000  -2.510  -0.000   0.000
   16    1    2    3        3       0.628   1.883   0.000  -2.510  -0.000   0.000
   35   14    2    3        3       0.628   1.883   0.000  -2.510  -0.000   0.000
   17    1    2   11        3       0.628   1.883   0.000  -2.510  -0.000   0.000
   17    1    2    3        3       0.628   1.883   0.000  -2.510  -0.000   0.000
   28   11    2    3        3       0.628   1.883   0.000  -2.510  -0.000   0.000
   33   13   14    2        3       0.628   1.883   0.000  -2.510  -0.000   0.000
   22    7    6    3        3       0.628   1.883   0.000  -2.510  -0.000   0.000
   28   11    2   14        3       0.628   1.883   0.000  -2.510  -0.000   0.000
   32   13   12   11        3       0.628   1.883   0.000  -2.510  -0.000   0.000
   29   11    2    3        3       0.628   1.883   0.000  -2.510  -0.000   0.000
   30   12   11    2        3       0.628   1.883   0.000  -2.510  -0.000   0.000
   28   11   12   13        3       0.628   1.883   0.000  -2.510  -0.000   0.000
   29   11    2    1        3       0.628   1.883   0.000  -2.510  -0.000   0.000
   15    1    2    3        3       0.628   1.883   0.000  -2.510  -0.000   0.000
   20    6    3    2        3       0.628   1.883   0.000  -2.510  -0.000   0.000
   19    6    7    8        3       0.628   1.883   0.000  -2.510  -0.000   0.000
   20    6    7    8        3       0.628   1.883   0.000  -2.510  -0.000   0.000
   20    6    3    4        3       0.766   2.297   0.000  -3.063  -0.000   0.000
   19    6    3    4        3       0.766   2.297   0.000  -3.063  -0.000   0.000
   19    6    3   18        3       0.628   1.883   0.000  -2.510  -0.000   0.000
   22    7    6   19        3       0.628   1.883   0.000  -2.510  -0.000   0.000
   35   14   13   32        3       0.628   1.883   0.000  -2.510  -0.000   0.000
   34   14   13   32        3       0.628   1.883   0.000  -2.510  -0.000   0.000
   22    7    6   20        3       0.628   1.883   0.000  -2.510  -0.000   0.000
   32   13   12   30        3       0.628   1.883   0.000  -2.510  -0.000   0.000
   21    7    6   20        3       0.628   1.883   0.000  -2.510  -0.000   0.000
   33   13   12   31        3       0.628   1.883   0.000  -2.510  -0.000   0.000
   33   13   12   30        3       0.628   1.883   0.000  -2.510  -0.000   0.000
   32   13   12   31        3       0.628   1.883   0.000  -2.510  -0.000   0.000
   30   12   11   29        3       0.628   1.883   0.000  -2.510  -0.000   0.000
   31   12   11   28        3       0.628   1.883   0.000  -2.510  -0.000   0.000
   21    7    6   19        3       0.628   1.883   0.000  -2.510  -0.000   0.000
   31   12   11   29        3       0.628   1.883   0.000  -2.510  -0.000   0.000
   35   14   13   33        3       0.628   1.883   0.000  -2.510  -0.000   0.000
   30   12   11   28        3       0.628   1.883   0.000  -2.510  -0.000   0.000
   20    6    3   18        3       0.628   1.883   0.000  -2.510  -0.000   0.000
   34   14   13   33        3       0.628   1.883   0.000  -2.510  -0.000   0.000
   21    7    8    9        3       0.628   1.883   0.000  -2.510  -0.000   0.000
   22    7    8   10        3       0.628   1.883   0.000  -2.510  -0.000   0.000
   21    7    8   10        3       0.628   1.883   0.000  -2.510  -0.000   0.000
   22    7    8    9        3       0.628   1.883   0.000  -2.510  -0.000   0.000
   18    3    4    5        3       0.000   0.000   0.000  -0.000  -0.000   0.000
   23    8    7    6        3       0.628   1.883   0.000  -2.510  -0.000   0.000
   23    8    7   21        3       0.628   1.883   0.000  -2.510  -0.000   0.000
   23    8    7   22        3       0.628   1.883   0.000  -2.510  -0.000   0.000
   27   10    8    7        3       0.000   0.000   0.000  -0.000  -0.000   0.000
   25    9    8    7        3       0.000   0.000   0.000  -0.000  -0.000   0.000
   24    9    8    7        3       0.000   0.000   0.000  -0.000  -0.000   0.000
   26   10    8    7        3       0.000   0.000   0.000  -0.000  -0.000   0.000
   25    9   10    8        3       0.000   0.000   0.000  -0.000  -0.000   0.000
   23    8    9   10        3       0.000   0.000   0.000  -0.000  -0.000   0.000
   24    9   10    8        3       0.000   0.000   0.000  -0.000  -0.000   0.000
   24    9    8   10        3       0.000   0.000   0.000  -0.000  -0.000   0.000
   25    9    8   10        3       0.000   0.000   0.000  -0.000  -0.000   0.000
   26   10    8    9        3       0.000   0.000   0.000  -0.000  -0.000   0.000
   27   10    8    9        3       0.000   0.000   0.000  -0.000  -0.000   0.000
   26   10    9    8        3       0.000   0.000   0.000  -0.000  -0.000   0.000
   23    8   10    9        3       0.000   0.000   0.000  -0.000  -0.000   0.000
   27   10    9    8        3       0.000   0.000   0.000  -0.000  -0.000   0.000
   25    9    8   23        3       0.000   0.000   0.000  -0.000  -0.000   0.000
   26   10    8   23        3       0.000   0.000   0.000  -0.000  -0.000   0.000
   26   10    9   24        3       0.000   0.000   0.000  -0.000  -0.000   0.000
   27   10    8   23        3       0.000   0.000   0.000  -0.000  -0.000   0.000
   27   10    9   25        3       0.000   0.000   0.000  -0.000  -0.000   0.000
   26   10    9   25        3       0.000   0.000   0.000  -0.000  -0.000   0.000
   24    9    8   23        3       0.000   0.000   0.000  -0.000  -0.000   0.000
   27   10    9   24        3       0.000   0.000   0.000  -0.000  -0.000   0.000
    5    4    3    2        3       0.000   0.000   0.000  -0.000  -0.000   0.000

[ pairs ]
     1     4    1
     2     5    1
     1     6    1
     2     7    1
     5     6    1
     4     7    1
     3     8    1
     1    12    1
     1    13    1
     6     9    1
     4    11    1
     3    12    1
     6    10    1
     3    13    1
     6    11    1
     4    14    1
     3    15    1
     3    16    1
     1    18    1
     6    14    1
     3    17    1
     2    19    1
     2    20    1
     5    18    1
     4    19    1
     4    20    1
     3    21    1
     7    18    1
     3    22    1
    11    15    1
    11    16    1
     8    19    1
    11    17    1
     8    20    1
    14    15    1
    11    18    1
     6    23    1
     1    28    1
    14    16    1
     9    21    1
     1    29    1
    14    17    1
    10    21    1
     9    22    1
     7    24    1
     3    28    1
    14    18    1
    10    22    1
     7    25    1
     3    29    1
     2    30    1
     7    26    1
     2    31    1
     7    27    1
     2    32    1
     2    33    1
     1    34    1
     1    35    1
    18    19    1
     3    34    1
    18    20    1
     3    35    1
    19    21    1
    20    21    1
    19    22    1
    13    28    1
    20    22    1
    14    28    1
    13    29    1
    14    29    1
    11    32    1
    21    23    1
    14    30    1
    11    33    1
    22    23    1
    14    31    1
    11    34    1
    12    34    1
    11    35    1
    23    24    1
    12    35    1
    23    25    1
    23    26    1
    24    26    1
    23    27    1
    25    26    1
    24    27    1
    25    27    1
    28    30    1
    29    30    1
    28    31    1
    29    31    1
    30    32    1
    31    32    1
    30    33    1
    31    33    1
    32    34    1
    33    34    1
    32    35    1
    33    35    1

