LIGPARGEN GENERATED GRO FILE
   50
    1UNK    C00    1   0.100   0.100   0.000
    1UNK    C01    2  -0.052   0.100   0.000
    1UNK    C02    3  -0.108   0.100   0.143
    1UNK    C03    4  -0.261   0.100   0.142
    1UNK    C04    5  -0.325   0.100   0.283
    1UNK    C05    6  -0.283   0.224   0.363
    1UNK    C06    7  -0.480   0.092   0.274
    1UNK    C07    8  -0.530  -0.036   0.207
    1UNK    O08    9  -0.535   0.092   0.407
    1UNK    C09   10  -0.622   0.193   0.437
    1UNK    O0A   11  -0.653   0.285   0.363
    1UNK    O0B   12  -0.667   0.173   0.564
    1UNK    C0C   13  -0.761   0.272   0.611
    1UNK    C0D   14  -0.900   0.239   0.557
    1UNK    C0E   15  -0.763   0.267   0.765
    1UNK    C0F   16  -0.625   0.300   0.825
    1UNK    N0G   17  -0.624   0.302   0.973
    1UNK    C0H   18  -0.658   0.172   1.031
    1UNK    C0I   19  -0.490   0.343   1.020
    1UNK    H0J   20   0.138   0.100  -0.103
    1UNK    H0K   21   0.139   0.011   0.051
    1UNK    H0M   22   0.139   0.189   0.051
    1UNK    H0N   23  -0.088   0.012  -0.055
    1UNK    H0O   24  -0.088   0.189  -0.054
    1UNK    H0P   25  -0.070   0.189   0.195
    1UNK    H0Q   26  -0.071   0.012   0.197
    1UNK    H0R   27  -0.293   0.011   0.087
    1UNK    H0S   28  -0.297   0.187   0.086
    1UNK    H0T   29  -0.289   0.012   0.338
    1UNK    H0U   30  -0.312   0.316   0.310
    1UNK    H0V   31  -0.175   0.226   0.380
    1UNK    H0W   32  -0.330   0.225   0.462
    1UNK    H0X   33  -0.516   0.177   0.215
    1UNK    H0Y   34  -0.490  -0.125   0.257
    1UNK    H0Z   35  -0.504  -0.040   0.101
    1UNK    H10   36  -0.639  -0.043   0.215
    1UNK    H11   37  -0.730   0.372   0.579
    1UNK    H12   38  -0.932   0.140   0.590
    1UNK    H13   39  -0.900   0.237   0.447
    1UNK    H14   40  -0.973   0.313   0.589
    1UNK    H15   41  -0.793   0.166   0.796
    1UNK    H16   42  -0.837   0.338   0.803
    1UNK    H17   43  -0.597   0.400   0.789
    1UNK    H18   44  -0.550   0.229   0.788
    1UNK    H19   45  -0.763   0.147   1.011
    1UNK    H1A   46  -0.648   0.175   1.140
    1UNK    H1B   47  -0.594   0.092   0.993
    1UNK    H1C   48  -0.465   0.442   0.982
    1UNK    H1D   49  -0.413   0.273   0.987
    1UNK    H1E   50  -0.488   0.349   1.129
   1.00000   1.00000   1.00000

