LIGPARGEN GENERATED GRO FILE
   32
    1UNK    C00    1   0.100   0.100   0.000
    1UNK    C01    2  -0.053   0.100   0.000
    1UNK    C02    3  -0.106   0.100   0.145
    1UNK    C03    4  -0.258   0.106   0.162
    1UNK    C04    5  -0.322   0.225   0.088
    1UNK    C05    6  -0.391   0.167  -0.036
    1UNK    C06    7  -0.342   0.222  -0.170
    1UNK    C07    8  -0.257   0.113  -0.235
    1UNK    C08    9  -0.246  -0.004  -0.136
    1UNK    C09   10  -0.105  -0.020  -0.081
    1UNK    C0A   11  -0.361   0.017  -0.037
    1UNK    C0B   12  -0.332  -0.016   0.109
    1UNK    H0C   13   0.139   0.189   0.051
    1UNK    H0D   14   0.139   0.102  -0.102
    1UNK    H0E   15   0.140   0.011   0.050
    1UNK    H0F   16  -0.083   0.194  -0.049
    1UNK    H0G   17  -0.062   0.186   0.197
    1UNK    H0H   18  -0.068   0.011   0.197
    1UNK    H0I   19  -0.277   0.116   0.270
    1UNK    H0J   20  -0.251   0.305   0.067
    1UNK    H0K   21  -0.400   0.269   0.153
    1UNK    H0M   22  -0.499   0.185  -0.027
    1UNK    H0N   23  -0.285   0.315  -0.158
    1UNK    H0O   24  -0.427   0.244  -0.234
    1UNK    H0P   25  -0.160   0.152  -0.266
    1UNK    H0Q   26  -0.307   0.079  -0.327
    1UNK    H0R   27  -0.267  -0.097  -0.191
    1UNK    H0S   28  -0.038  -0.037  -0.166
    1UNK    H0T   29  -0.099  -0.111  -0.020
    1UNK    H0U   30  -0.449  -0.039  -0.072
    1UNK    H0V   31  -0.277  -0.110   0.122
    1UNK    H0W   32  -0.427  -0.026   0.162
   1.00000   1.00000   1.00000

