
;
; GENERATED BY LigParGen Server
; Jorgensen Lab @ Yale University 
;
[ atomtypes ]
  opls_818  H818     1.0080     0.000    A    2.50000E-01   1.25520E-01
  opls_805  C805    12.0110     0.000    A    3.45000E-01   3.47272E-01
  opls_824  H824     1.0080     0.000    A    2.50000E-01   1.25520E-01
  opls_813  H813     1.0080     0.000    A    2.50000E-01   1.25520E-01
  opls_807  C807    12.0110     0.000    A    3.45000E-01   3.47272E-01
  opls_802  C802    12.0110     0.000    A    3.50000E-01   2.76144E-01
  opls_815  H815     1.0080     0.000    A    2.50000E-01   1.25520E-01
  opls_801  C801    12.0110     0.000    A    3.50000E-01   2.76144E-01
  opls_822  H822     1.0080     0.000    A    2.50000E-01   1.25520E-01
  opls_803  C803    12.0110     0.000    A    3.50000E-01   2.76144E-01
  opls_825  H825     1.0080     0.000    A    2.50000E-01   1.25520E-01
  opls_826  H826     1.0080     0.000    A    2.50000E-01   1.25520E-01
  opls_814  H814     1.0080     0.000    A    2.50000E-01   1.25520E-01
  opls_821  H821     1.0080     0.000    A    2.50000E-01   1.25520E-01
  opls_820  H820     1.0080     0.000    A    2.50000E-01   1.25520E-01
  opls_811  H811     1.0080     0.000    A    2.50000E-01   1.25520E-01
  opls_816  H816     1.0080     0.000    A    2.50000E-01   1.25520E-01
  opls_800  C800    12.0110     0.000    A    3.50000E-01   2.76144E-01
  opls_823  H823     1.0080     0.000    A    2.50000E-01   1.25520E-01
  opls_806  C806    12.0110     0.000    A    3.45000E-01   3.47272E-01
  opls_819  H819     1.0080     0.000    A    2.50000E-01   1.25520E-01
  opls_804  C804    12.0110     0.000    A    3.50000E-01   2.76144E-01
  opls_809  O809    15.9990     0.000    A    2.96000E-01   7.11280E-01
  opls_810  O810    15.9990     0.000    A    2.96000E-01   7.11280E-01
  opls_817  H817     1.0080     0.000    A    2.50000E-01   1.25520E-01
  opls_812  H812     1.0080     0.000    A    2.50000E-01   1.25520E-01
  opls_808  S808    32.0600     0.000    A    3.55000E-01   1.04600E+00
[ moleculetype ]
; Name               nrexcl
UNK                   3
[ atoms ]
;   nr       type  resnr residue  atom   cgnr     charge       mass  
     1   opls_800      1    UNK   C00      1    -0.2555    12.0110 
     2   opls_801      1    UNK   C01      1    -0.0578    12.0110 
     3   opls_802      1    UNK   C02      1    -0.2314    12.0110 
     4   opls_803      1    UNK   C03      1    -0.2328    12.0110 
     5   opls_804      1    UNK   C04      1     -0.124    12.0110 
     6   opls_805      1    UNK   C05      1    -0.4239    12.0110 
     7   opls_806      1    UNK   C06      1    -0.1501    12.0110 
     8   opls_807      1    UNK   C07      1    -0.5333    12.0110 
     9   opls_808      1    UNK   S08      1     1.3093    32.0600 
    10   opls_809      1    UNK   O09      1    -0.5546    15.9990 
    11   opls_810      1    UNK   O0A      1    -0.5546    15.9990 
    12   opls_811      1    UNK   H0B      1     0.0937     1.0080 
    13   opls_812      1    UNK   H0C      1     0.0937     1.0080 
    14   opls_813      1    UNK   H0D      1     0.0937     1.0080 
    15   opls_814      1    UNK   H0E      1     0.0848     1.0080 
    16   opls_815      1    UNK   H0F      1     0.0848     1.0080 
    17   opls_816      1    UNK   H0G      1     0.0848     1.0080 
    18   opls_817      1    UNK   H0H      1     0.0852     1.0080 
    19   opls_818      1    UNK   H0I      1     0.0852     1.0080 
    20   opls_819      1    UNK   H0J      1     0.0852     1.0080 
    21   opls_820      1    UNK   H0K      1     0.1081     1.0080 
    22   opls_821      1    UNK   H0M      1     0.1081     1.0080 
    23   opls_822      1    UNK   H0N      1     0.1816     1.0080 
    24   opls_823      1    UNK   H0O      1     0.1346     1.0080 
    25   opls_824      1    UNK   H0P      1     0.1346     1.0080 
    26   opls_825      1    UNK   H0Q      1     0.1753     1.0080 
    27   opls_826      1    UNK   H0R      1     0.1753     1.0080 
[ bonds ]
    2     1     1      0.1529 224262.400
    3     2     1      0.1529 224262.400
    4     2     1      0.1529 224262.400
    5     2     1      0.1529 224262.400
    6     5     1      0.1510 234304.000
    7     6     1      0.1520 217568.000
    8     7     1      0.1520 217568.000
    9     6     1      0.1810 185769.600
   10     9     1      0.1440 585760.000
   11     9     1      0.1440 585760.000
   12     1     1      0.1090 284512.000
   13     1     1      0.1090 284512.000
   14     1     1      0.1090 284512.000
   15     3     1      0.1090 284512.000
   16     3     1      0.1090 284512.000
   17     3     1      0.1090 284512.000
   18     4     1      0.1090 284512.000
   19     4     1      0.1090 284512.000
   20     4     1      0.1090 284512.000
   21     5     1      0.1090 284512.000
   22     5     1      0.1090 284512.000
   23     6     1      0.1088 284512.000
   24     7     1      0.1088 284512.000
   25     7     1      0.1088 284512.000
   26     8     1      0.1088 284512.000
   27     8     1      0.1088 284512.000
    9     8     1      0.1810 185769.600

[ angles ]
;  ai    aj    ak funct            c0            c1            c2            c3 
    1     2     3     1    112.700    488.273
    1     2     4     1    112.700    488.273
    1     2     5     1    112.700    488.273
    2     5     6     1    112.700    488.273
    5     6     7     1    117.200    313.800
    6     7     8     1     83.000    251.040
    5     6     9     1    108.600    418.400
    6     9    10     1    108.900    619.232
    6     9    11     1    108.900    619.232
    2     1    12     1    110.700    313.800
    2     1    13     1    110.700    313.800
    2     1    14     1    110.700    313.800
    2     3    15     1    110.700    313.800
    2     3    16     1    110.700    313.800
    2     3    17     1    110.700    313.800
    2     4    18     1    110.700    313.800
    2     4    19     1    110.700    313.800
    2     4    20     1    110.700    313.800
    2     5    21     1    110.700    313.800
    2     5    22     1    110.700    313.800
    5     6    23     1    114.300    292.880
    6     7    24     1    117.200    313.800
    6     7    25     1    117.200    313.800
    7     8    26     1    117.200    313.800
    7     8    27     1    117.200    313.800
    9     6    23     1    108.000    313.800
   21     5    22     1    107.800    276.144
   13     1    14     1    107.800    276.144
   26     8    27     1    114.300    292.880
   12     1    13     1    107.800    276.144
    7     6     9     1    128.000    460.240
    6     9     8     1    102.000    518.816
    6     5    22     1    110.700    313.800
    8     9    11     1    108.900    619.232
    7     6    23     1    117.200    313.800
   19     4    20     1    107.800    276.144
   16     3    17     1    107.800    276.144
   12     1    14     1    107.800    276.144
   15     3    16     1    107.800    276.144
   18     4    20     1    107.800    276.144
    7     8     9     1    128.000    460.240
    8     7    25     1    117.200    313.800
    3     2     4     1    112.700    488.273
    3     2     5     1    112.700    488.273
    4     2     5     1    112.700    488.273
   15     3    17     1    107.800    276.144
    6     5    21     1    110.700    313.800
   10     9    11     1    119.000    870.272
    9     8    26     1    108.000    313.800
    8     7    24     1    117.200    313.800
    8     9    10     1    108.900    619.232
   24     7    25     1    114.300    292.880
   18     4    19     1    107.800    276.144
    9     8    27     1    108.000    313.800

[ dihedrals ]
; IMPROPER DIHEDRAL ANGLES 
;  ai    aj    ak    al funct            c0            c1            c2            c3            c4            c5

[ dihedrals ]
; PROPER DIHEDRAL ANGLES
;  ai    aj    ak    al funct            c0            c1            c2            c3            c4            c5
    6    5    2    1        3       2.301  -1.464   0.837  -1.674  -0.000   0.000
    6    5    2    3        3       2.301  -1.464   0.837  -1.674  -0.000   0.000
    6    5    2    4        3       2.301  -1.464   0.837  -1.674  -0.000   0.000
    7    6    5    2        3       0.000   0.000   0.000  -0.000  -0.000   0.000
    8    7    6    5        3       0.000   0.000   0.000  -0.000  -0.000   0.000
    8    9    6    5        3       0.000   0.000   0.000  -0.000  -0.000   0.000
   21    5    2    4        3       0.628   1.883   0.000  -2.510  -0.000   0.000
   22    5    2    3        3       0.628   1.883   0.000  -2.510  -0.000   0.000
   14    1    2    5        3       0.628   1.883   0.000  -2.510  -0.000   0.000
   18    4    2    3        3       0.628   1.883   0.000  -2.510  -0.000   0.000
   20    4    2    1        3       0.628   1.883   0.000  -2.510  -0.000   0.000
   15    3    2    4        3       0.628   1.883   0.000  -2.510  -0.000   0.000
   20    4    2    5        3       0.628   1.883   0.000  -2.510  -0.000   0.000
   19    4    2    1        3       0.628   1.883   0.000  -2.510  -0.000   0.000
   13    1    2    4        3       0.628   1.883   0.000  -2.510  -0.000   0.000
   12    1    2    4        3       0.628   1.883   0.000  -2.510  -0.000   0.000
   14    1    2    3        3       0.628   1.883   0.000  -2.510  -0.000   0.000
   17    3    2    4        3       0.628   1.883   0.000  -2.510  -0.000   0.000
   12    1    2    5        3       0.628   1.883   0.000  -2.510  -0.000   0.000
   19    4    2    3        3       0.628   1.883   0.000  -2.510  -0.000   0.000
   22    5    2    4        3       0.628   1.883   0.000  -2.510  -0.000   0.000
   17    3    2    1        3       0.628   1.883   0.000  -2.510  -0.000   0.000
   17    3    2    5        3       0.628   1.883   0.000  -2.510  -0.000   0.000
   19    4    2    5        3       0.628   1.883   0.000  -2.510  -0.000   0.000
   16    3    2    5        3       0.628   1.883   0.000  -2.510  -0.000   0.000
   14    1    2    4        3       0.628   1.883   0.000  -2.510  -0.000   0.000
   21    5    2    1        3       0.628   1.883   0.000  -2.510  -0.000   0.000
   18    4    2    1        3       0.628   1.883   0.000  -2.510  -0.000   0.000
   16    3    2    1        3       0.628   1.883   0.000  -2.510  -0.000   0.000
   12    1    2    3        3       0.628   1.883   0.000  -2.510  -0.000   0.000
   15    3    2    1        3       0.628   1.883   0.000  -2.510  -0.000   0.000
   13    1    2    5        3       0.628   1.883   0.000  -2.510  -0.000   0.000
   20    4    2    3        3       0.628   1.883   0.000  -2.510  -0.000   0.000
   21    5    2    3        3       0.628   1.883   0.000  -2.510  -0.000   0.000
   16    3    2    4        3       0.628   1.883   0.000  -2.510  -0.000   0.000
   18    4    2    5        3       0.628   1.883   0.000  -2.510  -0.000   0.000
   15    3    2    5        3       0.628   1.883   0.000  -2.510  -0.000   0.000
   13    1    2    3        3       0.628   1.883   0.000  -2.510  -0.000   0.000
   22    5    2    1        3       0.628   1.883   0.000  -2.510  -0.000   0.000
   22    5    6    7        3       0.628   1.883   0.000  -2.510  -0.000   0.000
   21    5    6    7        3       0.628   1.883   0.000  -2.510  -0.000   0.000
   21    5    6    9        3       0.946   2.837   0.000  -3.782  -0.000   0.000
   22    5    6    9        3       0.946   2.837   0.000  -3.782  -0.000   0.000
   23    6    5    2        3       0.628   1.883   0.000  -2.510  -0.000   0.000
   23    6    5   21        3       0.628   1.883   0.000  -2.510  -0.000   0.000
   23    6    5   22        3       0.628   1.883   0.000  -2.510  -0.000   0.000
   24    7    6    5        3       0.000   0.000   0.000  -0.000  -0.000   0.000
   25    7    6    5        3       0.000   0.000   0.000  -0.000  -0.000   0.000
   26    8    7    6        3       0.000   0.000   0.000  -0.000  -0.000   0.000
   27    8    7    6        3       0.000   0.000   0.000  -0.000  -0.000   0.000
   23    6    7    8        3       0.000   0.000   0.000  -0.000  -0.000   0.000
   26    8    7   24        3       0.000   0.000   0.000  -0.000  -0.000   0.000
   25    7    6   23        3       0.000   0.000   0.000  -0.000  -0.000   0.000
   27    8    7   24        3       0.000   0.000   0.000  -0.000  -0.000   0.000
   27    8    7   25        3       0.000   0.000   0.000  -0.000  -0.000   0.000
   24    7    6   23        3       0.000   0.000   0.000  -0.000  -0.000   0.000
   26    8    7   25        3       0.000   0.000   0.000  -0.000  -0.000   0.000
   24    7    8    9        3       0.000   0.000   0.000  -0.000  -0.000   0.000
   25    7    8    9        3       0.000   0.000   0.000  -0.000  -0.000   0.000
   24    7    6    9        3       0.000   0.000   0.000  -0.000  -0.000   0.000
   25    7    6    9        3       0.000   0.000   0.000  -0.000  -0.000   0.000
   26    8    9    6        3       0.732   2.197   0.000  -2.929  -0.000   0.000
   27    8    9    6        3       0.732   2.197   0.000  -2.929  -0.000   0.000
   23    6    9    8        3       0.732   2.197   0.000  -2.929  -0.000   0.000
   23    6    9   11        3       0.732   2.197   0.000  -2.929  -0.000   0.000
   26    8    9   11        3       0.732   2.197   0.000  -2.929  -0.000   0.000
   27    8    9   10        3       0.732   2.197   0.000  -2.929  -0.000   0.000
   27    8    9   11        3       0.732   2.197   0.000  -2.929  -0.000   0.000
   23    6    9   10        3       0.732   2.197   0.000  -2.929  -0.000   0.000
   26    8    9   10        3       0.732   2.197   0.000  -2.929  -0.000   0.000
   10    9    6    5        3       0.000   0.000   0.000  -0.000  -0.000   0.000
   11    9    6    5        3       0.000   0.000   0.000  -0.000  -0.000   0.000
   10    9    6    7        3       0.000   0.000   0.000  -0.000  -0.000   0.000
   11    9    8    7        3       0.000   0.000   0.000  -0.000  -0.000   0.000
   10    9    8    7        3       0.000   0.000   0.000  -0.000  -0.000   0.000
   11    9    6    7        3       0.000   0.000   0.000  -0.000  -0.000   0.000
    9    6    5    2        3       2.784   0.278   0.828  -3.891  -0.000   0.000

[ pairs ]
     1     6    1
     3     6    1
     2     7    1
     4     6    1
     2     9    1
     5     8    1
     5    10    1
     3    12    1
     5    11    1
     4    12    1
     3    13    1
     1    15    1
     7    10    1
     5    12    1
     4    13    1
     3    14    1
     1    16    1
     7    11    1
     5    13    1
     4    14    1
     1    17    1
     5    14    1
     4    15    1
     1    18    1
     5    15    1
     4    16    1
     1    19    1
     5    16    1
     4    17    1
     3    18    1
     1    20    1
     5    17    1
     3    19    1
     1    21    1
     5    18    1
     3    20    1
     1    22    1
     5    19    1
     3    21    1
     5    20    1
     4    21    1
     3    22    1
     2    23    1
     4    22    1
     7    21    1
     7    22    1
     5    24    1
     9    21    1
     5    25    1
     9    22    1
     8    23    1
     6    26    1
    10    23    1
     9    24    1
     6    27    1
    11    23    1
     9    25    1
    10    26    1
    11    26    1
    10    27    1
    11    27    1
    21    23    1
    22    23    1
    23    24    1
    23    25    1
    24    26    1
    25    26    1
    24    27    1
    25    27    1

