LIGPARGEN GENERATED GRO FILE
   44
    1UNK    C00    1   0.100   0.100   0.000
    1UNK    C01    2  -0.053   0.100   0.000
    1UNK    C02    3  -0.106   0.100   0.149
    1UNK    C03    4  -0.261   0.085   0.187
    1UNK    C04    5  -0.320  -0.050   0.126
    1UNK    C05    6  -0.225  -0.170   0.112
    1UNK    C06    7  -0.395  -0.032  -0.016
    1UNK    O07    8  -0.501  -0.093  -0.035
    1UNK    C08    9  -0.333   0.055  -0.132
    1UNK    C09   10  -0.272   0.190  -0.087
    1UNK    C0A   11  -0.368   0.294  -0.024
    1UNK    N0B   12  -0.346   0.331   0.119
    1UNK    C0C   13  -0.293   0.466   0.134
    1UNK    C0D   14  -0.308   0.235   0.228
    1UNK    C0E   15  -0.426   0.225   0.326
    1UNK    C0F   16  -0.118   0.216  -0.087
    1UNK    C0G   17  -0.061   0.233  -0.226
    1UNK    H0H   18   0.138   0.017   0.061
    1UNK    H0I   19   0.141   0.193   0.040
    1UNK    H0J   20   0.139   0.085  -0.101
    1UNK    H0K   21  -0.081   0.005  -0.047
    1UNK    H0M   22  -0.066   0.191   0.196
    1UNK    H0N   23  -0.053   0.020   0.203
    1UNK    H0O   24  -0.347   0.112   0.129
    1UNK    H0P   25  -0.398  -0.082   0.197
    1UNK    H0Q   26  -0.166  -0.166   0.021
    1UNK    H0R   27  -0.283  -0.262   0.105
    1UNK    H0S   28  -0.158  -0.179   0.198
    1UNK    H0T   29  -0.412   0.074  -0.205
    1UNK    H0U   30  -0.259  -0.008  -0.183
    1UNK    H0V   31  -0.255   0.147   0.003
    1UNK    H0W   32  -0.471   0.254  -0.029
    1UNK    H0X   33  -0.370   0.383  -0.089
    1UNK    H0Y   34  -0.189   0.472   0.100
    1UNK    H0Z   35  -0.299   0.500   0.237
    1UNK    H10   36  -0.352   0.537   0.075
    1UNK    H11   37  -0.226   0.280   0.286
    1UNK    H12   38  -0.521   0.205   0.274
    1UNK    H13   39  -0.437   0.318   0.383
    1UNK    H14   40  -0.410   0.144   0.398
    1UNK    H15   41  -0.098   0.310  -0.033
    1UNK    H16   42  -0.075   0.143  -0.286
    1UNK    H17   43   0.045   0.256  -0.222
    1UNK    H18   44  -0.110   0.317  -0.277
   1.00000   1.00000   1.00000

