
;
; GENERATED BY LigParGen Server
; Jorgensen Lab @ Yale University 
;
[ atomtypes ]
  opls_818  H818     1.0080     0.000    A    2.50000E-01   1.25520E-01
  opls_805  C805    12.0110     0.000    A    3.50000E-01   2.76144E-01
  opls_813  H813     1.0080     0.000    A    2.50000E-01   1.25520E-01
  opls_807  C807    12.0110     0.000    A    3.45000E-01   3.47272E-01
  opls_806  C806    12.0110     0.000    A    3.50000E-01   2.76144E-01
  opls_815  H815     1.0080     0.000    A    2.50000E-01   1.25520E-01
  opls_822  H822     1.0080     0.000    A    2.50000E-01   1.25520E-01
  opls_808  C808    12.0110     0.000    A    3.45000E-01   3.47272E-01
  opls_814  H814     1.0080     0.000    A    2.50000E-01   1.25520E-01
  opls_821  H821     1.0080     0.000    A    2.50000E-01   1.25520E-01
  opls_812  H812     1.0080     0.000    A    2.42000E-01   1.25520E-01
  opls_820  H820     1.0080     0.000    A    2.50000E-01   1.25520E-01
  opls_801  C801    12.0110     0.000    A    3.55000E-01   2.92880E-01
  opls_810  C810    12.0110     0.000    A    3.55000E-01   2.92880E-01
  opls_816  H816     1.0080     0.000    A    2.50000E-01   1.25520E-01
  opls_811  H811     1.0080     0.000    A    2.42000E-01   1.25520E-01
  opls_802  S802    32.0600     0.000    A    3.60000E-01   1.48532E+00
  opls_823  H823     1.0080     0.000    A    2.50000E-01   1.25520E-01
  opls_824  H824     1.0080     0.000    A    2.42000E-01   1.25520E-01
  opls_800  C800    12.0110     0.000    A    3.55000E-01   2.92880E-01
  opls_819  H819     1.0080     0.000    A    2.50000E-01   1.25520E-01
  opls_804  C804    12.0110     0.000    A    3.50000E-01   2.76144E-01
  opls_803  C803    12.0110     0.000    A    3.55000E-01   2.92880E-01
  opls_817  H817     1.0080     0.000    A    2.50000E-01   1.25520E-01
  opls_809  C809    12.0110     0.000    A    3.45000E-01   3.47272E-01
[ moleculetype ]
; Name               nrexcl
UNK                   3
[ atoms ]
;   nr       type  resnr residue  atom   cgnr     charge       mass  
     1   opls_800      1    UNK   C00      1    -0.1515    12.0110 
     2   opls_801      1    UNK   C01      1     -0.251    12.0110 
     3   opls_802      1    UNK   S02      1     0.0728    32.0600 
     4   opls_803      1    UNK   C03      1    -0.1784    12.0110 
     5   opls_804      1    UNK   C04      1    -0.1011    12.0110 
     6   opls_805      1    UNK   C05      1    -0.1705    12.0110 
     7   opls_806      1    UNK   C06      1    -0.1476    12.0110 
     8   opls_807      1    UNK   C07      1    -0.1856    12.0110 
     9   opls_808      1    UNK   C08      1    -0.2462    12.0110 
    10   opls_809      1    UNK   C09      1    -0.2376    12.0110 
    11   opls_810      1    UNK   C0A      1    -0.1604    12.0110 
    12   opls_811      1    UNK   H0B      1     0.1746     1.0080 
    13   opls_812      1    UNK   H0C      1       0.19     1.0080 
    14   opls_813      1    UNK   H0D      1     0.1063     1.0080 
    15   opls_814      1    UNK   H0E      1     0.1063     1.0080 
    16   opls_815      1    UNK   H0F      1     0.0949     1.0080 
    17   opls_816      1    UNK   H0G      1     0.0949     1.0080 
    18   opls_817      1    UNK   H0H      1     0.0934     1.0080 
    19   opls_818      1    UNK   H0I      1     0.0934     1.0080 
    20   opls_819      1    UNK   H0J      1     0.1342     1.0080 
    21   opls_820      1    UNK   H0K      1     0.1236     1.0080 
    22   opls_821      1    UNK   H0M      1     0.1236     1.0080 
    23   opls_822      1    UNK   H0N      1     0.1237     1.0080 
    24   opls_823      1    UNK   H0O      1     0.1237     1.0080 
    25   opls_824      1    UNK   H0P      1     0.1746     1.0080 
[ bonds ]
    2     1     1      0.1367 456892.800
    3     2     1      0.1740 209200.000
    4     3     1      0.1740 209200.000
    5     4     1      0.1504 265265.600
    6     5     1      0.1529 224262.400
    7     6     1      0.1529 224262.400
    8     7     1      0.1510 234304.000
    9     8     1      0.1520 217568.000
   10     8     1      0.1520 217568.000
   11     1     1      0.1424 392459.200
   12     1     1      0.1080 307105.600
   13     2     1      0.1080 307105.600
   14     5     1      0.1090 284512.000
   15     5     1      0.1090 284512.000
   16     6     1      0.1090 284512.000
   17     6     1      0.1090 284512.000
   18     7     1      0.1090 284512.000
   19     7     1      0.1090 284512.000
   20     8     1      0.1088 284512.000
   21     9     1      0.1088 284512.000
   22     9     1      0.1088 284512.000
   23    10     1      0.1088 284512.000
   24    10     1      0.1088 284512.000
   25    11     1      0.1080 307105.600
   11     4     1      0.1367 456892.800
   10     9     1      0.1520 217568.000

[ angles ]
;  ai    aj    ak funct            c0            c1            c2            c3 
    1     2     3     1    111.170    585.760
    2     3     4     1     97.000    619.232
    3     4     5     1    125.000    585.760
    4     5     6     1    114.000    527.184
    5     6     7     1    112.700    488.273
    6     7     8     1    112.700    488.273
    7     8     9     1    117.200    313.800
    7     8    10     1    117.200    313.800
    2     1    11     1    107.300    585.760
    2     1    12     1    125.700    292.880
    1     2    13     1    132.100    292.880
    4     5    14     1    109.500    292.880
    4     5    15     1    109.500    292.880
    5     6    16     1    110.700    313.800
    5     6    17     1    110.700    313.800
    6     7    18     1    110.700    313.800
    6     7    19     1    110.700    313.800
    7     8    20     1    114.300    292.880
    8     9    21     1    117.200    313.800
    8     9    22     1    117.200    313.800
    8    10    23     1    117.200    313.800
    8    10    24     1    117.200    313.800
    1    11    25     1    127.500    292.880
    4    11    25     1    125.700    292.880
    7     6    17     1    110.700    313.800
    8    10     9     1     83.000    251.040
    9     8    20     1    117.200    313.800
    9    10    24     1    117.200    313.800
    6     5    14     1    110.700    313.800
   14     5    15     1    107.800    276.144
    3     4    11     1    111.170    585.760
    6     5    15     1    110.700    313.800
   18     7    19     1    107.800    276.144
   16     6    17     1    107.800    276.144
    8     7    18     1    110.700    313.800
   21     9    22     1    114.300    292.880
   11     1    12     1    127.500    292.880
    8     7    19     1    110.700    313.800
    9    10    23     1    117.200    313.800
    7     6    16     1    110.700    313.800
    3     2    13     1    125.000    292.880
    5     4    11     1    132.100    585.760
   10     9    22     1    117.200    313.800
   10     8    20     1    117.200    313.800
   10     9    21     1    117.200    313.800
   23    10    24     1    114.300    292.880
    8     9    10     1     83.000    251.040
    9     8    10     1     83.000    251.040
    1    11     4     1    107.300    585.760

[ dihedrals ]
; IMPROPER DIHEDRAL ANGLES 
;  ai    aj    ak    al funct            c0            c1            c2            c3            c4            c5
    11     4     3     5    4        180.000     10.460     2  
    13     2     1     3    4        180.000     10.460     2  
    12     1     2    11    4        180.000     10.460     2  
    25    11     1     4    4        180.000     10.460     2  

[ dihedrals ]
; PROPER DIHEDRAL ANGLES
;  ai    aj    ak    al funct            c0            c1            c2            c3            c4            c5
    4   11    1    2        3       9.079   0.000  -9.079  -0.000  -0.000   0.000
    4    3    2    1        3       0.000   0.000   0.000  -0.000  -0.000   0.000
   11    4    5    6        3       2.301  -1.464   0.837  -1.674  -0.000   0.000
   11    4    3    2        3       0.000   0.000   0.000  -0.000  -0.000   0.000
   11    1    2    3        3       8.786   0.000  -8.786  -0.000  -0.000   0.000
    5    4   11    1        3       9.079   0.000  -9.079  -0.000  -0.000   0.000
    5    4    3    2        3       0.941   2.314   2.410  -5.665  -0.000   0.000
    6    5    4    3        3       2.784   0.278   0.828  -3.891  -0.000   0.000
    7    6    5    4        3       2.301  -1.464   0.837  -1.674  -0.000   0.000
    8    7    6    5        3       2.301  -1.464   0.837  -1.674  -0.000   0.000
   10    8    7    6        3       0.000   0.000   0.000  -0.000  -0.000   0.000
    9    8    7    6        3       0.000   0.000   0.000  -0.000  -0.000   0.000
   10    8    7    9        3       0.000   0.000   0.000  -0.000  -0.000   0.000
   13    2    1   11        3      30.334   0.000  -30.334  -0.000  -0.000   0.000
   13    2    1   12        3      30.334   0.000  -30.334  -0.000  -0.000   0.000
   13    2    3    4        3      30.334   0.000  -30.334  -0.000  -0.000   0.000
   25   11    4    5        3      30.334   0.000  -30.334  -0.000  -0.000   0.000
   25   11    4    3        3      30.334   0.000  -30.334  -0.000  -0.000   0.000
   12    1    2    3        3      30.334   0.000  -30.334  -0.000  -0.000   0.000
   12    1   11    4        3      30.334   0.000  -30.334  -0.000  -0.000   0.000
   25   11    1    2        3      30.334   0.000  -30.334  -0.000  -0.000   0.000
   25   11    1   12        3      30.334   0.000  -30.334  -0.000  -0.000   0.000
   15    5    4   11        3       0.967   2.900   0.000  -3.866  -0.000   0.000
   14    5    4   11        3       0.967   2.900   0.000  -3.866  -0.000   0.000
   15    5    4    3        3       0.946   2.837   0.000  -3.782  -0.000   0.000
   14    5    4    3        3       0.946   2.837   0.000  -3.782  -0.000   0.000
   16    6    5    4        3       0.628   1.883   0.000  -2.510  -0.000   0.000
   17    6    5    4        3       0.628   1.883   0.000  -2.510  -0.000   0.000
   15    5    6    7        3       0.628   1.883   0.000  -2.510  -0.000   0.000
   18    7    6    5        3       0.628   1.883   0.000  -2.510  -0.000   0.000
   14    5    6    7        3       0.628   1.883   0.000  -2.510  -0.000   0.000
   19    7    6    5        3       0.628   1.883   0.000  -2.510  -0.000   0.000
   17    6    7    8        3       0.628   1.883   0.000  -2.510  -0.000   0.000
   16    6    7    8        3       0.628   1.883   0.000  -2.510  -0.000   0.000
   18    7    6   17        3       0.628   1.883   0.000  -2.510  -0.000   0.000
   18    7    6   16        3       0.628   1.883   0.000  -2.510  -0.000   0.000
   19    7    6   17        3       0.628   1.883   0.000  -2.510  -0.000   0.000
   19    7    6   16        3       0.628   1.883   0.000  -2.510  -0.000   0.000
   17    6    5   15        3       0.628   1.883   0.000  -2.510  -0.000   0.000
   16    6    5   15        3       0.628   1.883   0.000  -2.510  -0.000   0.000
   16    6    5   14        3       0.628   1.883   0.000  -2.510  -0.000   0.000
   17    6    5   14        3       0.628   1.883   0.000  -2.510  -0.000   0.000
   18    7    8    9        3       0.628   1.883   0.000  -2.510  -0.000   0.000
   18    7    8   10        3       0.628   1.883   0.000  -2.510  -0.000   0.000
   19    7    8   10        3       0.628   1.883   0.000  -2.510  -0.000   0.000
   19    7    8    9        3       0.628   1.883   0.000  -2.510  -0.000   0.000
   20    8    7    6        3       0.628   1.883   0.000  -2.510  -0.000   0.000
   20    8    7   18        3       0.628   1.883   0.000  -2.510  -0.000   0.000
   20    8    7   19        3       0.628   1.883   0.000  -2.510  -0.000   0.000
   21    9    8    7        3       0.000   0.000   0.000  -0.000  -0.000   0.000
   23   10    8    7        3       0.000   0.000   0.000  -0.000  -0.000   0.000
   24   10    8    7        3       0.000   0.000   0.000  -0.000  -0.000   0.000
   22    9    8    7        3       0.000   0.000   0.000  -0.000  -0.000   0.000
   22    9   10    8        3       0.000   0.000   0.000  -0.000  -0.000   0.000
   23   10    9    8        3       0.000   0.000   0.000  -0.000  -0.000   0.000
   20    8    9   10        3       0.000   0.000   0.000  -0.000  -0.000   0.000
   21    9    8   10        3       0.000   0.000   0.000  -0.000  -0.000   0.000
   22    9    8   10        3       0.000   0.000   0.000  -0.000  -0.000   0.000
   24   10    9    8        3       0.000   0.000   0.000  -0.000  -0.000   0.000
   21    9   10    8        3       0.000   0.000   0.000  -0.000  -0.000   0.000
   23   10    8    9        3       0.000   0.000   0.000  -0.000  -0.000   0.000
   24   10    8    9        3       0.000   0.000   0.000  -0.000  -0.000   0.000
   20    8   10    9        3       0.000   0.000   0.000  -0.000  -0.000   0.000
   23   10    9   21        3       0.000   0.000   0.000  -0.000  -0.000   0.000
   24   10    9   21        3       0.000   0.000   0.000  -0.000  -0.000   0.000
   23   10    8   20        3       0.000   0.000   0.000  -0.000  -0.000   0.000
   24   10    8   20        3       0.000   0.000   0.000  -0.000  -0.000   0.000
   23   10    9   22        3       0.000   0.000   0.000  -0.000  -0.000   0.000
   22    9    8   20        3       0.000   0.000   0.000  -0.000  -0.000   0.000
   21    9    8   20        3       0.000   0.000   0.000  -0.000  -0.000   0.000
   24   10    9   22        3       0.000   0.000   0.000  -0.000  -0.000   0.000
    3    4   11    1        3       8.786   0.000  -8.786  -0.000  -0.000   0.000

[ pairs ]
     1     5    1
     2     5    1
     3     6    1
     4     7    1
     5     8    1
     6     9    1
     3    12    1
     6    10    1
     4    12    1
     6    11    1
     4    13    1
     3    14    1
     3    15    1
     4    16    1
     7    14    1
     4    17    1
     7    15    1
     5    18    1
    11    13    1
     8    16    1
     5    19    1
    12    13    1
    11    14    1
     8    17    1
    11    15    1
     6    20    1
     9    18    1
     2    25    1
    10    18    1
     9    19    1
     7    21    1
     3    25    1
    10    19    1
     7    22    1
    14    16    1
     7    23    1
     5    25    1
    15    16    1
    14    17    1
     7    24    1
    15    17    1
    16    18    1
    17    18    1
    16    19    1
    17    19    1
    12    25    1
    18    20    1
    19    20    1
    20    21    1
    20    22    1
    20    23    1
    21    23    1
    20    24    1
    22    23    1
    21    24    1
    22    24    1

