LIGPARGEN GENERATED GRO FILE
   25
    1UNK    C00    1   0.100   0.100   0.000
    1UNK    C01    2  -0.038   0.100   0.000
    1UNK    S02    3  -0.102   0.100   0.159
    1UNK    C03    4   0.055   0.100   0.228
    1UNK    C04    5   0.071   0.100   0.378
    1UNK    C05    6   0.079   0.243   0.432
    1UNK    C06    7   0.097   0.249   0.584
    1UNK    C07    8   0.227   0.190   0.629
    1UNK    C08    9   0.260   0.187   0.776
    1UNK    C09   10   0.230   0.059   0.704
    1UNK    C0A   11   0.153   0.100   0.132
    1UNK    H0B   12   0.160   0.100  -0.090
    1UNK    H0C   13  -0.104   0.100  -0.086
    1UNK    H0D   14   0.163   0.045   0.402
    1UNK    H0E   15  -0.012   0.046   0.426
    1UNK    H0F   16  -0.012   0.298   0.405
    1UNK    H0G   17   0.162   0.296   0.384
    1UNK    H0H   18   0.012   0.199   0.632
    1UNK    H0I   19   0.094   0.354   0.614
    1UNK    H0J   20   0.309   0.213   0.562
    1UNK    H0K   21   0.186   0.225   0.846
    1UNK    H0M   22   0.363   0.206   0.805
    1UNK    H0N   23   0.136   0.009   0.726
    1UNK    H0O   24   0.312  -0.009   0.684
    1UNK    H0P   25   0.259   0.100   0.155
   1.00000   1.00000   1.00000

