
;
; GENERATED BY LigParGen Server
; Jorgensen Lab @ Yale University 
;
[ atomtypes ]
  opls_818  H818     1.0080     0.000    A    2.50000E-01   1.25520E-01
  opls_816  C816    12.0110     0.000    A    3.45000E-01   3.47272E-01
  opls_824  H824     1.0080     0.000    A    2.50000E-01   1.25520E-01
  opls_834  H834     1.0080     0.000    A    2.50000E-01   1.25520E-01
  opls_828  H828     1.0080     0.000    A    2.50000E-01   1.25520E-01
  opls_835  H835     1.0080     0.000    A    2.50000E-01   1.25520E-01
  opls_802  C802    12.0110     0.000    A    3.50000E-01   2.76144E-01
  opls_827  H827     1.0080     0.000    A    2.50000E-01   1.25520E-01
  opls_809  C809    12.0110     0.000    A    3.50000E-01   2.76144E-01
  opls_822  H822     1.0080     0.000    A    2.50000E-01   1.25520E-01
  opls_803  C803    12.0110     0.000    A    3.50000E-01   2.76144E-01
  opls_807  C807    12.0110     0.000    A    3.50000E-01   2.76144E-01
  opls_830  H830     1.0080     0.000    A    2.50000E-01   1.25520E-01
  opls_821  H821     1.0080     0.000    A    2.50000E-01   1.25520E-01
  opls_820  H820     1.0080     0.000    A    2.50000E-01   1.25520E-01
  opls_814  C814    12.0110     0.000    A    3.75000E-01   4.39320E-01
  opls_829  H829     1.0080     0.000    A    2.50000E-01   1.25520E-01
  opls_831  H831     1.0080     0.000    A    2.50000E-01   1.25520E-01
  opls_832  H832     1.0080     0.000    A    2.50000E-01   1.25520E-01
  opls_800  C800    12.0110     0.000    A    3.50000E-01   2.76144E-01
  opls_813  C813    12.0110     0.000    A    3.45000E-01   3.47272E-01
  opls_805  C805    12.0110     0.000    A    3.30000E-01   2.76144E-01
  opls_823  H823     1.0080     0.000    A    2.50000E-01   1.25520E-01
  opls_833  H833     1.0080     0.000    A    2.50000E-01   1.25520E-01
  opls_826  H826     1.0080     0.000    A    2.50000E-01   1.25520E-01
  opls_806  N806    14.0070     0.000    A    3.20000E-01   7.11280E-01
  opls_825  H825     1.0080     0.000    A    2.50000E-01   1.25520E-01
  opls_819  H819     1.0080     0.000    A    2.50000E-01   1.25520E-01
  opls_804  C804    12.0110     0.000    A    3.50000E-01   2.76144E-01
  opls_801  C801    12.0110     0.000    A    3.50000E-01   2.76144E-01
  opls_810  O810    15.9990     0.000    A    2.96000E-01   7.11280E-01
  opls_815  O815    15.9990     0.000    A    2.96000E-01   8.78640E-01
  opls_817  H817     1.0080     0.000    A    2.50000E-01   1.25520E-01
  opls_812  C812    12.0110     0.000    A    3.45000E-01   3.47272E-01
  opls_811  O811    15.9990     0.000    A    2.96000E-01   7.11280E-01
  opls_808  S808    32.0600     0.000    A    3.55000E-01   1.04600E+00
[ moleculetype ]
; Name               nrexcl
UNK                   3
[ atoms ]
;   nr       type  resnr residue  atom   cgnr     charge       mass  
     1   opls_800      1    UNK   C00      1    -0.2396    12.0110 
     2   opls_801      1    UNK   C01      1    -0.1747    12.0110 
     3   opls_802      1    UNK   C02      1    -0.1773    12.0110 
     4   opls_803      1    UNK   C03      1    -0.1778    12.0110 
     5   opls_804      1    UNK   C04      1     0.1665    12.0110 
     6   opls_805      1    UNK   C05      1     0.1366    12.0110 
     7   opls_806      1    UNK   N06      1    -0.3842    14.0070 
     8   opls_807      1    UNK   C07      1    -0.5239    12.0110 
     9   opls_808      1    UNK   S08      1     1.3072    32.0600 
    10   opls_809      1    UNK   C09      1    -0.5721    12.0110 
    11   opls_810      1    UNK   O0A      1    -0.5595    15.9990 
    12   opls_811      1    UNK   O0B      1    -0.5595    15.9990 
    13   opls_812      1    UNK   C0C      1    -0.1446    12.0110 
    14   opls_813      1    UNK   C0D      1    -0.2487    12.0110 
    15   opls_814      1    UNK   C0E      1     0.3252    12.0110 
    16   opls_815      1    UNK   O0F      1     -0.345    15.9990 
    17   opls_816      1    UNK   C0G      1    -0.2496    12.0110 
    18   opls_817      1    UNK   H0H      1     0.0832     1.0080 
    19   opls_818      1    UNK   H0I      1     0.0832     1.0080 
    20   opls_819      1    UNK   H0J      1     0.0832     1.0080 
    21   opls_820      1    UNK   H0K      1     0.0953     1.0080 
    22   opls_821      1    UNK   H0M      1     0.0953     1.0080 
    23   opls_822      1    UNK   H0N      1     0.0937     1.0080 
    24   opls_823      1    UNK   H0O      1     0.0937     1.0080 
    25   opls_824      1    UNK   H0P      1     0.1193     1.0080 
    26   opls_825      1    UNK   H0Q      1     0.1193     1.0080 
    27   opls_826      1    UNK   H0R      1     0.1674     1.0080 
    28   opls_827      1    UNK   H0S      1     0.1674     1.0080 
    29   opls_828      1    UNK   H0T      1     0.1694     1.0080 
    30   opls_829      1    UNK   H0U      1     0.1694     1.0080 
    31   opls_830      1    UNK   H0V      1     0.1694     1.0080 
    32   opls_831      1    UNK   H0W      1     0.1454     1.0080 
    33   opls_832      1    UNK   H0X      2     0.1395     1.0080 
    34   opls_833      1    UNK   H0Y      2     0.1395     1.0080 
    35   opls_834      1    UNK   H0Z      2     0.1438     1.0080 
    36   opls_835      1    UNK   H10      2     0.1438     1.0080 
[ bonds ]
    2     1     1      0.1529 224262.400
    3     2     1      0.1529 224262.400
    4     3     1      0.1529 224262.400
    5     4     1      0.1529 224262.400
    6     5     1      0.1470 326352.000
    7     6     1      0.1157 543920.000
    8     5     1      0.1529 224262.400
    9     8     1      0.1770 284512.000
   10     9     1      0.1770 284512.000
   11     9     1      0.1440 585760.000
   12     9     1      0.1440 585760.000
   13     5     1      0.1510 234304.000
   14    13     1      0.1520 217568.000
   15    14     1      0.1522 265265.600
   16    15     1      0.1229 476976.000
   17    13     1      0.1520 217568.000
   18     1     1      0.1090 284512.000
   19     1     1      0.1090 284512.000
   20     1     1      0.1090 284512.000
   21     2     1      0.1090 284512.000
   22     2     1      0.1090 284512.000
   23     3     1      0.1090 284512.000
   24     3     1      0.1090 284512.000
   25     4     1      0.1090 284512.000
   26     4     1      0.1090 284512.000
   27     8     1      0.1090 284512.000
   28     8     1      0.1090 284512.000
   29    10     1      0.1090 284512.000
   30    10     1      0.1090 284512.000
   31    10     1      0.1090 284512.000
   32    13     1      0.1088 284512.000
   33    14     1      0.1088 284512.000
   34    14     1      0.1088 284512.000
   35    17     1      0.1088 284512.000
   36    17     1      0.1088 284512.000
   17    15     1      0.1522 265265.600

[ angles ]
;  ai    aj    ak funct            c0            c1            c2            c3 
    1     2     3     1    112.700    488.273
    2     3     4     1    112.700    488.273
    3     4     5     1    112.700    488.273
    4     5     6     1    112.700    488.273
    5     6     7     1    180.000   1255.200
    4     5     8     1    112.700    488.273
    5     8     9     1    108.600    418.400
    8     9    10     1    102.000    518.816
    8     9    11     1    108.900    619.232
    8     9    12     1    108.900    619.232
    4     5    13     1    112.700    488.273
    5    13    14     1    117.200    313.800
   13    14    15     1     85.000    527.184
   14    15    16     1    134.000    669.440
    5    13    17     1    117.200    313.800
    2     1    18     1    110.700    313.800
    2     1    19     1    110.700    313.800
    2     1    20     1    110.700    313.800
    1     2    21     1    110.700    313.800
    1     2    22     1    110.700    313.800
    2     3    23     1    110.700    313.800
    2     3    24     1    110.700    313.800
    3     4    25     1    110.700    313.800
    3     4    26     1    110.700    313.800
    5     8    27     1    110.700    313.800
    5     8    28     1    110.700    313.800
    9    10    29     1    109.500    292.880
    9    10    30     1    109.500    292.880
    9    10    31     1    109.500    292.880
    5    13    32     1    114.300    292.880
   13    14    33     1    117.200    313.800
   13    14    34     1    117.200    313.800
   13    17    35     1    117.200    313.800
   13    17    36     1    117.200    313.800
   15    14    34     1    110.000    313.800
    9     8    28     1    109.500    292.880
   19     1    20     1    107.800    276.144
   17    13    32     1    117.200    313.800
   14    13    17     1     83.000    251.040
    3     2    21     1    110.700    313.800
   14    13    32     1    117.200    313.800
   29    10    30     1    107.800    276.144
    5     4    26     1    110.700    313.800
   33    14    34     1    114.300    292.880
   35    17    36     1    114.300    292.880
   15    17    36     1    110.000    313.800
   15    17    35     1    110.000    313.800
   15    14    33     1    110.000    313.800
   10     9    11     1    108.900    619.232
   10     9    12     1    108.900    619.232
    8     5    13     1    112.700    488.273
    4     3    23     1    110.700    313.800
    3     2    22     1    110.700    313.800
   23     3    24     1    107.800    276.144
   14    15    17     1    116.000    585.760
    6     5    13     1    112.700    488.273
   18     1    19     1    107.800    276.144
    9     8    27     1    109.500    292.880
   29    10    31     1    107.800    276.144
   30    10    31     1    107.800    276.144
    4     3    24     1    110.700    313.800
    5     4    25     1    110.700    313.800
   16    15    17     1    134.000    669.440
    6     5     8     1    112.700    488.273
   18     1    20     1    107.800    276.144
   25     4    26     1    107.800    276.144
   11     9    12     1    119.000    870.272
   13    17    15     1     85.000    527.184
   27     8    28     1    107.800    276.144
   21     2    22     1    107.800    276.144

[ dihedrals ]
; IMPROPER DIHEDRAL ANGLES 
;  ai    aj    ak    al funct            c0            c1            c2            c3            c4            c5
    16    15    17    14    4        180.000     10.460     2  

[ dihedrals ]
; PROPER DIHEDRAL ANGLES
;  ai    aj    ak    al funct            c0            c1            c2            c3            c4            c5
   15   17   13    5        3       0.000   0.000   0.000  -0.000  -0.000   0.000
   15   14   13    5        3       0.000   0.000   0.000  -0.000  -0.000   0.000
    4    3    2    1        3       2.301  -1.464   0.837  -1.674  -0.000   0.000
    5    4    3    2        3       2.301  -1.464   0.837  -1.674  -0.000   0.000
    8    5    4    3        3       2.301  -1.464   0.837  -1.674  -0.000   0.000
    8    5    6    7        3       0.000   0.000   0.000  -0.000  -0.000   0.000
   10    9    8    5        3       0.000   0.000   0.000  -0.000  -0.000   0.000
   13    5    4    3        3       2.301  -1.464   0.837  -1.674  -0.000   0.000
   13    5    8    9        3       2.784   0.278   0.828  -3.891  -0.000   0.000
   13    5    6    7        3       0.000   0.000   0.000  -0.000  -0.000   0.000
   17   13    5    8        3       0.000   0.000   0.000  -0.000  -0.000   0.000
   14   13    5    8        3       0.000   0.000   0.000  -0.000  -0.000   0.000
   17   13    5    4        3       0.000   0.000   0.000  -0.000  -0.000   0.000
   14   13    5    4        3       0.000   0.000   0.000  -0.000  -0.000   0.000
   14   13    5    6        3       0.000   0.000   0.000  -0.000  -0.000   0.000
   17   13    5    6        3       0.000   0.000   0.000  -0.000  -0.000   0.000
    6    5    4    3        3      -2.720   0.000   2.720  -0.000  -0.000   0.000
   28    8    5    4        3       0.628   1.883   0.000  -2.510  -0.000   0.000
   23    3    2    1        3       0.628   1.883   0.000  -2.510  -0.000   0.000
   23    3    4    5        3       0.628   1.883   0.000  -2.510  -0.000   0.000
   20    1    2    3        3       0.628   1.883   0.000  -2.510  -0.000   0.000
   25    4    5    8        3       0.628   1.883   0.000  -2.510  -0.000   0.000
   18    1    2    3        3       0.628   1.883   0.000  -2.510  -0.000   0.000
   24    3    2    1        3       0.628   1.883   0.000  -2.510  -0.000   0.000
   24    3    4    5        3       0.628   1.883   0.000  -2.510  -0.000   0.000
   26    4    5    8        3       0.628   1.883   0.000  -2.510  -0.000   0.000
   21    2    3    4        3       0.628   1.883   0.000  -2.510  -0.000   0.000
   25    4    3    2        3       0.628   1.883   0.000  -2.510  -0.000   0.000
   19    1    2    3        3       0.628   1.883   0.000  -2.510  -0.000   0.000
   26    4    3    2        3       0.628   1.883   0.000  -2.510  -0.000   0.000
   27    8    5    4        3       0.628   1.883   0.000  -2.510  -0.000   0.000
   22    2    3    4        3       0.628   1.883   0.000  -2.510  -0.000   0.000
   27    8    5   13        3       0.628   1.883   0.000  -2.510  -0.000   0.000
   25    4    5   13        3       0.628   1.883   0.000  -2.510  -0.000   0.000
   26    4    5   13        3       0.628   1.883   0.000  -2.510  -0.000   0.000
   28    8    5   13        3       0.628   1.883   0.000  -2.510  -0.000   0.000
   25    4    5    6        3       0.766   2.297   0.000  -3.063  -0.000   0.000
   27    8    5    6        3       0.766   2.297   0.000  -3.063  -0.000   0.000
   28    8    5    6        3       0.766   2.297   0.000  -3.063  -0.000   0.000
   26    4    5    6        3       0.766   2.297   0.000  -3.063  -0.000   0.000
   26    4    3   24        3       0.628   1.883   0.000  -2.510  -0.000   0.000
   25    4    3   23        3       0.628   1.883   0.000  -2.510  -0.000   0.000
   23    3    2   21        3       0.628   1.883   0.000  -2.510  -0.000   0.000
   22    2    1   19        3       0.628   1.883   0.000  -2.510  -0.000   0.000
   21    2    1   20        3       0.628   1.883   0.000  -2.510  -0.000   0.000
   21    2    1   19        3       0.628   1.883   0.000  -2.510  -0.000   0.000
   26    4    3   23        3       0.628   1.883   0.000  -2.510  -0.000   0.000
   21    2    1   18        3       0.628   1.883   0.000  -2.510  -0.000   0.000
   22    2    1   20        3       0.628   1.883   0.000  -2.510  -0.000   0.000
   22    2    1   18        3       0.628   1.883   0.000  -2.510  -0.000   0.000
   25    4    3   24        3       0.628   1.883   0.000  -2.510  -0.000   0.000
   24    3    2   22        3       0.628   1.883   0.000  -2.510  -0.000   0.000
   24    3    2   21        3       0.628   1.883   0.000  -2.510  -0.000   0.000
   23    3    2   22        3       0.628   1.883   0.000  -2.510  -0.000   0.000
   31   10    9    8        3       0.732   2.197   0.000  -2.929  -0.000   0.000
   27    8    9   10        3       0.732   2.197   0.000  -2.929  -0.000   0.000
   28    8    9   10        3       0.732   2.197   0.000  -2.929  -0.000   0.000
   30   10    9    8        3       0.732   2.197   0.000  -2.929  -0.000   0.000
   29   10    9    8        3       0.732   2.197   0.000  -2.929  -0.000   0.000
   27    8    9   11        3       0.732   2.197   0.000  -2.929  -0.000   0.000
   29   10    9   12        3       0.732   2.197   0.000  -2.929  -0.000   0.000
   28    8    9   12        3       0.732   2.197   0.000  -2.929  -0.000   0.000
   28    8    9   11        3       0.732   2.197   0.000  -2.929  -0.000   0.000
   30   10    9   11        3       0.732   2.197   0.000  -2.929  -0.000   0.000
   31   10    9   11        3       0.732   2.197   0.000  -2.929  -0.000   0.000
   30   10    9   12        3       0.732   2.197   0.000  -2.929  -0.000   0.000
   31   10    9   12        3       0.732   2.197   0.000  -2.929  -0.000   0.000
   27    8    9   12        3       0.732   2.197   0.000  -2.929  -0.000   0.000
   29   10    9   11        3       0.732   2.197   0.000  -2.929  -0.000   0.000
   33   14   15   17        3       0.000   0.000   0.000  -0.000  -0.000   0.000
   36   17   15   14        3       0.000   0.000   0.000  -0.000  -0.000   0.000
   35   17   15   14        3       0.000   0.000   0.000  -0.000  -0.000   0.000
   34   14   15   17        3       0.000   0.000   0.000  -0.000  -0.000   0.000
   36   17   15   16        3       0.000   0.000   0.000  -0.000  -0.000   0.000
   33   14   15   16        3       0.000   0.000   0.000  -0.000  -0.000   0.000
   34   14   15   16        3       0.000   0.000   0.000  -0.000  -0.000   0.000
   35   17   15   16        3       0.000   0.000   0.000  -0.000  -0.000   0.000
   32   13    5    8        3       0.628   1.883   0.000  -2.510  -0.000   0.000
   32   13    5    4        3       0.628   1.883   0.000  -2.510  -0.000   0.000
   32   13    5    6        3       0.766   2.297   0.000  -3.063  -0.000   0.000
   32   13   17   15        3       0.000   0.000   0.000  -0.000  -0.000   0.000
   32   13   14   15        3       0.000   0.000   0.000  -0.000  -0.000   0.000
   34   14   13    5        3       0.000   0.000   0.000  -0.000  -0.000   0.000
   33   14   13    5        3       0.000   0.000   0.000  -0.000  -0.000   0.000
   36   17   13    5        3       0.000   0.000   0.000  -0.000  -0.000   0.000
   35   17   13    5        3       0.000   0.000   0.000  -0.000  -0.000   0.000
   35   17   13   14        3       0.000   0.000   0.000  -0.000  -0.000   0.000
   33   14   13   17        3       0.000   0.000   0.000  -0.000  -0.000   0.000
   36   17   13   14        3       0.000   0.000   0.000  -0.000  -0.000   0.000
   34   14   13   17        3       0.000   0.000   0.000  -0.000  -0.000   0.000
   33   14   13   32        3       0.000   0.000   0.000  -0.000  -0.000   0.000
   35   17   13   32        3       0.000   0.000   0.000  -0.000  -0.000   0.000
   34   14   13   32        3       0.000   0.000   0.000  -0.000  -0.000   0.000
   36   17   13   32        3       0.000   0.000   0.000  -0.000  -0.000   0.000
    7    6    5    4        3       0.000   0.000   0.000  -0.000  -0.000   0.000
   16   15   17   13        3       0.000   0.000   0.000  -0.000  -0.000   0.000
   16   15   14   13        3       0.000   0.000   0.000  -0.000  -0.000   0.000
   12    9    8    5        3       0.000   0.000   0.000  -0.000  -0.000   0.000
   11    9    8    5        3       0.000   0.000   0.000  -0.000  -0.000   0.000
    9    8    5    4        3       2.784   0.278   0.828  -3.891  -0.000   0.000
    9    8    5    6        3       2.784   0.278   0.828  -3.891  -0.000   0.000

[ pairs ]
     1     4    1
     2     5    1
     3     6    1
     4     7    1
     3     8    1
     4     9    1
     7     8    1
     6     9    1
     5    10    1
     5    11    1
     3    13    1
     5    12    1
     4    14    1
     7    13    1
     6    14    1
     5    15    1
     4    17    1
     3    18    1
     9    13    1
     8    14    1
     3    19    1
     6    17    1
     3    20    1
     1    23    1
     8    17    1
     4    21    1
     1    24    1
     4    22    1
     2    25    1
     5    23    1
     2    26    1
    13    16    1
     5    24    1
     6    25    1
     4    27    1
     6    26    1
     4    28    1
     8    25    1
     6    27    1
     8    26    1
     6    28    1
     4    32    1
    10    27    1
     8    29    1
    13    25    1
    11    27    1
    10    28    1
     8    30    1
     6    32    1
     5    33    1
    18    21    1
    13    26    1
    12    27    1
    11    28    1
     8    31    1
     5    34    1
    19    21    1
    18    22    1
    13    27    1
    12    28    1
    11    29    1
     8    32    1
     5    35    1
    20    21    1
    19    22    1
    13    28    1
    12    29    1
    11    30    1
     5    36    1
    20    22    1
    12    30    1
    11    31    1
    12    31    1
    21    23    1
    22    23    1
    21    24    1
    22    24    1
    15    32    1
    23    25    1
    24    25    1
    23    26    1
    16    33    1
    14    35    1
    24    26    1
    17    33    1
    16    34    1
    14    36    1
    17    34    1
    16    35    1
    16    36    1
    32    33    1
    32    34    1
    32    35    1
    32    36    1

