LIGPARGEN GENERATED GRO FILE
   36
    1UNK    C00    1   0.100   0.100   0.000
    1UNK    C01    2  -0.052   0.100   0.000
    1UNK    C02    3  -0.104   0.100   0.144
    1UNK    C03    4  -0.257   0.094   0.154
    1UNK    C04    5  -0.309   0.084   0.300
    1UNK    C05    6  -0.252  -0.042   0.363
    1UNK    N06    7  -0.205  -0.147   0.415
    1UNK    C07    8  -0.258   0.198   0.394
    1UNK    S08    9  -0.304   0.364   0.352
    1UNK    C09   10  -0.222   0.462   0.476
    1UNK    O0A   11  -0.245   0.397   0.225
    1UNK    O0B   12  -0.447   0.377   0.375
    1UNK    C0C   13  -0.463   0.078   0.300
    1UNK    C0D   14  -0.536  -0.044   0.233
    1UNK    C0E   15  -0.640  -0.031   0.346
    1UNK    O0F   16  -0.756  -0.065   0.359
    1UNK    C0G   17  -0.540   0.047   0.434
    1UNK    H0H   18   0.139   0.105  -0.102
    1UNK    H0I   19   0.139   0.009   0.047
    1UNK    H0J   20   0.139   0.186   0.055
    1UNK    H0K   21  -0.089   0.012  -0.054
    1UNK    H0M   22  -0.089   0.189  -0.053
    1UNK    H0N   23  -0.067   0.190   0.193
    1UNK    H0O   24  -0.059   0.014   0.196
    1UNK    H0P   25  -0.292   0.006   0.098
    1UNK    H0Q   26  -0.301   0.180   0.104
    1UNK    H0R   27  -0.148   0.197   0.400
    1UNK    H0S   28  -0.294   0.182   0.497
    1UNK    H0T   29  -0.114   0.443   0.471
    1UNK    H0U   30  -0.261   0.435   0.575
    1UNK    H0V   31  -0.242   0.567   0.455
    1UNK    H0W   32  -0.502   0.170   0.254
    1UNK    H0X   33  -0.483  -0.139   0.235
    1UNK    H0Y   34  -0.574  -0.024   0.132
    1UNK    H0Z   35  -0.488  -0.018   0.505
    1UNK    H10   36  -0.581   0.134   0.485
   1.00000   1.00000   1.00000

