LIGPARGEN GENERATED GRO FILE
   33
    1UNK    C00    1   0.100   0.100   0.000
    1UNK    C01    2  -0.052   0.100   0.000
    1UNK    O02    3  -0.095   0.100   0.137
    1UNK    C03    4  -0.106  -0.022   0.196
    1UNK    O04    5  -0.116  -0.128   0.134
    1UNK    C05    6  -0.102  -0.013   0.348
    1UNK    C06    7  -0.035   0.111   0.393
    1UNK    N07    8   0.017   0.208   0.429
    1UNK    C08    9  -0.248  -0.013   0.403
    1UNK    C09   10  -0.336   0.102   0.356
    1UNK    C0A   11  -0.028  -0.138   0.406
    1UNK    C0B   12   0.116  -0.169   0.358
    1UNK    C0C   13   0.219  -0.060   0.391
    1UNK    C0D   14   0.162  -0.301   0.421
    1UNK    H0E   15   0.140   0.100  -0.102
    1UNK    H0F   16   0.139   0.012   0.053
    1UNK    H0G   17   0.138   0.188   0.053
    1UNK    H0H   18  -0.092   0.015  -0.056
    1UNK    H0I   19  -0.090   0.192  -0.047
    1UNK    H0J   20  -0.244  -0.009   0.513
    1UNK    H0K   21  -0.298  -0.107   0.376
    1UNK    H0M   22  -0.290   0.200   0.374
    1UNK    H0N   23  -0.431   0.101   0.410
    1UNK    H0O   24  -0.358   0.094   0.249
    1UNK    H0P   25  -0.089  -0.226   0.382
    1UNK    H0Q   26  -0.027  -0.131   0.515
    1UNK    H0R   27   0.116  -0.183   0.249
    1UNK    H0S   28   0.207  -0.024   0.493
    1UNK    H0T   29   0.210   0.024   0.322
    1UNK    H0U   30   0.321  -0.098   0.381
    1UNK    H0V   31   0.165  -0.293   0.531
    1UNK    H0W   32   0.263  -0.328   0.387
    1UNK    H0X   33   0.095  -0.383   0.395
   1.00000   1.00000   1.00000

