LIGPARGEN GENERATED GRO FILE
   32
    1UNK    C00    1   0.100   0.100   0.000
    1UNK    C01    2  -0.052   0.100   0.000
    1UNK    C02    3  -0.105   0.100   0.143
    1UNK    C03    4  -0.258   0.100   0.150
    1UNK    C04    5  -0.305   0.091   0.295
    1UNK    O05    6  -0.225   0.070   0.387
    1UNK    C06    7  -0.456   0.094   0.319
    1UNK    C07    8  -0.507  -0.050   0.319
    1UNK    C08    9  -0.494   0.172   0.446
    1UNK    C09   10  -0.439   0.115   0.577
    1UNK    O0A   11  -0.455   0.309   0.425
    1UNK    C0B   12  -0.489   0.397   0.532
    1UNK    H0C   13   0.138   0.100  -0.102
    1UNK    H0D   14   0.139   0.011   0.051
    1UNK    H0E   15   0.139   0.189   0.051
    1UNK    H0F   16  -0.088   0.011  -0.053
    1UNK    H0G   17  -0.089   0.188  -0.054
    1UNK    H0H   18  -0.067   0.188   0.196
    1UNK    H0I   19  -0.066   0.012   0.195
    1UNK    H0J   20  -0.298   0.014   0.096
    1UNK    H0K   21  -0.298   0.192   0.106
    1UNK    H0M   22  -0.500   0.147   0.234
    1UNK    H0N   23  -0.454  -0.112   0.393
    1UNK    H0O   24  -0.490  -0.097   0.222
    1UNK    H0P   25  -0.614  -0.054   0.341
    1UNK    H0Q   26  -0.604   0.171   0.453
    1UNK    H0R   27  -0.333   0.137   0.590
    1UNK    H0S   28  -0.455   0.007   0.585
    1UNK    H0T   29  -0.490   0.161   0.663
    1UNK    H0U   30  -0.472   0.500   0.498
    1UNK    H0V   31  -0.425   0.379   0.618
    1UNK    H0W   32  -0.594   0.386   0.560
   1.00000   1.00000   1.00000

