
;
; GENERATED BY LigParGen Server
; Jorgensen Lab @ Yale University 
;
[ atomtypes ]
  opls_818  H818     1.0080     0.000    A    2.50000E-01   1.25520E-01
  opls_814  C814    12.0110     0.000    A    3.50000E-01   2.76144E-01
  opls_811  C811    12.0110     0.000    A    3.30000E-01   2.76144E-01
  opls_824  H824     1.0080     0.000    A    2.50000E-01   1.25520E-01
  opls_805  C805    12.0110     0.000    A    3.50000E-01   2.76144E-01
  opls_836  H836     1.0080     0.000    A    2.50000E-01   1.25520E-01
  opls_834  H834     1.0080     0.000    A    2.50000E-01   1.25520E-01
  opls_810  C810    12.0110     0.000    A    3.50000E-01   2.76144E-01
  opls_828  H828     1.0080     0.000    A    2.50000E-01   1.25520E-01
  opls_802  C802    12.0110     0.000    A    3.50000E-01   2.76144E-01
  opls_827  H827     1.0080     0.000    A    2.50000E-01   1.25520E-01
  opls_801  C801    12.0110     0.000    A    3.50000E-01   2.76144E-01
  opls_806  C806    12.0110     0.000    A    3.50000E-01   2.76144E-01
  opls_822  H822     1.0080     0.000    A    2.50000E-01   1.25520E-01
  opls_803  C803    12.0110     0.000    A    3.50000E-01   2.76144E-01
  opls_825  H825     1.0080     0.000    A    2.50000E-01   1.25520E-01
  opls_830  H830     1.0080     0.000    A    2.50000E-01   1.25520E-01
  opls_809  O809    15.9990     0.000    A    2.96000E-01   8.78640E-01
  opls_804  C804    12.0110     0.000    A    3.50000E-01   2.76144E-01
  opls_820  H820     1.0080     0.000    A    2.50000E-01   1.25520E-01
  opls_837  H837     1.0080     0.000    A    2.50000E-01   1.25520E-01
  opls_821  H821     1.0080     0.000    A    2.50000E-01   1.25520E-01
  opls_831  H831     1.0080     0.000    A    2.50000E-01   1.25520E-01
  opls_812  N812    14.0070     0.000    A    3.20000E-01   7.11280E-01
  opls_832  H832     1.0080     0.000    A    2.50000E-01   1.25520E-01
  opls_800  C800    12.0110     0.000    A    3.50000E-01   2.76144E-01
  opls_815  C815    12.0110     0.000    A    3.50000E-01   2.76144E-01
  opls_823  H823     1.0080     0.000    A    2.50000E-01   1.25520E-01
  opls_813  C813    12.0110     0.000    A    3.50000E-01   2.76144E-01
  opls_826  H826     1.0080     0.000    A    2.50000E-01   1.25520E-01
  opls_835  H835     1.0080     0.000    A    2.50000E-01   1.25520E-01
  opls_819  H819     1.0080     0.000    A    2.50000E-01   1.25520E-01
  opls_816  C816    12.0110     0.000    A    3.50000E-01   2.76144E-01
  opls_833  H833     1.0080     0.000    A    2.50000E-01   1.25520E-01
  opls_807  O807    15.9990     0.000    A    2.90000E-01   5.85760E-01
  opls_817  H817     1.0080     0.000    A    2.50000E-01   1.25520E-01
  opls_829  H829     1.0080     0.000    A    2.50000E-01   1.25520E-01
  opls_808  C808    12.0110     0.000    A    3.55000E-01   2.92880E-01
[ moleculetype ]
; Name               nrexcl
UNK                   3
[ atoms ]
;   nr       type  resnr residue  atom   cgnr     charge       mass  
     1   opls_800      1    UNK   C00      1    -0.2421    12.0110 
     2   opls_801      1    UNK   C01      1    -0.1739    12.0110 
     3   opls_802      1    UNK   C02      1    -0.0407    12.0110 
     4   opls_803      1    UNK   C03      1    -0.1515    12.0110 
     5   opls_804      1    UNK   C04      1    -0.0657    12.0110 
     6   opls_805      1    UNK   C05      1    -0.2447    12.0110 
     7   opls_806      1    UNK   C06      1     0.0024    12.0110 
     8   opls_807      1    UNK   O07      1    -0.3283    15.9990 
     9   opls_808      1    UNK   C08      1     0.4541    12.0110 
    10   opls_809      1    UNK   O09      1    -0.3761    15.9990 
    11   opls_810      1    UNK   C0A      1    -0.0692    12.0110 
    12   opls_811      1    UNK   C0B      1     0.1793    12.0110 
    13   opls_812      1    UNK   N0C      1    -0.3532    14.0070 
    14   opls_813      1    UNK   C0D      1    -0.1781    12.0110 
    15   opls_814      1    UNK   C0E      1    -0.1867    12.0110 
    16   opls_815      1    UNK   C0F      1    -0.1877    12.0110 
    17   opls_816      1    UNK   C0G      1    -0.1798    12.0110 
    18   opls_817      1    UNK   H0H      1     0.0844     1.0080 
    19   opls_818      1    UNK   H0I      1     0.0844     1.0080 
    20   opls_819      1    UNK   H0J      1     0.0844     1.0080 
    21   opls_820      1    UNK   H0K      1     0.0914     1.0080 
    22   opls_821      1    UNK   H0M      1     0.0914     1.0080 
    23   opls_822      1    UNK   H0N      1     0.0992     1.0080 
    24   opls_823      1    UNK   H0O      1     0.0992     1.0080 
    25   opls_824      1    UNK   H0P      1        0.1     1.0080 
    26   opls_825      1    UNK   H0Q      1        0.1     1.0080 
    27   opls_826      1    UNK   H0R      1        0.1     1.0080 
    28   opls_827      1    UNK   H0S      1      0.125     1.0080 
    29   opls_828      1    UNK   H0T      1      0.125     1.0080 
    30   opls_829      1    UNK   H0U      1     0.1899     1.0080 
    31   opls_830      1    UNK   H0V      1     0.0957     1.0080 
    32   opls_831      1    UNK   H0W      1     0.0957     1.0080 
    33   opls_832      1    UNK   H0X      2     0.0961     1.0080 
    34   opls_833      1    UNK   H0Y      2     0.0961     1.0080 
    35   opls_834      1    UNK   H0Z      2     0.0949     1.0080 
    36   opls_835      1    UNK   H10      2     0.0949     1.0080 
    37   opls_836      1    UNK   H11      2      0.097     1.0080 
    38   opls_837      1    UNK   H12      2      0.097     1.0080 
[ bonds ]
    2     1     1      0.1529 224262.400
    3     2     1      0.1529 224262.400
    4     3     1      0.1529 224262.400
    5     4     1      0.1529 224262.400
    6     5     1      0.1529 224262.400
    7     5     1      0.1529 224262.400
    8     7     1      0.1410 267776.000
    9     8     1      0.1327 179075.200
   10     9     1      0.1229 476976.000
   11     5     1      0.1529 224262.400
   12    11     1      0.1470 326352.000
   13    12     1      0.1157 543920.000
   14     3     1      0.1529 224262.400
   15    14     1      0.1529 224262.400
   16    15     1      0.1529 224262.400
   17     3     1      0.1529 224262.400
   18     1     1      0.1090 284512.000
   19     1     1      0.1090 284512.000
   20     1     1      0.1090 284512.000
   21     2     1      0.1090 284512.000
   22     2     1      0.1090 284512.000
   23     4     1      0.1090 284512.000
   24     4     1      0.1090 284512.000
   25     6     1      0.1090 284512.000
   26     6     1      0.1090 284512.000
   27     6     1      0.1090 284512.000
   28     7     1      0.1090 284512.000
   29     7     1      0.1090 284512.000
   30    11     1      0.1090 284512.000
   31    14     1      0.1090 284512.000
   32    14     1      0.1090 284512.000
   33    15     1      0.1090 284512.000
   34    15     1      0.1090 284512.000
   35    16     1      0.1090 284512.000
   36    16     1      0.1090 284512.000
   37    17     1      0.1090 284512.000
   38    17     1      0.1090 284512.000
   11     9     1      0.1522 265265.600
   17    16     1      0.1529 224262.400

[ angles ]
;  ai    aj    ak funct            c0            c1            c2            c3 
    1     2     3     1    112.700    488.273
    2     3     4     1    112.700    488.273
    3     4     5     1    112.700    488.273
    4     5     6     1    112.700    488.273
    4     5     7     1    112.700    488.273
    5     7     8     1    109.500    418.400
    7     8     9     1    116.900    694.544
    8     9    10     1    123.400    694.544
    4     5    11     1    112.700    488.273
    5    11    12     1    112.700    488.273
   11    12    13     1    180.000   1255.200
    2     3    14     1    112.700    488.273
    3    14    15     1    112.700    488.273
   14    15    16     1    112.700    488.273
    2     3    17     1    112.700    488.273
    2     1    18     1    110.700    313.800
    2     1    19     1    110.700    313.800
    2     1    20     1    110.700    313.800
    1     2    21     1    110.700    313.800
    1     2    22     1    110.700    313.800
    3     4    23     1    110.700    313.800
    3     4    24     1    110.700    313.800
    5     6    25     1    110.700    313.800
    5     6    26     1    110.700    313.800
    5     6    27     1    110.700    313.800
    5     7    28     1    110.700    313.800
    5     7    29     1    110.700    313.800
    5    11    30     1    110.700    313.800
    3    14    31     1    110.700    313.800
    3    14    32     1    110.700    313.800
   14    15    33     1    110.700    313.800
   14    15    34     1    110.700    313.800
   15    16    35     1    110.700    313.800
   15    16    36     1    110.700    313.800
    3    17    37     1    110.700    313.800
    3    17    38     1    110.700    313.800
    3    17    16     1    112.700    488.273
   17    16    36     1    110.700    313.800
    3     2    21     1    110.700    313.800
    5    11     9     1    111.100    527.184
    5     4    24     1    110.700    313.800
    9    11    12     1    110.580    432.207
    7     5    11     1    112.700    488.273
   16    17    38     1    110.700    313.800
   10     9    11     1    120.400    669.440
    6     5    11     1    112.700    488.273
   33    15    34     1    107.800    276.144
    8     9    11     1    111.400    677.808
    3     2    22     1    110.700    313.800
   12    11    30     1    108.500    292.880
    5     4    23     1    110.700    313.800
   31    14    32     1    107.800    276.144
   26     6    27     1    107.800    276.144
   35    16    36     1    107.800    276.144
    8     7    29     1    109.500    292.880
   18     1    19     1    107.800    276.144
    8     7    28     1    109.500    292.880
   37    17    38     1    107.800    276.144
   28     7    29     1    107.800    276.144
    9    11    30     1    109.500    292.880
    6     5     7     1    112.700    488.273
   17    16    35     1    110.700    313.800
    4     3    14     1    112.700    488.273
   16    17    37     1    110.700    313.800
   23     4    24     1    107.800    276.144
   18     1    20     1    107.800    276.144
   25     6    26     1    107.800    276.144
   14     3    17     1    112.700    488.273
   16    15    34     1    110.700    313.800
   21     2    22     1    107.800    276.144
   15    16    17     1    112.700    488.273
   15    14    31     1    110.700    313.800
    4     3    17     1    112.700    488.273
   19     1    20     1    107.800    276.144
   16    15    33     1    110.700    313.800
   15    14    32     1    110.700    313.800
   25     6    27     1    107.800    276.144

[ dihedrals ]
; IMPROPER DIHEDRAL ANGLES 
;  ai    aj    ak    al funct            c0            c1            c2            c3            c4            c5
     8     9    10    11    4        180.000     43.932     2  

[ dihedrals ]
; PROPER DIHEDRAL ANGLES
;  ai    aj    ak    al funct            c0            c1            c2            c3            c4            c5
    9   11    5    6        3      -4.960   6.286   1.310  -2.636  -0.000   0.000
    9   11    5    7        3      -4.960   6.286   1.310  -2.636  -0.000   0.000
    9   11    5    4        3      -4.960   6.286   1.310  -2.636  -0.000   0.000
    9    8    7    5        3      -2.197   5.201   0.527  -3.531  -0.000   0.000
   11    9    8    7        3      31.206  -9.768  -21.439  -0.000  -0.000   0.000
    4    3    2    1        3       2.301  -1.464   0.837  -1.674  -0.000   0.000
   17    3   14   15        3       2.301  -1.464   0.837  -1.674  -0.000   0.000
   14    3    2    1        3       2.301  -1.464   0.837  -1.674  -0.000   0.000
    7    5    4    3        3       2.301  -1.464   0.837  -1.674  -0.000   0.000
   14    3    4    5        3       2.301  -1.464   0.837  -1.674  -0.000   0.000
   15   16   17    3        3       2.301  -1.464   0.837  -1.674  -0.000   0.000
   16   17    3   14        3       2.301  -1.464   0.837  -1.674  -0.000   0.000
   16   17    3    4        3       2.301  -1.464   0.837  -1.674  -0.000   0.000
   17    3    2    1        3       2.301  -1.464   0.837  -1.674  -0.000   0.000
   16   17    3    2        3       2.301  -1.464   0.837  -1.674  -0.000   0.000
   16   15   14    3        3       2.301  -1.464   0.837  -1.674  -0.000   0.000
   15   14    3    2        3       2.301  -1.464   0.837  -1.674  -0.000   0.000
   15   14    3    4        3       2.301  -1.464   0.837  -1.674  -0.000   0.000
   11    5    4    3        3       2.301  -1.464   0.837  -1.674  -0.000   0.000
   17   16   15   14        3       2.301  -1.464   0.837  -1.674  -0.000   0.000
    6    5    4    3        3       2.301  -1.464   0.837  -1.674  -0.000   0.000
    5    4    3    2        3       2.301  -1.464   0.837  -1.674  -0.000   0.000
   17    3    4    5        3       2.301  -1.464   0.837  -1.674  -0.000   0.000
   11    5    7    8        3       2.874   0.582   2.092  -5.548  -0.000   0.000
   12   11    9   10        3       0.000   0.000   0.000  -0.000  -0.000   0.000
   12   11    9    8        3      -1.157  -3.471   0.000   4.628  -0.000   0.000
   12   11    5    4        3      -2.720   0.000   2.720  -0.000  -0.000   0.000
   12   11    5    6        3      -2.720   0.000   2.720  -0.000  -0.000   0.000
   12   11    5    7        3      -2.720   0.000   2.720  -0.000  -0.000   0.000
   30   11    9   10        3       0.000   0.000   0.000  -0.000  -0.000   0.000
   30   11    9    8        3       0.276   0.828   0.000  -1.105  -0.000   0.000
   23    4    3    2        3       0.628   1.883   0.000  -2.510  -0.000   0.000
   24    4    5   11        3       0.628   1.883   0.000  -2.510  -0.000   0.000
   27    6    5    4        3       0.628   1.883   0.000  -2.510  -0.000   0.000
   27    6    5    7        3       0.628   1.883   0.000  -2.510  -0.000   0.000
   37   17   16   15        3       0.628   1.883   0.000  -2.510  -0.000   0.000
   30   11    5    7        3       0.628   1.883   0.000  -2.510  -0.000   0.000
   31   14    3    4        3       0.628   1.883   0.000  -2.510  -0.000   0.000
   21    2    3   17        3       0.628   1.883   0.000  -2.510  -0.000   0.000
   38   17    3    2        3       0.628   1.883   0.000  -2.510  -0.000   0.000
   32   14    3    2        3       0.628   1.883   0.000  -2.510  -0.000   0.000
   29    7    5   11        3       0.628   1.883   0.000  -2.510  -0.000   0.000
   38   17   16   15        3       0.628   1.883   0.000  -2.510  -0.000   0.000
   26    6    5    7        3       0.628   1.883   0.000  -2.510  -0.000   0.000
   23    4    5   11        3       0.628   1.883   0.000  -2.510  -0.000   0.000
   30   11    5    6        3       0.628   1.883   0.000  -2.510  -0.000   0.000
   28    7    5    6        3       0.628   1.883   0.000  -2.510  -0.000   0.000
   29    7    5    4        3       0.628   1.883   0.000  -2.510  -0.000   0.000
   38   17    3    4        3       0.628   1.883   0.000  -2.510  -0.000   0.000
   22    2    3    4        3       0.628   1.883   0.000  -2.510  -0.000   0.000
   37   17    3   14        3       0.628   1.883   0.000  -2.510  -0.000   0.000
   22    2    3   14        3       0.628   1.883   0.000  -2.510  -0.000   0.000
   20    1    2    3        3       0.628   1.883   0.000  -2.510  -0.000   0.000
   24    4    3   17        3       0.628   1.883   0.000  -2.510  -0.000   0.000
   33   15   14    3        3       0.628   1.883   0.000  -2.510  -0.000   0.000
   21    2    3    4        3       0.628   1.883   0.000  -2.510  -0.000   0.000
   30   11    5    4        3       0.628   1.883   0.000  -2.510  -0.000   0.000
   24    4    5    6        3       0.628   1.883   0.000  -2.510  -0.000   0.000
   23    4    5    7        3       0.628   1.883   0.000  -2.510  -0.000   0.000
   26    6    5   11        3       0.628   1.883   0.000  -2.510  -0.000   0.000
   23    4    3   17        3       0.628   1.883   0.000  -2.510  -0.000   0.000
   25    6    5   11        3       0.628   1.883   0.000  -2.510  -0.000   0.000
   24    4    3    2        3       0.628   1.883   0.000  -2.510  -0.000   0.000
   34   15   16   17        3       0.628   1.883   0.000  -2.510  -0.000   0.000
   23    4    3   14        3       0.628   1.883   0.000  -2.510  -0.000   0.000
   34   15   14    3        3       0.628   1.883   0.000  -2.510  -0.000   0.000
   31   14    3   17        3       0.628   1.883   0.000  -2.510  -0.000   0.000
   35   16   15   14        3       0.628   1.883   0.000  -2.510  -0.000   0.000
   33   15   16   17        3       0.628   1.883   0.000  -2.510  -0.000   0.000
   31   14   15   16        3       0.628   1.883   0.000  -2.510  -0.000   0.000
   25    6    5    7        3       0.628   1.883   0.000  -2.510  -0.000   0.000
   24    4    3   14        3       0.628   1.883   0.000  -2.510  -0.000   0.000
   19    1    2    3        3       0.628   1.883   0.000  -2.510  -0.000   0.000
   36   16   15   14        3       0.628   1.883   0.000  -2.510  -0.000   0.000
   32   14    3    4        3       0.628   1.883   0.000  -2.510  -0.000   0.000
   32   14   15   16        3       0.628   1.883   0.000  -2.510  -0.000   0.000
   31   14    3    2        3       0.628   1.883   0.000  -2.510  -0.000   0.000
   37   17    3    2        3       0.628   1.883   0.000  -2.510  -0.000   0.000
   35   16   17    3        3       0.628   1.883   0.000  -2.510  -0.000   0.000
   25    6    5    4        3       0.628   1.883   0.000  -2.510  -0.000   0.000
   22    2    3   17        3       0.628   1.883   0.000  -2.510  -0.000   0.000
   32   14    3   17        3       0.628   1.883   0.000  -2.510  -0.000   0.000
   38   17    3   14        3       0.628   1.883   0.000  -2.510  -0.000   0.000
   18    1    2    3        3       0.628   1.883   0.000  -2.510  -0.000   0.000
   36   16   17    3        3       0.628   1.883   0.000  -2.510  -0.000   0.000
   21    2    3   14        3       0.628   1.883   0.000  -2.510  -0.000   0.000
   24    4    5    7        3       0.628   1.883   0.000  -2.510  -0.000   0.000
   37   17    3    4        3       0.628   1.883   0.000  -2.510  -0.000   0.000
   28    7    5   11        3       0.628   1.883   0.000  -2.510  -0.000   0.000
   28    7    5    4        3       0.628   1.883   0.000  -2.510  -0.000   0.000
   26    6    5    4        3       0.628   1.883   0.000  -2.510  -0.000   0.000
   23    4    5    6        3       0.628   1.883   0.000  -2.510  -0.000   0.000
   27    6    5   11        3       0.628   1.883   0.000  -2.510  -0.000   0.000
   29    7    5    6        3       0.628   1.883   0.000  -2.510  -0.000   0.000
   21    2    1   19        3       0.628   1.883   0.000  -2.510  -0.000   0.000
   22    2    1   20        3       0.628   1.883   0.000  -2.510  -0.000   0.000
   37   17   16   36        3       0.628   1.883   0.000  -2.510  -0.000   0.000
   38   17   16   35        3       0.628   1.883   0.000  -2.510  -0.000   0.000
   21    2    1   18        3       0.628   1.883   0.000  -2.510  -0.000   0.000
   33   15   14   31        3       0.628   1.883   0.000  -2.510  -0.000   0.000
   35   16   15   34        3       0.628   1.883   0.000  -2.510  -0.000   0.000
   21    2    1   20        3       0.628   1.883   0.000  -2.510  -0.000   0.000
   22    2    1   19        3       0.628   1.883   0.000  -2.510  -0.000   0.000
   35   16   15   33        3       0.628   1.883   0.000  -2.510  -0.000   0.000
   38   17   16   36        3       0.628   1.883   0.000  -2.510  -0.000   0.000
   36   16   15   34        3       0.628   1.883   0.000  -2.510  -0.000   0.000
   22    2    1   18        3       0.628   1.883   0.000  -2.510  -0.000   0.000
   34   15   14   31        3       0.628   1.883   0.000  -2.510  -0.000   0.000
   33   15   14   32        3       0.628   1.883   0.000  -2.510  -0.000   0.000
   34   15   14   32        3       0.628   1.883   0.000  -2.510  -0.000   0.000
   37   17   16   35        3       0.628   1.883   0.000  -2.510  -0.000   0.000
   36   16   15   33        3       0.628   1.883   0.000  -2.510  -0.000   0.000
   30   11   12   13        3       0.000   0.000   0.000  -0.000  -0.000   0.000
   28    7    8    9        3       0.414   1.243   0.000  -1.657  -0.000   0.000
   29    7    8    9        3       0.414   1.243   0.000  -1.657  -0.000   0.000
   13   12   11    9        3       0.000   0.000   0.000  -0.000  -0.000   0.000
   13   12   11    5        3       0.000   0.000   0.000  -0.000  -0.000   0.000
   10    9   11    5        3       0.000   0.000   0.000  -0.000  -0.000   0.000
   10    9    8    7        3      21.439   0.000  -21.439  -0.000  -0.000   0.000
    8    9   11    5        3      -1.157  -3.471   0.000   4.628  -0.000   0.000
    8    7    5    4        3       2.874   0.582   2.092  -5.548  -0.000   0.000
    8    7    5    6        3       2.874   0.582   2.092  -5.548  -0.000   0.000

[ pairs ]
     1     4    1
     2     5    1
     3     6    1
     3     7    1
     4     8    1
     4     9    1
     6     8    1
     3    11    1
     6     9    1
     5    10    1
     1    14    1
     4    12    1
     7    10    1
     2    15    1
     6    12    1
     5    13    1
     2    16    1
     1    17    1
     7    12    1
     5    14    1
     4    15    1
     8    12    1
     4    16    1
     3    18    1
    10    12    1
     9    13    1
     5    17    1
     3    19    1
     3    20    1
     4    21    1
     2    23    1
     4    22    1
     2    24    1
     6    23    1
     4    25    1
     7    23    1
     6    24    1
     4    26    1
     7    24    1
     4    27    1
     7    25    1
     4    28    1
     7    26    1
     4    29    1
     2    31    1
    11    23    1
     7    27    1
     6    28    1
     4    30    1
     2    32    1
    14    21    1
    11    24    1
     6    29    1
     4    31    1
    14    22    1
    11    25    1
     6    30    1
     4    32    1
     3    33    1
    14    23    1
    11    26    1
     9    28    1
     7    30    1
     3    34    1
    17    21    1
    14    24    1
    11    27    1
     9    29    1
     8    30    1
     3    35    1
    18    21    1
    17    22    1
    11    28    1
     3    36    1
     2    37    1
    19    21    1
    18    22    1
    17    23    1
    11    29    1
    10    30    1
     2    38    1
    20    21    1
    19    22    1
    17    24    1
     4    37    1
    20    22    1
     4    38    1
    13    30    1
    16    31    1
    17    31    1
    16    32    1
    17    32    1
    14    35    1
    17    33    1
    14    36    1
    17    34    1
    14    37    1
    15    37    1
    14    38    1
    15    38    1
    31    33    1
    32    33    1
    31    34    1
    32    34    1
    33    35    1
    34    35    1
    33    36    1
    34    36    1
    35    37    1
    36    37    1
    35    38    1
    36    38    1

