LIGPARGEN GENERATED GRO FILE
   38
    1UNK    C00    1   0.100   0.100   0.000
    1UNK    C01    2  -0.053   0.100   0.000
    1UNK    C02    3  -0.121   0.100   0.142
    1UNK    C03    4  -0.075   0.232   0.215
    1UNK    C04    5  -0.118   0.284   0.357
    1UNK    C05    6  -0.041   0.419   0.377
    1UNK    C06    7  -0.265   0.320   0.371
    1UNK    O07    8  -0.310   0.270   0.497
    1UNK    C08    9  -0.215   0.193   0.556
    1UNK    O09   10  -0.232   0.134   0.661
    1UNK    C0A   11  -0.091   0.186   0.472
    1UNK    C0B   12   0.029   0.210   0.552
    1UNK    N0C   13   0.126   0.230   0.611
    1UNK    C0D   14  -0.273   0.088   0.119
    1UNK    C0E   15  -0.327   0.008   0.236
    1UNK    C0F   16  -0.215  -0.085   0.278
    1UNK    C0G   17  -0.087  -0.033   0.212
    1UNK    H0H   18   0.137   0.079  -0.101
    1UNK    H0I   19   0.141   0.024   0.067
    1UNK    H0J   20   0.140   0.197   0.030
    1UNK    H0K   21  -0.085   0.011  -0.056
    1UNK    H0M   22  -0.088   0.186  -0.058
    1UNK    H0N   23  -0.097   0.314   0.145
    1UNK    H0O   24   0.035   0.226   0.221
    1UNK    H0P   25  -0.070   0.492   0.301
    1UNK    H0Q   26   0.068   0.406   0.369
    1UNK    H0R   27  -0.063   0.463   0.475
    1UNK    H0S   28  -0.329   0.280   0.293
    1UNK    H0T   29  -0.284   0.428   0.371
    1UNK    H0U   30  -0.087   0.084   0.435
    1UNK    H0V   31  -0.294   0.031   0.028
    1UNK    H0W   32  -0.323   0.184   0.106
    1UNK    H0X   33  -0.417  -0.048   0.208
    1UNK    H0Y   34  -0.355   0.071   0.320
    1UNK    H0Z   35  -0.235  -0.188   0.244
    1UNK    H10   36  -0.206  -0.090   0.387
    1UNK    H11   37  -0.056  -0.109   0.138
    1UNK    H12   38  -0.003  -0.025   0.281
   1.00000   1.00000   1.00000

