LIGPARGEN GENERATED GRO FILE
   39
    1UNK    C00    1   0.100   0.100   0.000
    1UNK    C01    2  -0.052   0.100   0.000
    1UNK    C02    3  -0.118   0.100   0.141
    1UNK    C03    4  -0.072   0.224   0.219
    1UNK    C04    5  -0.276   0.088   0.128
    1UNK    C05    6  -0.310  -0.042   0.055
    1UNK    C06    7  -0.346   0.112   0.262
    1UNK    C07    8  -0.494   0.108   0.288
    1UNK    C08    9  -0.596   0.035   0.207
    1UNK    C09   10  -0.569  -0.111   0.234
    1UNK    O0A   11  -0.633  -0.203   0.184
    1UNK    C0B   12  -0.454  -0.130   0.329
    1UNK    C0C   13  -0.404   0.009   0.361
    1UNK    C0D   14  -0.367   0.030   0.504
    1UNK    O0E   15  -0.447   0.067   0.588
    1UNK    O0F   16  -0.236  -0.003   0.524
    1UNK    C0G   17  -0.194   0.003   0.661
    1UNK    H0H   18   0.137   0.087  -0.102
    1UNK    H0I   19   0.139   0.018   0.060
    1UNK    H0J   20   0.141   0.194   0.037
    1UNK    H0K   21  -0.081   0.010  -0.055
    1UNK    H0M   22  -0.088   0.186  -0.057
    1UNK    H0N   23  -0.082   0.012   0.196
    1UNK    H0O   24  -0.113   0.316   0.175
    1UNK    H0P   25   0.036   0.233   0.221
    1UNK    H0Q   26  -0.102   0.219   0.324
    1UNK    H0R   27  -0.309   0.170   0.064
    1UNK    H0S   28  -0.260  -0.128   0.101
    1UNK    H0T   29  -0.277  -0.038  -0.050
    1UNK    H0U   30  -0.416  -0.063   0.048
    1UNK    H0V   31  -0.304   0.202   0.305
    1UNK    H0W   32  -0.538   0.191   0.344
    1UNK    H0X   33  -0.586   0.058   0.100
    1UNK    H0Y   34  -0.698   0.059   0.240
    1UNK    H0Z   35  -0.375  -0.191   0.286
    1UNK    H10   36  -0.492  -0.178   0.419
    1UNK    H11   37  -0.089  -0.025   0.664
    1UNK    H12   38  -0.251  -0.068   0.721
    1UNK    H13   39  -0.204   0.105   0.700
   1.00000   1.00000   1.00000

