LIGPARGEN GENERATED GRO FILE
   38
    1UNK    C00    1   0.100   0.100   0.000
    1UNK    C01    2  -0.051   0.100   0.000
    1UNK    O02    3  -0.113   0.100   0.106
    1UNK    C03    4  -0.119   0.100  -0.135
    1UNK    C04    5  -0.270   0.106  -0.119
    1UNK    O05    6  -0.330   0.118  -0.248
    1UNK    C06    7  -0.474   0.111  -0.243
    1UNK    C07    8  -0.532   0.233  -0.172
    1UNK    C08    9  -0.528   0.108  -0.388
    1UNK    O09   10  -0.486  -0.011  -0.456
    1UNK    C0A   11  -0.538  -0.022  -0.589
    1UNK    C0B   12  -0.487   0.090  -0.680
    1UNK    C0C   13  -0.494  -0.158  -0.646
    1UNK    C0D   14  -0.544  -0.276  -0.564
    1UNK    C0E   15  -0.695  -0.288  -0.563
    1UNK    O0F   16  -0.768  -0.240  -0.649
    1UNK    H0G   17   0.137   0.100   0.103
    1UNK    H0H   18   0.137   0.190  -0.050
    1UNK    H0I   19   0.137   0.010  -0.051
    1UNK    H0J   20  -0.090   0.009  -0.190
    1UNK    H0K   21  -0.083   0.186  -0.193
    1UNK    H0M   22  -0.295   0.194  -0.059
    1UNK    H0N   23  -0.306   0.016  -0.069
    1UNK    H0O   24  -0.503   0.018  -0.192
    1UNK    H0P   25  -0.490   0.325  -0.214
    1UNK    H0Q   26  -0.508   0.232  -0.065
    1UNK    H0R   27  -0.641   0.236  -0.180
    1UNK    H0S   28  -0.489   0.195  -0.440
    1UNK    H0T   29  -0.638   0.111  -0.387
    1UNK    H0U   30  -0.648  -0.016  -0.585
    1UNK    H0V   31  -0.378   0.098  -0.674
    1UNK    H0W   32  -0.527   0.187  -0.651
    1UNK    H0X   33  -0.516   0.073  -0.784
    1UNK    H0Y   34  -0.385  -0.162  -0.647
    1UNK    H0Z   35  -0.529  -0.168  -0.750
    1UNK    H10   36  -0.510  -0.269  -0.460
    1UNK    H11   37  -0.504  -0.370  -0.605
    1UNK    H12   38  -0.736  -0.350  -0.482
   1.00000   1.00000   1.00000

