LIGPARGEN GENERATED GRO FILE
   36
    1UNK    C00    1   0.100   0.100   0.000
    1UNK    C01    2  -0.054   0.100   0.000
    1UNK    C02    3  -0.104   0.100   0.145
    1UNK    C03    4  -0.251   0.134   0.128
    1UNK    C04    5  -0.250   0.247   0.024
    1UNK    C05    6  -0.341   0.227  -0.089
    1UNK    C06    7  -0.480   0.222  -0.110
    1UNK    C07    8  -0.400   0.200  -0.243
    1UNK    C08    9  -0.431   0.342  -0.305
    1UNK    C09   10  -0.298   0.318  -0.259
    1UNK    C0A   11  -0.158   0.332  -0.282
    1UNK    C0B   12  -0.194   0.198  -0.221
    1UNK    C0C   13  -0.125   0.224  -0.062
    1UNK    C0D   14  -0.034   0.350  -0.041
    1UNK    H0E   15   0.138   0.008   0.045
    1UNK    H0F   16   0.142   0.182   0.060
    1UNK    H0G   17   0.140   0.108  -0.101
    1UNK    H0H   18  -0.088   0.009  -0.051
    1UNK    H0I   19  -0.056   0.178   0.205
    1UNK    H0J   20  -0.088   0.004   0.195
    1UNK    H0K   21  -0.298   0.164   0.221
    1UNK    H0M   22  -0.302   0.044   0.093
    1UNK    H0N   23  -0.261   0.346   0.068
    1UNK    H0O   24  -0.325   0.111  -0.093
    1UNK    H0P   25  -0.523   0.320  -0.083
    1UNK    H0Q   26  -0.538   0.138  -0.074
    1UNK    H0R   27  -0.433   0.113  -0.306
    1UNK    H0S   28  -0.463   0.430  -0.249
    1UNK    H0T   29  -0.451   0.344  -0.412
    1UNK    H0U   30  -0.289   0.259  -0.371
    1UNK    H0V   31  -0.140   0.428  -0.236
    1UNK    H0W   32  -0.122   0.330  -0.385
    1UNK    H0X   33  -0.153   0.108  -0.271
    1UNK    H0Y   34   0.049   0.353  -0.111
    1UNK    H0Z   35   0.007   0.354   0.061
    1UNK    H10   36  -0.091   0.444  -0.048
   1.00000   1.00000   1.00000

