LIGPARGEN GENERATED GRO FILE
   37
    1UNK    C00    1   0.100   0.100   0.000
    1UNK    C01    2  -0.053   0.100   0.000
    1UNK    C02    3  -0.110   0.100   0.141
    1UNK    C03    4  -0.258   0.126   0.115
    1UNK    C04    5  -0.260   0.241   0.011
    1UNK    C05    6  -0.259   0.375   0.090
    1UNK    C06    7  -0.390   0.234  -0.074
    1UNK    C07    8  -0.520   0.244   0.003
    1UNK    C08    9  -0.651   0.232  -0.070
    1UNK    C09   10  -0.607   0.123   0.024
    1UNK    C0A   11  -0.124   0.219  -0.073
    1UNK    C0B   12  -0.035   0.346  -0.079
    1UNK    C0C   13  -0.145   0.177  -0.220
    1UNK    H0D   14   0.138   0.009   0.048
    1UNK    H0E   15   0.141   0.185   0.055
    1UNK    H0F   16   0.139   0.102  -0.102
    1UNK    H0G   17  -0.084   0.006  -0.048
    1UNK    H0H   18  -0.066   0.179   0.202
    1UNK    H0I   19  -0.094   0.004   0.192
    1UNK    H0J   20  -0.311   0.150   0.207
    1UNK    H0K   21  -0.303   0.035   0.073
    1UNK    H0M   22  -0.342   0.383   0.161
    1UNK    H0N   23  -0.265   0.461   0.022
    1UNK    H0O   24  -0.169   0.386   0.151
    1UNK    H0P   25  -0.392   0.140  -0.131
    1UNK    H0Q   26  -0.389   0.316  -0.148
    1UNK    H0R   27  -0.518   0.320   0.080
    1UNK    H0S   28  -0.649   0.212  -0.177
    1UNK    H0T   29  -0.732   0.297  -0.039
    1UNK    H0U   30  -0.577   0.028  -0.020
    1UNK    H0V   31  -0.659   0.114   0.118
    1UNK    H0W   32   0.001   0.376   0.020
    1UNK    H0X   33  -0.089   0.430  -0.123
    1UNK    H0Y   34   0.054   0.330  -0.141
    1UNK    H0Z   35  -0.210   0.089  -0.229
    1UNK    H10   36  -0.050   0.150  -0.267
    1UNK    H11   37  -0.189   0.258  -0.279
   1.00000   1.00000   1.00000

