LIGPARGEN GENERATED GRO FILE
   40
    1UNK    C00    1   0.100   0.100   0.000
    1UNK    C01    2  -0.053   0.100   0.000
    1UNK    C02    3  -0.104   0.100   0.144
    1UNK    C03    4  -0.112   0.220  -0.076
    1UNK    C04    5  -0.075   0.228  -0.225
    1UNK    C05    6  -0.124   0.110  -0.302
    1UNK    C06    7  -0.092   0.098  -0.449
    1UNK    C07    8  -0.028   0.004  -0.350
    1UNK    C08    9  -0.067  -0.141  -0.342
    1UNK    C09   10  -0.043  -0.214  -0.474
    1UNK    C0A   11   0.102  -0.222  -0.528
    1UNK    C0B   12   0.069  -0.365  -0.577
    1UNK    C0C   13  -0.038  -0.370  -0.464
    1UNK    C0D   14  -0.166  -0.444  -0.495
    1UNK    H0E   15   0.139   0.015   0.057
    1UNK    H0F   16   0.140   0.192   0.045
    1UNK    H0G   17   0.140   0.092  -0.101
    1UNK    H0H   18  -0.087   0.007  -0.047
    1UNK    H0I   19  -0.076   0.192   0.197
    1UNK    H0J   20  -0.063   0.015   0.200
    1UNK    H0K   21  -0.213   0.092   0.147
    1UNK    H0M   22  -0.079   0.313  -0.028
    1UNK    H0N   23  -0.221   0.217  -0.067
    1UNK    H0O   24   0.033   0.241  -0.237
    1UNK    H0P   25  -0.121   0.318  -0.266
    1UNK    H0Q   26  -0.225   0.082  -0.274
    1UNK    H0R   27  -0.028   0.173  -0.495
    1UNK    H0S   28  -0.170   0.060  -0.515
    1UNK    H0T   29   0.078   0.017  -0.332
    1UNK    H0U   30  -0.173  -0.151  -0.315
    1UNK    H0V   31  -0.010  -0.187  -0.261
    1UNK    H0W   32  -0.113  -0.179  -0.551
    1UNK    H0X   33   0.180  -0.219  -0.451
    1UNK    H0Y   34   0.127  -0.150  -0.607
    1UNK    H0Z   35   0.150  -0.437  -0.569
    1UNK    H10   36   0.027  -0.368  -0.678
    1UNK    H11   37   0.005  -0.405  -0.369
    1UNK    H12   38  -0.210  -0.411  -0.590
    1UNK    H13   39  -0.240  -0.428  -0.416
    1UNK    H14   40  -0.147  -0.552  -0.502
   1.00000   1.00000   1.00000

