LIGPARGEN GENERATED GRO FILE
   31
    1UNK    C00    1   0.100   0.100   0.000
    1UNK    C01    2  -0.054   0.100   0.000
    1UNK    C02    3  -0.100   0.100   0.146
    1UNK    C03    4  -0.113   0.208  -0.100
    1UNK    C04    5  -0.269   0.214  -0.106
    1UNK    C05    6  -0.334   0.077  -0.124
    1UNK    C06    7  -0.333   0.293   0.009
    1UNK    C07    8  -0.263   0.423   0.045
    1UNK    C08    9  -0.109   0.418   0.042
    1UNK    C09   10  -0.055   0.350  -0.085
    1UNK    C0A   11  -0.098   0.444  -0.197
    1UNK    N0B   12  -0.133   0.521  -0.290
    1UNK    H0C   13   0.138   0.015   0.058
    1UNK    H0D   14   0.140   0.191   0.046
    1UNK    H0E   15   0.139   0.091  -0.102
    1UNK    H0F   16  -0.084   0.002  -0.040
    1UNK    H0G   17  -0.062   0.185   0.203
    1UNK    H0H   18  -0.062   0.011   0.197
    1UNK    H0I   19  -0.208   0.095   0.157
    1UNK    H0J   20  -0.081   0.172  -0.199
    1UNK    H0K   21  -0.293   0.270  -0.198
    1UNK    H0M   22  -0.324   0.014  -0.036
    1UNK    H0N   23  -0.290   0.024  -0.209
    1UNK    H0O   24  -0.441   0.089  -0.145
    1UNK    H0P   25  -0.342   0.231   0.099
    1UNK    H0Q   26  -0.437   0.316  -0.018
    1UNK    H0R   27  -0.296   0.456   0.145
    1UNK    H0S   28  -0.297   0.501  -0.024
    1UNK    H0T   29  -0.072   0.368   0.131
    1UNK    H0U   30  -0.071   0.521   0.049
    1UNK    H0V   31   0.055   0.349  -0.083
   1.00000   1.00000   1.00000

