LIGPARGEN GENERATED GRO FILE
   58
    1UNK    C00    1   0.100   0.100   0.000
    1UNK    C01    2  -0.052   0.100   0.000
    1UNK    C02    3  -0.108   0.100   0.143
    1UNK    C03    4  -0.261   0.100   0.142
    1UNK    C04    5  -0.327   0.100   0.283
    1UNK    C05    6  -0.285   0.227   0.359
    1UNK    P06    7  -0.515   0.093   0.266
    1UNK    C07    8  -0.538  -0.060   0.164
    1UNK    C08    9  -0.684  -0.099   0.137
    1UNK    C09   10  -0.754  -0.004   0.038
    1UNK    C0A   11  -0.894  -0.056   0.004
    1UNK    C0B   12  -0.975   0.040  -0.086
    1UNK    C0C   13  -0.910   0.061  -0.222
    1UNK    C0D   14  -1.117  -0.014  -0.104
    1UNK    C0E   15  -0.583   0.043   0.434
    1UNK    C0F   16  -0.536  -0.097   0.477
    1UNK    C0G   17  -0.565   0.149   0.547
    1UNK    C0H   18  -0.618   0.288   0.509
    1UNK    C0I   19  -0.633   0.108   0.679
    1UNK    H0J   20   0.138   0.105  -0.103
    1UNK    H0K   21   0.139   0.009   0.047
    1UNK    H0M   22   0.139   0.186   0.055
    1UNK    H0N   23  -0.088   0.012  -0.055
    1UNK    H0O   24  -0.088   0.189  -0.053
    1UNK    H0P   25  -0.069   0.188   0.194
    1UNK    H0Q   26  -0.072   0.012   0.197
    1UNK    H0R   27  -0.292   0.011   0.086
    1UNK    H0S   28  -0.297   0.186   0.084
    1UNK    H0T   29  -0.292   0.012   0.337
    1UNK    H0U   30  -0.333   0.316   0.318
    1UNK    H0V   31  -0.177   0.243   0.357
    1UNK    H0W   32  -0.310   0.221   0.464
    1UNK    H0X   33  -0.487  -0.144   0.212
    1UNK    H0Y   34  -0.490  -0.046   0.067
    1UNK    H0Z   35  -0.741  -0.106   0.230
    1UNK    H10   36  -0.683  -0.200   0.093
    1UNK    H11   37  -0.694   0.003  -0.053
    1UNK    H12   38  -0.761   0.096   0.081
    1UNK    H13   39  -0.949  -0.070   0.098
    1UNK    H14   40  -0.887  -0.154  -0.044
    1UNK    H15   41  -0.982   0.138  -0.036
    1UNK    H16   42  -0.893  -0.034  -0.273
    1UNK    H17   43  -0.814   0.113  -0.213
    1UNK    H18   44  -0.974   0.123  -0.287
    1UNK    H19   45  -1.116  -0.112  -0.154
    1UNK    H1A   46  -1.177   0.054  -0.165
    1UNK    H1B   47  -1.167  -0.026  -0.007
    1UNK    H1C   48  -0.692   0.035   0.417
    1UNK    H1D   49  -0.427  -0.104   0.480
    1UNK    H1E   50  -0.573  -0.174   0.409
    1UNK    H1F   51  -0.574  -0.125   0.575
    1UNK    H1G   52  -0.459   0.158   0.571
    1UNK    H1H   53  -0.721   0.282   0.471
    1UNK    H1I   54  -0.556   0.336   0.432
    1UNK    H1J   55  -0.618   0.356   0.595
    1UNK    H1K   56  -0.739   0.086   0.664
    1UNK    H1M   57  -0.625   0.189   0.753
    1UNK    H1N   58  -0.584   0.021   0.724
   1.00000   1.00000   1.00000

