LIGPARGEN GENERATED GRO FILE
   19
    1UNK    C00    1   0.100   0.100   0.000
    1UNK    C01    2  -0.052   0.100   0.000
    1UNK    C02    3  -0.108   0.100   0.142
    1UNK    C03    4  -0.259   0.100   0.142
    1UNK    O04    5  -0.327   0.052   0.052
    1UNK    C05    6  -0.326   0.161   0.266
    1UNK    O06    7  -0.261   0.205   0.359
    1UNK    O07    8  -0.460   0.156   0.256
    1UNK    C08    9  -0.529   0.211   0.368
    1UNK    H09   10   0.138   0.100  -0.103
    1UNK    H0A   11   0.139   0.011   0.051
    1UNK    H0B   12   0.139   0.189   0.051
    1UNK    H0C   13  -0.088   0.012  -0.055
    1UNK    H0D   14  -0.088   0.188  -0.054
    1UNK    H0E   15  -0.072   0.189   0.194
    1UNK    H0F   16  -0.074   0.012   0.197
    1UNK    H0G   17  -0.637   0.202   0.349
    1UNK    H0H   18  -0.505   0.317   0.380
    1UNK    H0I   19  -0.505   0.155   0.459
   1.00000   1.00000   1.00000

