LIGPARGEN GENERATED GRO FILE
   35
    1UNK    C00    1   0.100   0.100   0.000
    1UNK    C01    2  -0.052   0.100   0.000
    1UNK    O02    3  -0.105   0.100   0.134
    1UNK    C03    4  -0.100   0.220   0.198
    1UNK    O04    5  -0.049   0.321   0.151
    1UNK    C05    6  -0.150   0.209   0.339
    1UNK    C06    7  -0.153   0.345   0.409
    1UNK    C07    8  -0.242   0.447   0.339
    1UNK    O08    9  -0.314   0.417   0.244
    1UNK    C09   10  -0.237   0.589   0.392
    1UNK    C0A   11  -0.131   0.666   0.315
    1UNK    C0B   12  -0.375   0.654   0.377
    1UNK    C0C   13  -0.481   0.581   0.456
    1UNK    O0D   14  -0.457   0.489   0.533
    1UNK    C0E   15  -0.278   0.132   0.363
    1UNK    C0F   16  -0.394   0.143   0.267
    1UNK    O0G   17  -0.292   0.067   0.467
    1UNK    H0H   18   0.138   0.095  -0.102
    1UNK    H0I   19   0.139   0.014   0.056
    1UNK    H0J   20   0.140   0.190   0.047
    1UNK    H0K   21  -0.088   0.009  -0.048
    1UNK    H0M   22  -0.092   0.185  -0.057
    1UNK    H0N   23  -0.072   0.150   0.390
    1UNK    H0O   24  -0.052   0.387   0.411
    1UNK    H0P   25  -0.188   0.335   0.513
    1UNK    H0Q   26  -0.210   0.586   0.498
    1UNK    H0R   27  -0.151   0.663   0.207
    1UNK    H0S   28  -0.032   0.623   0.331
    1UNK    H0T   29  -0.127   0.771   0.346
    1UNK    H0U   30  -0.407   0.655   0.272
    1UNK    H0V   31  -0.373   0.758   0.413
    1UNK    H0W   32  -0.584   0.617   0.441
    1UNK    H0X   33  -0.363   0.183   0.170
    1UNK    H0Y   34  -0.470   0.208   0.310
    1UNK    H0Z   35  -0.436   0.044   0.250
   1.00000   1.00000   1.00000

