LIGPARGEN GENERATED GRO FILE
   44
    1UNK    C00    1   0.100   0.100   0.000
    1UNK    C01    2  -0.052   0.100   0.000
    1UNK    C02    3  -0.119   0.100   0.139
    1UNK    C03    4  -0.070  -0.017   0.225
    1UNK    C04    5  -0.102   0.232   0.218
    1UNK    C05    6  -0.164   0.359   0.155
    1UNK    C06    7  -0.314   0.352   0.119
    1UNK    C07    8  -0.426   0.349   0.227
    1UNK    C08    9  -0.424   0.221   0.311
    1UNK    C09   10  -0.439   0.480   0.312
    1UNK    C0A   11  -0.479   0.598   0.221
    1UNK    C0B   12  -0.539   0.464   0.428
    1UNK    C0C   13  -0.554   0.590   0.512
    1UNK    N0D   14  -0.566   0.694   0.582
    1UNK    C0E   15  -0.125   0.480   0.239
    1UNK    C0F   16  -0.116   0.614   0.171
    1UNK    O0G   17  -0.101   0.471   0.360
    1UNK    H0H   18   0.137   0.108  -0.103
    1UNK    H0I   19   0.140   0.007   0.041
    1UNK    H0J   20   0.141   0.184   0.057
    1UNK    H0K   21  -0.086   0.011  -0.055
    1UNK    H0M   22  -0.088   0.186  -0.058
    1UNK    H0N   23  -0.226   0.083   0.122
    1UNK    H0O   24   0.036  -0.007   0.250
    1UNK    H0P   25  -0.085  -0.112   0.174
    1UNK    H0Q   26  -0.125  -0.021   0.320
    1UNK    H0R   27   0.005   0.250   0.234
    1UNK    H0S   28  -0.144   0.218   0.319
    1UNK    H0T   29  -0.110   0.373   0.060
    1UNK    H0U   30  -0.329   0.264   0.055
    1UNK    H0V   31  -0.335   0.437   0.052
    1UNK    H0W   32  -0.519   0.342   0.170
    1UNK    H0X   33  -0.349   0.224   0.390
    1UNK    H0Y   34  -0.407   0.133   0.249
    1UNK    H0Z   35  -0.521   0.205   0.359
    1UNK    H10   36  -0.343   0.504   0.358
    1UNK    H11   37  -0.574   0.578   0.171
    1UNK    H12   38  -0.404   0.616   0.144
    1UNK    H13   39  -0.489   0.691   0.278
    1UNK    H14   40  -0.507   0.385   0.496
    1UNK    H15   41  -0.638   0.437   0.389
    1UNK    H16   42  -0.135   0.605   0.064
    1UNK    H17   43  -0.016   0.655   0.185
    1UNK    H18   44  -0.190   0.682   0.215
   1.00000   1.00000   1.00000

