LIGPARGEN GENERATED GRO FILE
   43
    1UNK    C00    1   0.100   0.100   0.000
    1UNK    C01    2  -0.052   0.100   0.000
    1UNK    C02    3  -0.113   0.100   0.141
    1UNK    C03    4  -0.085   0.223   0.232
    1UNK    C04    5  -0.121   0.359   0.165
    1UNK    S05    6  -0.297   0.383   0.135
    1UNK    O06    7  -0.339   0.285   0.036
    1UNK    O07    8  -0.364   0.394   0.263
    1UNK    C08    9  -0.311   0.544   0.056
    1UNK    C09   10  -0.459   0.571   0.028
    1UNK    C0A   11  -0.490   0.704  -0.039
    1UNK    C0B   12  -0.641   0.716  -0.060
    1UNK    C0C   13  -0.682   0.845  -0.127
    1UNK    O0D   14  -0.604   0.933  -0.161
    1UNK    C0E   15  -0.149   0.202   0.373
    1UNK    C0F   16  -0.102   0.073   0.442
    1UNK    C0G   17  -0.123   0.319   0.469
    1UNK    H0H   18   0.137   0.090  -0.102
    1UNK    H0I   19   0.139   0.016   0.058
    1UNK    H0J   20   0.140   0.193   0.041
    1UNK    H0K   21  -0.086   0.009  -0.051
    1UNK    H0M   22  -0.089   0.184  -0.060
    1UNK    H0N   23  -0.076   0.009   0.189
    1UNK    H0O   24  -0.221   0.086   0.131
    1UNK    H0P   25   0.024   0.226   0.247
    1UNK    H0Q   26  -0.071   0.369   0.068
    1UNK    H0R   27  -0.087   0.442   0.227
    1UNK    H0S   28  -0.252   0.542  -0.036
    1UNK    H0T   29  -0.269   0.619   0.125
    1UNK    H0U   30  -0.515   0.565   0.123
    1UNK    H0V   31  -0.498   0.490  -0.035
    1UNK    H0W   32  -0.437   0.711  -0.135
    1UNK    H0X   33  -0.454   0.787   0.024
    1UNK    H0Y   34  -0.694   0.710   0.036
    1UNK    H0Z   35  -0.676   0.634  -0.124
    1UNK    H10   36  -0.790   0.856  -0.143
    1UNK    H11   37  -0.258   0.192   0.361
    1UNK    H12   38   0.007   0.070   0.451
    1UNK    H13   39  -0.135  -0.016   0.389
    1UNK    H14   40  -0.144   0.066   0.543
    1UNK    H15   41  -0.015   0.333   0.485
    1UNK    H16   42  -0.169   0.300   0.566
    1UNK    H17   43  -0.165   0.413   0.432
   1.00000   1.00000   1.00000

