
;
; GENERATED BY LigParGen Server
; Jorgensen Lab @ Yale University 
;
[ atomtypes ]
  opls_818  H818     1.0080     0.000    A    2.50000E-01   1.25520E-01
  opls_804  C804    12.0110     0.000    A    3.45000E-01   3.47272E-01
  opls_824  H824     1.0080     0.000    A    2.50000E-01   1.25520E-01
  opls_833  H833     1.0080     0.000    A    2.50000E-01   1.25520E-01
  opls_805  C805    12.0110     0.000    A    3.45000E-01   3.47272E-01
  opls_834  H834     1.0080     0.000    A    2.50000E-01   1.25520E-01
  opls_828  H828     1.0080     0.000    A    2.50000E-01   1.25520E-01
  opls_832  H832     1.0080     0.000    A    2.50000E-01   1.25520E-01
  opls_802  C802    12.0110     0.000    A    3.50000E-01   2.76144E-01
  opls_815  H815     1.0080     0.000    A    2.50000E-01   1.25520E-01
  opls_801  C801    12.0110     0.000    A    3.50000E-01   2.76144E-01
  opls_830  H830     1.0080     0.000    A    2.50000E-01   1.25520E-01
  opls_822  H822     1.0080     0.000    A    2.50000E-01   1.25520E-01
  opls_803  C803    12.0110     0.000    A    3.50000E-01   2.76144E-01
  opls_825  H825     1.0080     0.000    A    2.50000E-01   1.25520E-01
  opls_826  H826     1.0080     0.000    A    2.50000E-01   1.25520E-01
  opls_814  H814     1.0080     0.000    A    2.50000E-01   1.25520E-01
  opls_809  O809    15.9990     0.000    A    2.96000E-01   8.78640E-01
  opls_821  H821     1.0080     0.000    A    2.50000E-01   1.25520E-01
  opls_820  H820     1.0080     0.000    A    2.50000E-01   1.25520E-01
  opls_829  H829     1.0080     0.000    A    2.50000E-01   1.25520E-01
  opls_831  H831     1.0080     0.000    A    2.50000E-01   1.25520E-01
  opls_816  H816     1.0080     0.000    A    2.50000E-01   1.25520E-01
  opls_800  C800    12.0110     0.000    A    3.50000E-01   2.76144E-01
  opls_811  C811    12.0110     0.000    A    3.50000E-01   2.76144E-01
  opls_823  H823     1.0080     0.000    A    2.50000E-01   1.25520E-01
  opls_813  C813    12.0110     0.000    A    3.50000E-01   2.76144E-01
  opls_806  C806    12.0110     0.000    A    3.45000E-01   3.47272E-01
  opls_835  H835     1.0080     0.000    A    2.50000E-01   1.25520E-01
  opls_819  H819     1.0080     0.000    A    2.50000E-01   1.25520E-01
  opls_810  C810    12.0110     0.000    A    3.50000E-01   2.76144E-01
  opls_827  H827     1.0080     0.000    A    2.50000E-01   1.25520E-01
  opls_812  C812    12.0110     0.000    A    3.50000E-01   2.76144E-01
  opls_817  H817     1.0080     0.000    A    2.50000E-01   1.25520E-01
  opls_808  C808    12.0110     0.000    A    3.55000E-01   2.92880E-01
  opls_807  C807    12.0110     0.000    A    3.50000E-01   2.76144E-01
[ moleculetype ]
; Name               nrexcl
UNK                   3
[ atoms ]
;   nr       type  resnr residue  atom   cgnr     charge       mass  
     1   opls_800      1    UNK   C00      1    -0.2395    12.0110 
     2   opls_801      1    UNK   C01      1    -0.1778    12.0110 
     3   opls_802      1    UNK   C02      1    -0.1721    12.0110 
     4   opls_803      1    UNK   C03      1    -0.1463    12.0110 
     5   opls_804      1    UNK   C04      1    -0.1789    12.0110 
     6   opls_805      1    UNK   C05      1    -0.2168    12.0110 
     7   opls_806      1    UNK   C06      1    -0.1672    12.0110 
     8   opls_807      1    UNK   C07      1    -0.1384    12.0110 
     9   opls_808      1    UNK   C08      1     0.3738    12.0110 
    10   opls_809      1    UNK   O09      1    -0.4403    15.9990 
    11   opls_810      1    UNK   C0A      1     -0.246    12.0110 
    12   opls_811      1    UNK   C0B      1    -0.1841    12.0110 
    13   opls_812      1    UNK   C0C      1    -0.1148    12.0110 
    14   opls_813      1    UNK   C0D      1    -0.2332    12.0110 
    15   opls_814      1    UNK   H0E      1     0.0808     1.0080 
    16   opls_815      1    UNK   H0F      1     0.0808     1.0080 
    17   opls_816      1    UNK   H0G      1     0.0808     1.0080 
    18   opls_817      1    UNK   H0H      1     0.0891     1.0080 
    19   opls_818      1    UNK   H0I      1     0.0891     1.0080 
    20   opls_819      1    UNK   H0J      1     0.0893     1.0080 
    21   opls_820      1    UNK   H0K      1     0.0893     1.0080 
    22   opls_821      1    UNK   H0M      1     0.0902     1.0080 
    23   opls_822      1    UNK   H0N      1     0.0902     1.0080 
    24   opls_823      1    UNK   H0O      1      0.131     1.0080 
    25   opls_824      1    UNK   H0P      1     0.1326     1.0080 
    26   opls_825      1    UNK   H0Q      1     0.1326     1.0080 
    27   opls_826      1    UNK   H0R      1     0.1379     1.0080 
    28   opls_827      1    UNK   H0S      1     0.1384     1.0080 
    29   opls_828      1    UNK   H0T      1     0.1332     1.0080 
    30   opls_829      1    UNK   H0U      1     0.1332     1.0080 
    31   opls_830      1    UNK   H0V      1     0.0987     1.0080 
    32   opls_831      1    UNK   H0W      1     0.0987     1.0080 
    33   opls_832      1    UNK   H0X      2     0.1086     1.0080 
    34   opls_833      1    UNK   H0Y      2     0.0857     1.0080 
    35   opls_834      1    UNK   H0Z      2     0.0857     1.0080 
    36   opls_835      1    UNK   H10      2     0.0857     1.0080 
[ bonds ]
    2     1     1      0.1529 224262.400
    3     2     1      0.1529 224262.400
    4     3     1      0.1529 224262.400
    5     4     1      0.1510 234304.000
    6     5     1      0.1520 217568.000
    7     5     1      0.1520 217568.000
    8     7     1      0.1510 234304.000
    9     8     1      0.1522 265265.600
   10     9     1      0.1229 476976.000
   11     9     1      0.1522 265265.600
   12    11     1      0.1529 224262.400
   13     8     1      0.1529 224262.400
   14    13     1      0.1529 224262.400
   15     1     1      0.1090 284512.000
   16     1     1      0.1090 284512.000
   17     1     1      0.1090 284512.000
   18     2     1      0.1090 284512.000
   19     2     1      0.1090 284512.000
   20     3     1      0.1090 284512.000
   21     3     1      0.1090 284512.000
   22     4     1      0.1090 284512.000
   23     4     1      0.1090 284512.000
   24     5     1      0.1088 284512.000
   25     6     1      0.1088 284512.000
   26     6     1      0.1088 284512.000
   27     7     1      0.1088 284512.000
   28     8     1      0.1090 284512.000
   29    11     1      0.1090 284512.000
   30    11     1      0.1090 284512.000
   31    12     1      0.1090 284512.000
   32    12     1      0.1090 284512.000
   33    13     1      0.1090 284512.000
   34    14     1      0.1090 284512.000
   35    14     1      0.1090 284512.000
   36    14     1      0.1090 284512.000
    7     6     1      0.1520 217568.000
   13    12     1      0.1529 224262.400

[ angles ]
;  ai    aj    ak funct            c0            c1            c2            c3 
    1     2     3     1    112.700    488.273
    2     3     4     1    112.700    488.273
    3     4     5     1    112.700    488.273
    4     5     6     1    117.200    313.800
    4     5     7     1    117.200    313.800
    5     7     8     1    117.200    313.800
    7     8     9     1    111.100    527.184
    8     9    10     1    120.400    669.440
    8     9    11     1    116.000    585.760
    9    11    12     1    111.100    527.184
    7     8    13     1    112.700    488.273
    8    13    14     1    112.700    488.273
    2     1    15     1    110.700    313.800
    2     1    16     1    110.700    313.800
    2     1    17     1    110.700    313.800
    1     2    18     1    110.700    313.800
    1     2    19     1    110.700    313.800
    2     3    20     1    110.700    313.800
    2     3    21     1    110.700    313.800
    3     4    22     1    110.700    313.800
    3     4    23     1    110.700    313.800
    4     5    24     1    114.300    292.880
    5     6    25     1    117.200    313.800
    5     6    26     1    117.200    313.800
    5     7    27     1    117.200    313.800
    7     8    28     1    110.700    313.800
    9    11    29     1    109.500    292.880
    9    11    30     1    109.500    292.880
   11    12    31     1    110.700    313.800
   11    12    32     1    110.700    313.800
    8    13    33     1    110.700    313.800
   13    14    34     1    110.700    313.800
   13    14    35     1    110.700    313.800
   13    14    36     1    110.700    313.800
   22     4    23     1    107.800    276.144
   34    14    36     1    107.800    276.144
   31    12    32     1    107.800    276.144
    6     5    24     1    117.200    313.800
    9     8    28     1    109.500    292.880
    3     2    18     1    110.700    313.800
   13    12    31     1    110.700    313.800
   20     3    21     1    107.800    276.144
    7     6    25     1    117.200    313.800
    9     8    13     1    111.100    527.184
   12    13    14     1    112.700    488.273
    5     6     7     1     83.000    251.040
    8    13    12     1    112.700    488.273
   16     1    17     1    107.800    276.144
    6     7     8     1    117.200    313.800
   14    13    33     1    110.700    313.800
   12    11    30     1    110.700    313.800
    5     4    23     1    110.700    313.800
    7     6    26     1    117.200    313.800
   13     8    28     1    110.700    313.800
    5     4    22     1    110.700    313.800
   18     2    19     1    107.800    276.144
    3     2    19     1    110.700    313.800
   15     1    16     1    107.800    276.144
    8     7    27     1    114.300    292.880
    4     3    21     1    110.700    313.800
    6     7    27     1    117.200    313.800
   25     6    26     1    114.300    292.880
   15     1    17     1    107.800    276.144
    7     5    24     1    117.200    313.800
   10     9    11     1    120.400    669.440
   35    14    36     1    107.800    276.144
    5     7     6     1     83.000    251.040
   34    14    35     1    107.800    276.144
   13    12    32     1    110.700    313.800
    4     3    20     1    110.700    313.800
   11    12    13     1    112.700    488.273
   29    11    30     1    107.800    276.144
   12    13    33     1    110.700    313.800
   12    11    29     1    110.700    313.800
    6     5     7     1     83.000    251.040

[ dihedrals ]
; IMPROPER DIHEDRAL ANGLES 
;  ai    aj    ak    al funct            c0            c1            c2            c3            c4            c5
    11     9     8    10    4        180.000     43.932     2  

[ dihedrals ]
; PROPER DIHEDRAL ANGLES
;  ai    aj    ak    al funct            c0            c1            c2            c3            c4            c5
    9    8    7    5        3      -4.960   6.286   1.310  -2.636  -0.000   0.000
    9    8    7    6        3      -4.960   6.286   1.310  -2.636  -0.000   0.000
   11    9    8    7        3       0.818  -7.906   0.602   6.485  -0.000   0.000
   13    8    9   11        3       0.818  -7.906   0.602   6.485  -0.000   0.000
   12   11    9    8        3       0.818  -7.906   0.602   6.485  -0.000   0.000
   13    8    9   10        3       0.000   0.000   0.000  -0.000  -0.000   0.000
   12   11    9   10        3       0.000   0.000   0.000  -0.000  -0.000   0.000
   13   12   11    9        3      -4.960   6.286   1.310  -2.636  -0.000   0.000
   14   13    8    9        3      -4.960   6.286   1.310  -2.636  -0.000   0.000
   12   13    8    9        3      -4.960   6.286   1.310  -2.636  -0.000   0.000
   14   13   12   11        3       2.301  -1.464   0.837  -1.674  -0.000   0.000
   11   12   13    8        3       2.301  -1.464   0.837  -1.674  -0.000   0.000
    4    3    2    1        3       2.301  -1.464   0.837  -1.674  -0.000   0.000
   12   13    8    7        3       2.301  -1.464   0.837  -1.674  -0.000   0.000
   14   13    8    7        3       2.301  -1.464   0.837  -1.674  -0.000   0.000
   13    8    7    6        3       0.000   0.000   0.000  -0.000  -0.000   0.000
   13    8    7    5        3       0.000   0.000   0.000  -0.000  -0.000   0.000
    8    7    5    4        3       0.000   0.000   0.000  -0.000  -0.000   0.000
    8    7    6    5        3       0.000   0.000   0.000  -0.000  -0.000   0.000
    8    7    5    6        3       0.000   0.000   0.000  -0.000  -0.000   0.000
    5    4    3    2        3       2.301  -1.464   0.837  -1.674  -0.000   0.000
    6    5    4    3        3       0.000   0.000   0.000  -0.000  -0.000   0.000
    7    5    4    3        3       0.000   0.000   0.000  -0.000  -0.000   0.000
    7    5    4    6        3       0.000   0.000   0.000  -0.000  -0.000   0.000
   29   11    9    8        3       0.575   1.726   0.000  -2.301  -0.000   0.000
   28    8    9   11        3       0.575   1.726   0.000  -2.301  -0.000   0.000
   30   11    9    8        3       0.575   1.726   0.000  -2.301  -0.000   0.000
   30   11    9   10        3       0.000   0.000   0.000  -0.000  -0.000   0.000
   29   11    9   10        3       0.000   0.000   0.000  -0.000  -0.000   0.000
   28    8    9   10        3       0.000   0.000   0.000  -0.000  -0.000   0.000
   33   13    8    9        3      -0.209  -0.628   0.000   0.837  -0.000   0.000
   32   12   11    9        3      -0.209  -0.628   0.000   0.837  -0.000   0.000
   31   12   11    9        3      -0.209  -0.628   0.000   0.837  -0.000   0.000
   33   13   12   11        3       0.628   1.883   0.000  -2.510  -0.000   0.000
   30   11   12   13        3       0.628   1.883   0.000  -2.510  -0.000   0.000
   36   14   13    8        3       0.628   1.883   0.000  -2.510  -0.000   0.000
   36   14   13   12        3       0.628   1.883   0.000  -2.510  -0.000   0.000
   20    3    2    1        3       0.628   1.883   0.000  -2.510  -0.000   0.000
   28    8   13   14        3       0.628   1.883   0.000  -2.510  -0.000   0.000
   35   14   13   12        3       0.628   1.883   0.000  -2.510  -0.000   0.000
   23    4    3    2        3       0.628   1.883   0.000  -2.510  -0.000   0.000
   17    1    2    3        3       0.628   1.883   0.000  -2.510  -0.000   0.000
   31   12   13    8        3       0.628   1.883   0.000  -2.510  -0.000   0.000
   32   12   13   14        3       0.628   1.883   0.000  -2.510  -0.000   0.000
   19    2    3    4        3       0.628   1.883   0.000  -2.510  -0.000   0.000
   29   11   12   13        3       0.628   1.883   0.000  -2.510  -0.000   0.000
   18    2    3    4        3       0.628   1.883   0.000  -2.510  -0.000   0.000
   21    3    2    1        3       0.628   1.883   0.000  -2.510  -0.000   0.000
   31   12   13   14        3       0.628   1.883   0.000  -2.510  -0.000   0.000
   16    1    2    3        3       0.628   1.883   0.000  -2.510  -0.000   0.000
   35   14   13    8        3       0.628   1.883   0.000  -2.510  -0.000   0.000
   22    4    3    2        3       0.628   1.883   0.000  -2.510  -0.000   0.000
   32   12   13    8        3       0.628   1.883   0.000  -2.510  -0.000   0.000
   34   14   13   12        3       0.628   1.883   0.000  -2.510  -0.000   0.000
   15    1    2    3        3       0.628   1.883   0.000  -2.510  -0.000   0.000
   28    8   13   12        3       0.628   1.883   0.000  -2.510  -0.000   0.000
   34   14   13    8        3       0.628   1.883   0.000  -2.510  -0.000   0.000
   20    3    4    5        3       0.628   1.883   0.000  -2.510  -0.000   0.000
   33   13    8    7        3       0.628   1.883   0.000  -2.510  -0.000   0.000
   21    3    4    5        3       0.628   1.883   0.000  -2.510  -0.000   0.000
   20    3    2   19        3       0.628   1.883   0.000  -2.510  -0.000   0.000
   21    3    2   19        3       0.628   1.883   0.000  -2.510  -0.000   0.000
   36   14   13   33        3       0.628   1.883   0.000  -2.510  -0.000   0.000
   32   12   11   30        3       0.628   1.883   0.000  -2.510  -0.000   0.000
   23    4    3   20        3       0.628   1.883   0.000  -2.510  -0.000   0.000
   22    4    3   21        3       0.628   1.883   0.000  -2.510  -0.000   0.000
   19    2    1   17        3       0.628   1.883   0.000  -2.510  -0.000   0.000
   18    2    1   16        3       0.628   1.883   0.000  -2.510  -0.000   0.000
   33   13   12   32        3       0.628   1.883   0.000  -2.510  -0.000   0.000
   32   12   11   29        3       0.628   1.883   0.000  -2.510  -0.000   0.000
   19    2    1   15        3       0.628   1.883   0.000  -2.510  -0.000   0.000
   19    2    1   16        3       0.628   1.883   0.000  -2.510  -0.000   0.000
   33   13   12   31        3       0.628   1.883   0.000  -2.510  -0.000   0.000
   23    4    3   21        3       0.628   1.883   0.000  -2.510  -0.000   0.000
   35   14   13   33        3       0.628   1.883   0.000  -2.510  -0.000   0.000
   21    3    2   18        3       0.628   1.883   0.000  -2.510  -0.000   0.000
   31   12   11   30        3       0.628   1.883   0.000  -2.510  -0.000   0.000
   20    3    2   18        3       0.628   1.883   0.000  -2.510  -0.000   0.000
   18    2    1   15        3       0.628   1.883   0.000  -2.510  -0.000   0.000
   22    4    3   20        3       0.628   1.883   0.000  -2.510  -0.000   0.000
   34   14   13   33        3       0.628   1.883   0.000  -2.510  -0.000   0.000
   18    2    1   17        3       0.628   1.883   0.000  -2.510  -0.000   0.000
   31   12   11   29        3       0.628   1.883   0.000  -2.510  -0.000   0.000
   33   13    8   28        3       0.628   1.883   0.000  -2.510  -0.000   0.000
   22    4    5    6        3       0.628   1.883   0.000  -2.510  -0.000   0.000
   23    4    5    6        3       0.628   1.883   0.000  -2.510  -0.000   0.000
   28    8    7    6        3       0.628   1.883   0.000  -2.510  -0.000   0.000
   23    4    5    7        3       0.628   1.883   0.000  -2.510  -0.000   0.000
   22    4    5    7        3       0.628   1.883   0.000  -2.510  -0.000   0.000
   28    8    7    5        3       0.628   1.883   0.000  -2.510  -0.000   0.000
   28    8    7   27        3       0.628   1.883   0.000  -2.510  -0.000   0.000
   27    7    8    9        3      -0.209  -0.628   0.000   0.837  -0.000   0.000
   24    5    4    3        3       0.628   1.883   0.000  -2.510  -0.000   0.000
   27    7    8   13        3       0.628   1.883   0.000  -2.510  -0.000   0.000
   24    5    4   22        3       0.628   1.883   0.000  -2.510  -0.000   0.000
   24    5    4   23        3       0.628   1.883   0.000  -2.510  -0.000   0.000
   25    6    7    8        3       0.000   0.000   0.000  -0.000  -0.000   0.000
   24    5    7    8        3       0.000   0.000   0.000  -0.000  -0.000   0.000
   26    6    5    4        3       0.000   0.000   0.000  -0.000  -0.000   0.000
   26    6    7    8        3       0.000   0.000   0.000  -0.000  -0.000   0.000
   25    6    5    4        3       0.000   0.000   0.000  -0.000  -0.000   0.000
   27    7    5    4        3       0.000   0.000   0.000  -0.000  -0.000   0.000
   26    6    5    7        3       0.000   0.000   0.000  -0.000  -0.000   0.000
   26    6    7    5        3       0.000   0.000   0.000  -0.000  -0.000   0.000
   27    7    5    6        3       0.000   0.000   0.000  -0.000  -0.000   0.000
   24    5    7    6        3       0.000   0.000   0.000  -0.000  -0.000   0.000
   27    7    6    5        3       0.000   0.000   0.000  -0.000  -0.000   0.000
   25    6    5    7        3       0.000   0.000   0.000  -0.000  -0.000   0.000
   24    5    6    7        3       0.000   0.000   0.000  -0.000  -0.000   0.000
   25    6    7    5        3       0.000   0.000   0.000  -0.000  -0.000   0.000
   26    6    5   24        3       0.000   0.000   0.000  -0.000  -0.000   0.000
   27    7    6   25        3       0.000   0.000   0.000  -0.000  -0.000   0.000
   25    6    5   24        3       0.000   0.000   0.000  -0.000  -0.000   0.000
   27    7    6   26        3       0.000   0.000   0.000  -0.000  -0.000   0.000
   27    7    5   24        3       0.000   0.000   0.000  -0.000  -0.000   0.000
   10    9    8    7        3       0.000   0.000   0.000  -0.000  -0.000   0.000

[ pairs ]
     1     4    1
     2     5    1
     3     6    1
     3     7    1
     4     8    1
     5     9    1
     6     9    1
     7    10    1
     7    11    1
     5    13    1
     3    15    1
     7    12    1
     6    13    1
     3    16    1
     3    17    1
     7    14    1
     1    20    1
    10    12    1
     4    18    1
     1    21    1
    10    13    1
     9    14    1
     4    19    1
     2    22    1
    11    14    1
     5    20    1
     2    23    1
     5    21    1
     3    24    1
     6    22    1
     7    22    1
     6    23    1
     4    25    1
     7    23    1
     4    26    1
     4    27    1
     8    24    1
    15    18    1
     8    25    1
     5    28    1
    16    18    1
    15    19    1
     8    26    1
     6    28    1
    17    18    1
    16    19    1
    17    19    1
     9    27    1
     8    29    1
    18    20    1
    10    28    1
     8    30    1
    19    20    1
    18    21    1
    11    28    1
    10    29    1
     8    31    1
    19    21    1
    13    27    1
    12    28    1
    10    30    1
     9    31    1
     8    32    1
     7    33    1
     9    32    1
    20    22    1
    14    28    1
    13    29    1
     9    33    1
     8    34    1
    21    22    1
    20    23    1
    13    30    1
     8    35    1
    21    23    1
    11    33    1
     8    36    1
    14    31    1
    22    24    1
    14    32    1
    12    34    1
    23    24    1
    12    35    1
    12    36    1
    24    25    1
    24    26    1
    24    27    1
    25    27    1
    26    27    1
    27    28    1
    29    31    1
    30    31    1
    29    32    1
    28    33    1
    30    32    1
    31    33    1
    32    33    1
    33    34    1
    33    35    1
    33    36    1

