LIGPARGEN GENERATED GRO FILE
   19
    1UNK    C00    1   0.100   0.100   0.000
    1UNK    C01    2  -0.054   0.100   0.000
    1UNK    C02    3  -0.104   0.100   0.145
    1UNK    C03    4  -0.098   0.228  -0.071
    1UNK    O04    5  -0.126   0.332  -0.013
    1UNK    C05    6  -0.104  -0.024  -0.078
    1UNK    C06    7  -0.255  -0.038  -0.086
    1UNK    F07    8  -0.306   0.068  -0.153
    1UNK    F08    9  -0.284  -0.148  -0.161
    1UNK    H09   10   0.140   0.188   0.052
    1UNK    H0A   11   0.140   0.102  -0.102
    1UNK    H0B   12   0.140   0.011   0.050
    1UNK    H0C   13  -0.060   0.182   0.202
    1UNK    H0D   14  -0.079   0.006   0.196
    1UNK    H0E   15  -0.213   0.114   0.150
    1UNK    H0F   16  -0.096   0.225  -0.181
    1UNK    H0G   17  -0.063  -0.115  -0.032
    1UNK    H0H   18  -0.064  -0.021  -0.180
    1UNK    H0I   19  -0.304  -0.047   0.011
   1.00000   1.00000   1.00000

