
;
; GENERATED BY LigParGen Server
; Jorgensen Lab @ Yale University 
;
[ atomtypes ]
  opls_810  H810     1.0080     0.000    A    2.50000E-01   1.25520E-01
  opls_802  C802    12.0110     0.000    A    3.50000E-01   2.76144E-01
  opls_818  H818     1.0080     0.000    A    2.50000E-01   1.25520E-01
  opls_801  C801    12.0110     0.000    A    3.50000E-01   2.76144E-01
  opls_803  C803    12.0110     0.000    A    3.55000E-01   2.92880E-01
  opls_814  H814     1.0080     0.000    A    2.50000E-01   1.25520E-01
  opls_817  H817     1.0080     0.000    A    2.50000E-01   1.25520E-01
  opls_806  C806    12.0110     0.000    A    3.50000E-01   2.76144E-01
  opls_812  H812     1.0080     0.000    A    2.50000E-01   1.25520E-01
  opls_809  H809     1.0080     0.000    A    2.50000E-01   1.25520E-01
  opls_808  F808    18.9984     0.000    A    2.90000E-01   2.51040E-01
  opls_804  O804    15.9990     0.000    A    2.96000E-01   8.78640E-01
  opls_816  H816     1.0080     0.000    A    2.50000E-01   1.25520E-01
  opls_813  H813     1.0080     0.000    A    2.50000E-01   1.25520E-01
  opls_807  F807    18.9984     0.000    A    2.90000E-01   2.51040E-01
  opls_800  C800    12.0110     0.000    A    3.50000E-01   2.76144E-01
  opls_811  H811     1.0080     0.000    A    2.50000E-01   1.25520E-01
  opls_805  C805    12.0110     0.000    A    3.50000E-01   2.76144E-01
  opls_815  H815     1.0080     0.000    A    2.50000E-01   1.25520E-01
[ moleculetype ]
; Name               nrexcl
UNK                   3
[ atoms ]
;   nr       type  resnr residue  atom   cgnr     charge       mass  
     1   opls_800      1    UNK   C00      1    -0.2297    12.0110 
     2   opls_801      1    UNK   C01      1    -0.1188    12.0110 
     3   opls_802      1    UNK   C02      1    -0.2297    12.0110 
     4   opls_803      1    UNK   C03      1     0.3255    12.0110 
     5   opls_804      1    UNK   O04      1    -0.4341    15.9990 
     6   opls_805      1    UNK   C05      1    -0.2481    12.0110 
     7   opls_806      1    UNK   C06      1     0.2388    12.0110 
     8   opls_807      1    UNK   F07      1    -0.1825    18.9984 
     9   opls_808      1    UNK   F08      1    -0.1825    18.9984 
    10   opls_809      1    UNK   H09      1     0.0956     1.0080 
    11   opls_810      1    UNK   H0A      1     0.0956     1.0080 
    12   opls_811      1    UNK   H0B      1     0.0956     1.0080 
    13   opls_812      1    UNK   H0C      1     0.0955     1.0080 
    14   opls_813      1    UNK   H0D      1     0.0955     1.0080 
    15   opls_814      1    UNK   H0E      1     0.0955     1.0080 
    16   opls_815      1    UNK   H0F      1     0.1196     1.0080 
    17   opls_816      1    UNK   H0G      1     0.1247     1.0080 
    18   opls_817      1    UNK   H0H      1     0.1247     1.0080 
    19   opls_818      1    UNK   H0I      1     0.1188     1.0080 
[ bonds ]
    2     1     1      0.1529 224262.400
    3     2     1      0.1529 224262.400
    4     2     1      0.1522 265265.600
    5     4     1      0.1229 476976.000
    6     2     1      0.1529 224262.400
    7     6     1      0.1529 224262.400
    8     7     1      0.1360 307105.600
    9     7     1      0.1360 307105.600
   10     1     1      0.1090 284512.000
   11     1     1      0.1090 284512.000
   12     1     1      0.1090 284512.000
   13     3     1      0.1090 284512.000
   14     3     1      0.1090 284512.000
   15     3     1      0.1090 284512.000
   16     4     1      0.1090 284512.000
   17     6     1      0.1090 284512.000
   18     6     1      0.1090 284512.000
   19     7     1      0.1090 284512.000

[ angles ]
;  ai    aj    ak funct            c0            c1            c2            c3 
    1     2     3     1    112.700    488.273
    1     2     4     1    111.100    527.184
    2     4     5     1    120.400    669.440
    1     2     6     1    112.700    488.273
    2     6     7     1    112.700    488.273
    6     7     8     1    109.500    418.400
    6     7     9     1    109.500    418.400
    2     1    10     1    110.700    313.800
    2     1    11     1    110.700    313.800
    2     1    12     1    110.700    313.800
    2     3    13     1    110.700    313.800
    2     3    14     1    110.700    313.800
    2     3    15     1    110.700    313.800
    2     4    16     1    115.000    292.880
    2     6    17     1    110.700    313.800
    2     6    18     1    110.700    313.800
    6     7    19     1    110.700    313.800
    7     6    17     1    110.700    313.800
    7     6    18     1    110.700    313.800
    4     2     6     1    111.100    527.184
   17     6    18     1    107.800    276.144
    8     7     9     1    109.100    644.336
    5     4    16     1    123.000    292.880
   14     3    15     1    107.800    276.144
   11     1    12     1    107.800    276.144
    3     2     4     1    111.100    527.184
    8     7    19     1    107.000    334.720
   13     3    14     1    107.800    276.144
    3     2     6     1    112.700    488.273
   10     1    12     1    107.800    276.144
   10     1    11     1    107.800    276.144
   13     3    15     1    107.800    276.144
    9     7    19     1    107.000    334.720

[ dihedrals ]
; IMPROPER DIHEDRAL ANGLES 
;  ai    aj    ak    al funct            c0            c1            c2            c3            c4            c5
    16     4     2     5    4        180.000     43.932     2  

[ dihedrals ]
; PROPER DIHEDRAL ANGLES
;  ai    aj    ak    al funct            c0            c1            c2            c3            c4            c5
    7    6    2    4        3      -4.960   6.286   1.310  -2.636  -0.000   0.000
    7    6    2    3        3       2.301  -1.464   0.837  -1.674  -0.000   0.000
    7    6    2    1        3       2.301  -1.464   0.837  -1.674  -0.000   0.000
    6    2    4    5        3       0.000   0.000   0.000  -0.000  -0.000   0.000
    9    7    6    2        3       0.000   0.000   0.000  -0.000  -0.000   0.000
    8    7    6    2        3       0.000   0.000   0.000  -0.000  -0.000   0.000
   16    4    2    1        3       0.000   0.000   0.000  -0.000  -0.000   0.000
   16    4    2    3        3       0.000   0.000   0.000  -0.000  -0.000   0.000
   16    4    2    6        3       0.000   0.000   0.000  -0.000  -0.000   0.000
   19    7    6    2        3       0.628   1.883   0.000  -2.510  -0.000   0.000
   19    7    6   17        3       0.628   1.883   0.000  -2.510  -0.000   0.000
   19    7    6   18        3       0.628   1.883   0.000  -2.510  -0.000   0.000
   17    6    7    9        3       0.753   2.259   0.000  -3.012  -0.000   0.000
   18    6    7    8        3       0.753   2.259   0.000  -3.012  -0.000   0.000
   18    6    7    9        3       0.753   2.259   0.000  -3.012  -0.000   0.000
   17    6    7    8        3       0.753   2.259   0.000  -3.012  -0.000   0.000
   14    3    2    4        3      -0.209  -0.628   0.000   0.837  -0.000   0.000
   15    3    2    4        3      -0.209  -0.628   0.000   0.837  -0.000   0.000
   10    1    2    4        3      -0.209  -0.628   0.000   0.837  -0.000   0.000
   18    6    2    4        3      -0.209  -0.628   0.000   0.837  -0.000   0.000
   12    1    2    4        3      -0.209  -0.628   0.000   0.837  -0.000   0.000
   17    6    2    4        3      -0.209  -0.628   0.000   0.837  -0.000   0.000
   11    1    2    4        3      -0.209  -0.628   0.000   0.837  -0.000   0.000
   13    3    2    4        3      -0.209  -0.628   0.000   0.837  -0.000   0.000
   10    1    2    3        3       0.628   1.883   0.000  -2.510  -0.000   0.000
   18    6    2    1        3       0.628   1.883   0.000  -2.510  -0.000   0.000
   12    1    2    6        3       0.628   1.883   0.000  -2.510  -0.000   0.000
   18    6    2    3        3       0.628   1.883   0.000  -2.510  -0.000   0.000
   10    1    2    6        3       0.628   1.883   0.000  -2.510  -0.000   0.000
   15    3    2    6        3       0.628   1.883   0.000  -2.510  -0.000   0.000
   14    3    2    1        3       0.628   1.883   0.000  -2.510  -0.000   0.000
   11    1    2    6        3       0.628   1.883   0.000  -2.510  -0.000   0.000
   11    1    2    3        3       0.628   1.883   0.000  -2.510  -0.000   0.000
   13    3    2    1        3       0.628   1.883   0.000  -2.510  -0.000   0.000
   17    6    2    3        3       0.628   1.883   0.000  -2.510  -0.000   0.000
   15    3    2    1        3       0.628   1.883   0.000  -2.510  -0.000   0.000
   14    3    2    6        3       0.628   1.883   0.000  -2.510  -0.000   0.000
   13    3    2    6        3       0.628   1.883   0.000  -2.510  -0.000   0.000
   17    6    2    1        3       0.628   1.883   0.000  -2.510  -0.000   0.000
   12    1    2    3        3       0.628   1.883   0.000  -2.510  -0.000   0.000
    5    4    2    1        3       0.000   0.000   0.000  -0.000  -0.000   0.000
    5    4    2    3        3       0.000   0.000   0.000  -0.000  -0.000   0.000

[ pairs ]
     1     5    1
     3     5    1
     1     7    1
     3     7    1
     2     8    1
     5     6    1
     4     7    1
     2     9    1
     3    10    1
     4    10    1
     3    11    1
     1    13    1
     4    11    1
     3    12    1
     1    14    1
     6    10    1
     4    12    1
     1    15    1
     6    11    1
     4    13    1
     1    16    1
     6    12    1
     4    14    1
     1    17    1
     6    13    1
     4    15    1
     3    16    1
     1    18    1
     6    14    1
     3    17    1
     6    15    1
     4    17    1
     3    18    1
     2    19    1
     6    16    1
     4    18    1
     8    17    1
     9    17    1
     8    18    1
     9    18    1
    17    19    1
    18    19    1

