LIGPARGEN GENERATED GRO FILE
   28
    1UNK    C00    1   0.100   0.100   0.000
    1UNK    C01    2  -0.052   0.100   0.000
    1UNK    O02    3  -0.095   0.100   0.137
    1UNK    C03    4  -0.111  -0.023   0.193
    1UNK    O04    5  -0.123  -0.128   0.132
    1UNK    C05    6  -0.104  -0.011   0.343
    1UNK    C06    7  -0.034  -0.133   0.405
    1UNK    C07    8   0.110  -0.150   0.356
    1UNK    C08    9  -0.032  -0.118   0.557
    1UNK    O09   10  -0.025  -0.007   0.610
    1UNK    C0A   11  -0.040  -0.246   0.638
    1UNK    C0B   12  -0.037  -0.220   0.787
    1UNK    H0C   13   0.140   0.100  -0.102
    1UNK    H0D   14   0.139   0.013   0.053
    1UNK    H0E   15   0.138   0.188   0.053
    1UNK    H0F   16  -0.092   0.015  -0.056
    1UNK    H0G   17  -0.090   0.192  -0.047
    1UNK    H0H   18  -0.206   0.001   0.381
    1UNK    H0I   19  -0.048   0.080   0.368
    1UNK    H0J   20  -0.092  -0.222   0.380
    1UNK    H0K   21   0.172  -0.064   0.384
    1UNK    H0M   22   0.115  -0.161   0.247
    1UNK    H0N   23   0.155  -0.239   0.400
    1UNK    H0O   24   0.046  -0.309   0.610
    1UNK    H0P   25  -0.132  -0.298   0.611
    1UNK    H0Q   26   0.056  -0.169   0.816
    1UNK    H0R   27  -0.043  -0.314   0.842
    1UNK    H0S   28  -0.121  -0.157   0.817
   1.00000   1.00000   1.00000

