
;
; GENERATED BY LigParGen Server
; Jorgensen Lab @ Yale University 
;
[ atomtypes ]
  opls_818  H818     1.0080     0.000    A    2.50000E-01   1.25520E-01
  opls_804  C804    12.0110     0.000    A    3.45000E-01   3.47272E-01
  opls_824  H824     1.0080     0.000    A    2.50000E-01   1.25520E-01
  opls_810  S810    32.0600     0.000    A    3.55000E-01   1.04600E+00
  opls_828  H828     1.0080     0.000    A    2.50000E-01   1.25520E-01
  opls_814  C814    12.0110     0.000    A    3.55000E-01   2.92880E-01
  opls_803  C803    12.0110     0.000    A    3.45000E-01   3.47272E-01
  opls_802  C802    12.0110     0.000    A    3.50000E-01   2.76144E-01
  opls_827  H827     1.0080     0.000    A    2.50000E-01   1.25520E-01
  opls_809  C809    12.0110     0.000    A    3.50000E-01   2.76144E-01
  opls_822  H822     1.0080     0.000    A    2.50000E-01   1.25520E-01
  opls_807  C807    12.0110     0.000    A    3.50000E-01   2.76144E-01
  opls_825  H825     1.0080     0.000    A    2.50000E-01   1.25520E-01
  opls_830  H830     1.0080     0.000    A    2.50000E-01   1.25520E-01
  opls_821  H821     1.0080     0.000    A    2.50000E-01   1.25520E-01
  opls_812  O812    15.9990     0.000    A    2.96000E-01   7.11280E-01
  opls_820  H820     1.0080     0.000    A    2.50000E-01   1.25520E-01
  opls_829  H829     1.0080     0.000    A    2.50000E-01   1.25520E-01
  opls_831  H831     1.0080     0.000    A    2.50000E-01   1.25520E-01
  opls_805  C805    12.0110     0.000    A    3.55000E-01   2.92880E-01
  opls_816  H816     1.0080     0.000    A    2.50000E-01   1.25520E-01
  opls_800  C800    12.0110     0.000    A    3.50000E-01   2.76144E-01
  opls_823  H823     1.0080     0.000    A    2.50000E-01   1.25520E-01
  opls_833  H833     1.0080     0.000    A    2.50000E-01   1.25520E-01
  opls_813  C813    12.0110     0.000    A    3.50000E-01   2.76144E-01
  opls_826  H826     1.0080     0.000    A    2.50000E-01   1.25520E-01
  opls_819  H819     1.0080     0.000    A    2.50000E-01   1.25520E-01
  opls_808  C808    12.0110     0.000    A    3.50000E-01   2.76144E-01
  opls_806  O806    15.9990     0.000    A    2.96000E-01   8.78640E-01
  opls_817  H817     1.0080     0.000    A    2.50000E-01   1.25520E-01
  opls_801  C801    12.0110     0.000    A    3.45000E-01   3.47272E-01
  opls_832  H832     1.0080     0.000    A    2.50000E-01   1.25520E-01
  opls_815  O815    15.9990     0.000    A    2.96000E-01   8.78640E-01
  opls_811  O811    15.9990     0.000    A    2.96000E-01   7.11280E-01
[ moleculetype ]
; Name               nrexcl
UNK                   3
[ atoms ]
;   nr       type  resnr residue  atom   cgnr     charge       mass  
     1   opls_800      1    UNK   C00      1    -0.2119    12.0110 
     2   opls_801      1    UNK   C01      1     -0.073    12.0110 
     3   opls_802      1    UNK   C02      1    -0.2066    12.0110 
     4   opls_803      1    UNK   C03      1    -0.2323    12.0110 
     5   opls_804      1    UNK   C04      1    -0.2113    12.0110 
     6   opls_805      1    UNK   C05      1     0.3567    12.0110 
     7   opls_806      1    UNK   O06      1    -0.4284    15.9990 
     8   opls_807      1    UNK   C07      1    -0.1135    12.0110 
     9   opls_808      1    UNK   C08      1    -0.1527    12.0110 
    10   opls_809      1    UNK   C09      1     -0.481    12.0110 
    11   opls_810      1    UNK   S0A      1     1.3043    32.0600 
    12   opls_811      1    UNK   O0B      1     -0.551    15.9990 
    13   opls_812      1    UNK   O0C      1     -0.551    15.9990 
    14   opls_813      1    UNK   C0D      1     -0.638    12.0110 
    15   opls_814      1    UNK   C0E      1      0.324    12.0110 
    16   opls_815      1    UNK   O0F      1    -0.4085    15.9990 
    17   opls_816      1    UNK   H0G      1     0.0944     1.0080 
    18   opls_817      1    UNK   H0H      1     0.0944     1.0080 
    19   opls_818      1    UNK   H0I      1     0.0944     1.0080 
    20   opls_819      1    UNK   H0J      1     0.0912     1.0080 
    21   opls_820      1    UNK   H0K      1     0.0912     1.0080 
    22   opls_821      1    UNK   H0M      1     0.0912     1.0080 
    23   opls_822      1    UNK   H0N      1     0.1298     1.0080 
    24   opls_823      1    UNK   H0O      1     0.1298     1.0080 
    25   opls_824      1    UNK   H0P      1     0.1222     1.0080 
    26   opls_825      1    UNK   H0Q      1     0.1096     1.0080 
    27   opls_826      1    UNK   H0R      1     0.1096     1.0080 
    28   opls_827      1    UNK   H0S      1     0.1124     1.0080 
    29   opls_828      1    UNK   H0T      1     0.1124     1.0080 
    30   opls_829      1    UNK   H0U      1     0.1651     1.0080 
    31   opls_830      1    UNK   H0V      1     0.1651     1.0080 
    32   opls_831      1    UNK   H0W      1     0.2033     1.0080 
    33   opls_832      1    UNK   H0X      2     0.2033     1.0080 
    34   opls_833      1    UNK   H0Y      2     0.1547     1.0080 
[ bonds ]
    2     1     1      0.1510 234304.000
    3     2     1      0.1510 234304.000
    4     2     1      0.1520 217568.000
    5     2     1      0.1520 217568.000
    6     5     1      0.1522 265265.600
    7     6     1      0.1229 476976.000
    8     5     1      0.1510 234304.000
    9     8     1      0.1529 224262.400
   10     9     1      0.1529 224262.400
   11    10     1      0.1770 284512.000
   12    11     1      0.1440 585760.000
   13    11     1      0.1440 585760.000
   14    11     1      0.1770 284512.000
   15    14     1      0.1522 265265.600
   16    15     1      0.1229 476976.000
   17     1     1      0.1090 284512.000
   18     1     1      0.1090 284512.000
   19     1     1      0.1090 284512.000
   20     3     1      0.1090 284512.000
   21     3     1      0.1090 284512.000
   22     3     1      0.1090 284512.000
   23     4     1      0.1088 284512.000
   24     4     1      0.1088 284512.000
   25     6     1      0.1090 284512.000
   26     8     1      0.1090 284512.000
   27     8     1      0.1090 284512.000
   28     9     1      0.1090 284512.000
   29     9     1      0.1090 284512.000
   30    10     1      0.1090 284512.000
   31    10     1      0.1090 284512.000
   32    14     1      0.1090 284512.000
   33    14     1      0.1090 284512.000
   34    15     1      0.1090 284512.000
    5     4     1      0.1520 217568.000

[ angles ]
;  ai    aj    ak funct            c0            c1            c2            c3 
    1     2     3     1    114.300    292.880
    1     2     4     1    117.200    313.800
    1     2     5     1    117.200    313.800
    2     5     6     1    111.100    527.184
    5     6     7     1    120.400    669.440
    2     5     8     1    117.200    313.800
    5     8     9     1    112.700    488.273
    8     9    10     1    112.700    488.273
    9    10    11     1    108.600    418.400
   10    11    12     1    108.900    619.232
   10    11    13     1    108.900    619.232
   10    11    14     1    102.000    518.816
   11    14    15     1    110.580    432.207
   14    15    16     1    120.400    669.440
    2     1    17     1    110.700    313.800
    2     1    18     1    110.700    313.800
    2     1    19     1    110.700    313.800
    2     3    20     1    110.700    313.800
    2     3    21     1    110.700    313.800
    2     3    22     1    110.700    313.800
    2     4    23     1    117.200    313.800
    2     4    24     1    117.200    313.800
    5     6    25     1    115.000    292.880
    5     8    26     1    110.700    313.800
    5     8    27     1    110.700    313.800
    8     9    28     1    110.700    313.800
    8     9    29     1    110.700    313.800
    9    10    30     1    110.700    313.800
    9    10    31     1    110.700    313.800
   11    14    32     1    109.500    292.880
   11    14    33     1    109.500    292.880
   14    15    34     1    115.000    292.880
    4     5     8     1    117.200    313.800
   23     4    24     1    114.300    292.880
   10     9    28     1    110.700    313.800
   26     8    27     1    107.800    276.144
   12    11    14     1    108.900    619.232
   21     3    22     1    107.800    276.144
   15    14    32     1    109.500    292.880
    4     5     6     1    111.100    527.184
   10     9    29     1    110.700    313.800
    7     6    25     1    123.000    292.880
    5     4    24     1    117.200    313.800
   20     3    22     1    107.800    276.144
   17     1    18     1    107.800    276.144
   15    14    33     1    109.500    292.880
   28     9    29     1    107.800    276.144
   11    10    31     1    109.500    292.880
    5     4    23     1    117.200    313.800
   18     1    19     1    107.800    276.144
   16    15    34     1    123.000    292.880
    9     8    27     1    110.700    313.800
   30    10    31     1    107.800    276.144
    3     2     4     1    117.200    313.800
    3     2     5     1    117.200    313.800
    4     2     5     1     83.000    251.040
    2     4     5     1     83.000    251.040
   17     1    19     1    107.800    276.144
   12    11    13     1    119.000    870.272
    2     5     4     1     83.000    251.040
    9     8    26     1    110.700    313.800
   13    11    14     1    108.900    619.232
   32    14    33     1    107.800    276.144
   20     3    21     1    107.800    276.144
   11    10    30     1    109.500    292.880
    6     5     8     1    111.100    527.184

[ dihedrals ]
; IMPROPER DIHEDRAL ANGLES 
;  ai    aj    ak    al funct            c0            c1            c2            c3            c4            c5
    34    15    14    16    4        180.000     43.932     2  
    25     6     5     7    4        180.000     43.932     2  

[ dihedrals ]
; PROPER DIHEDRAL ANGLES
;  ai    aj    ak    al funct            c0            c1            c2            c3            c4            c5
   15   14   11   10        3       0.000   0.000   0.000  -0.000  -0.000   0.000
   15   14   11   12        3       0.000   0.000   0.000  -0.000  -0.000   0.000
   15   14   11   13        3       0.000   0.000   0.000  -0.000  -0.000   0.000
    6    5    2    1        3       0.000   0.000   0.000  -0.000  -0.000   0.000
    6    5    2    3        3       0.000   0.000   0.000  -0.000  -0.000   0.000
    6    5    4    2        3       0.000   0.000   0.000  -0.000  -0.000   0.000
    6    5    2    4        3       0.000   0.000   0.000  -0.000  -0.000   0.000
   10    9    8    5        3       2.301  -1.464   0.837  -1.674  -0.000   0.000
    9    8    5    6        3      -4.960   6.286   1.310  -2.636  -0.000   0.000
    9    8    5    4        3       0.000   0.000   0.000  -0.000  -0.000   0.000
    9    8    5    2        3       0.000   0.000   0.000  -0.000  -0.000   0.000
    8    5    6    7        3       0.000   0.000   0.000  -0.000  -0.000   0.000
    8    5    2    3        3       0.000   0.000   0.000  -0.000  -0.000   0.000
    8    5    2    1        3       0.000   0.000   0.000  -0.000  -0.000   0.000
    8    5    4    2        3       0.000   0.000   0.000  -0.000  -0.000   0.000
    8    5    2    4        3       0.000   0.000   0.000  -0.000  -0.000   0.000
   14   11   10    9        3       0.000   0.000   0.000  -0.000  -0.000   0.000
   34   15   14   33        3       0.753   2.259   0.000  -3.012  -0.000   0.000
   34   15   14   32        3       0.753   2.259   0.000  -3.012  -0.000   0.000
   34   15   14   11        3       0.946   2.837   0.000  -3.782  -0.000   0.000
   25    6    5    8        3       0.000   0.000   0.000  -0.000  -0.000   0.000
   25    6    5    2        3       0.000   0.000   0.000  -0.000  -0.000   0.000
   25    6    5    4        3       0.000   0.000   0.000  -0.000  -0.000   0.000
   32   14   15   16        3       0.000   0.000   0.000  -0.000  -0.000   0.000
   33   14   15   16        3       0.000   0.000   0.000  -0.000  -0.000   0.000
   26    8    9   10        3       0.628   1.883   0.000  -2.510  -0.000   0.000
   30   10    9    8        3       0.628   1.883   0.000  -2.510  -0.000   0.000
   31   10    9    8        3       0.628   1.883   0.000  -2.510  -0.000   0.000
   27    8    9   10        3       0.628   1.883   0.000  -2.510  -0.000   0.000
   29    9    8    5        3       0.628   1.883   0.000  -2.510  -0.000   0.000
   28    9    8    5        3       0.628   1.883   0.000  -2.510  -0.000   0.000
   30   10    9   29        3       0.628   1.883   0.000  -2.510  -0.000   0.000
   31   10    9   28        3       0.628   1.883   0.000  -2.510  -0.000   0.000
   29    9    8   26        3       0.628   1.883   0.000  -2.510  -0.000   0.000
   28    9    8   27        3       0.628   1.883   0.000  -2.510  -0.000   0.000
   30   10    9   28        3       0.628   1.883   0.000  -2.510  -0.000   0.000
   31   10    9   29        3       0.628   1.883   0.000  -2.510  -0.000   0.000
   28    9    8   26        3       0.628   1.883   0.000  -2.510  -0.000   0.000
   29    9    8   27        3       0.628   1.883   0.000  -2.510  -0.000   0.000
   28    9   10   11        3       0.946   2.837   0.000  -3.782  -0.000   0.000
   29    9   10   11        3       0.946   2.837   0.000  -3.782  -0.000   0.000
   27    8    5    6        3       0.628   1.883   0.000  -2.510  -0.000   0.000
   26    8    5    6        3       0.628   1.883   0.000  -2.510  -0.000   0.000
   17    1    2    3        3       0.628   1.883   0.000  -2.510  -0.000   0.000
   21    3    2    1        3       0.628   1.883   0.000  -2.510  -0.000   0.000
   19    1    2    3        3       0.628   1.883   0.000  -2.510  -0.000   0.000
   18    1    2    3        3       0.628   1.883   0.000  -2.510  -0.000   0.000
   22    3    2    1        3       0.628   1.883   0.000  -2.510  -0.000   0.000
   20    3    2    1        3       0.628   1.883   0.000  -2.510  -0.000   0.000
   17    1    2    4        3       0.628   1.883   0.000  -2.510  -0.000   0.000
   27    8    5    2        3       0.628   1.883   0.000  -2.510  -0.000   0.000
   20    3    2    4        3       0.628   1.883   0.000  -2.510  -0.000   0.000
   26    8    5    4        3       0.628   1.883   0.000  -2.510  -0.000   0.000
   21    3    2    4        3       0.628   1.883   0.000  -2.510  -0.000   0.000
   20    3    2    5        3       0.628   1.883   0.000  -2.510  -0.000   0.000
   26    8    5    2        3       0.628   1.883   0.000  -2.510  -0.000   0.000
   19    1    2    5        3       0.628   1.883   0.000  -2.510  -0.000   0.000
   19    1    2    4        3       0.628   1.883   0.000  -2.510  -0.000   0.000
   18    1    2    5        3       0.628   1.883   0.000  -2.510  -0.000   0.000
   22    3    2    4        3       0.628   1.883   0.000  -2.510  -0.000   0.000
   18    1    2    4        3       0.628   1.883   0.000  -2.510  -0.000   0.000
   17    1    2    5        3       0.628   1.883   0.000  -2.510  -0.000   0.000
   27    8    5    4        3       0.628   1.883   0.000  -2.510  -0.000   0.000
   21    3    2    5        3       0.628   1.883   0.000  -2.510  -0.000   0.000
   22    3    2    5        3       0.628   1.883   0.000  -2.510  -0.000   0.000
   32   14   11   10        3       0.732   2.197   0.000  -2.929  -0.000   0.000
   30   10   11   14        3       0.732   2.197   0.000  -2.929  -0.000   0.000
   33   14   11   10        3       0.732   2.197   0.000  -2.929  -0.000   0.000
   31   10   11   14        3       0.732   2.197   0.000  -2.929  -0.000   0.000
   33   14   11   13        3       0.732   2.197   0.000  -2.929  -0.000   0.000
   31   10   11   13        3       0.732   2.197   0.000  -2.929  -0.000   0.000
   33   14   11   12        3       0.732   2.197   0.000  -2.929  -0.000   0.000
   30   10   11   13        3       0.732   2.197   0.000  -2.929  -0.000   0.000
   31   10   11   12        3       0.732   2.197   0.000  -2.929  -0.000   0.000
   32   14   11   12        3       0.732   2.197   0.000  -2.929  -0.000   0.000
   32   14   11   13        3       0.732   2.197   0.000  -2.929  -0.000   0.000
   30   10   11   12        3       0.732   2.197   0.000  -2.929  -0.000   0.000
   23    4    5    6        3       0.000   0.000   0.000  -0.000  -0.000   0.000
   24    4    5    6        3       0.000   0.000   0.000  -0.000  -0.000   0.000
   23    4    2    3        3       0.000   0.000   0.000  -0.000  -0.000   0.000
   24    4    5    8        3       0.000   0.000   0.000  -0.000  -0.000   0.000
   23    4    2    1        3       0.000   0.000   0.000  -0.000  -0.000   0.000
   24    4    2    1        3       0.000   0.000   0.000  -0.000  -0.000   0.000
   23    4    5    8        3       0.000   0.000   0.000  -0.000  -0.000   0.000
   24    4    2    3        3       0.000   0.000   0.000  -0.000  -0.000   0.000
   24    4    5    2        3       0.000   0.000   0.000  -0.000  -0.000   0.000
   23    4    5    2        3       0.000   0.000   0.000  -0.000  -0.000   0.000
   24    4    2    5        3       0.000   0.000   0.000  -0.000  -0.000   0.000
   23    4    2    5        3       0.000   0.000   0.000  -0.000  -0.000   0.000
   16   15   14   11        3       0.000   0.000   0.000  -0.000  -0.000   0.000
    7    6    5    4        3       0.000   0.000   0.000  -0.000  -0.000   0.000
    7    6    5    2        3       0.000   0.000   0.000  -0.000  -0.000   0.000
   13   11   10    9        3       0.000   0.000   0.000  -0.000  -0.000   0.000
   12   11   10    9        3       0.000   0.000   0.000  -0.000  -0.000   0.000
   11   10    9    8        3       2.784   0.278   0.828  -3.891  -0.000   0.000

[ pairs ]
     1     6    1
     3     6    1
     2     7    1
     1     8    1
     4     7    1
     3     8    1
     2     9    1
     4     9    1
     7     8    1
     6     9    1
     5    10    1
     8    11    1
     3    17    1
     9    12    1
     4    17    1
     3    18    1
     1    20    1
     9    13    1
     5    17    1
     4    18    1
     3    19    1
     1    21    1
     9    14    1
     5    18    1
     4    19    1
     1    22    1
     5    19    1
     4    20    1
     1    23    1
    10    15    1
     5    20    1
     4    21    1
     1    24    1
     5    21    1
     4    22    1
     3    23    1
    12    15    1
    11    16    1
     5    22    1
     3    24    1
     2    25    1
    13    15    1
     2    26    1
     6    23    1
     4    25    1
     2    27    1
     6    24    1
     4    26    1
     8    23    1
     4    27    1
     8    24    1
     6    26    1
     8    25    1
     6    27    1
     5    28    1
     5    29    1
    10    26    1
    10    27    1
     8    30    1
    11    28    1
     8    31    1
    11    29    1
    12    30    1
    10    32    1
    13    30    1
    12    31    1
    10    33    1
    14    30    1
    13    31    1
    12    32    1
    14    31    1
    13    32    1
    12    33    1
    11    34    1
    13    33    1
    16    32    1
    16    33    1
    26    28    1
    27    28    1
    26    29    1
    27    29    1
    28    30    1
    29    30    1
    28    31    1
    29    31    1
    32    34    1
    33    34    1

