LIGPARGEN GENERATED GRO FILE
   34
    1UNK    C00    1   0.100   0.100   0.000
    1UNK    C01    2  -0.051   0.100   0.000
    1UNK    C02    3  -0.110   0.100   0.139
    1UNK    C03    4  -0.122   0.183  -0.103
    1UNK    C04    5  -0.125   0.031  -0.118
    1UNK    C05    6  -0.043  -0.025  -0.231
    1UNK    O06    7   0.025  -0.126  -0.215
    1UNK    C07    8  -0.258  -0.041  -0.093
    1UNK    C08    9  -0.363   0.002  -0.196
    1UNK    C09   10  -0.497  -0.067  -0.176
    1UNK    S0A   11  -0.613  -0.010  -0.301
    1UNK    O0B   12  -0.629   0.134  -0.285
    1UNK    O0C   13  -0.572  -0.065  -0.429
    1UNK    C0D   14  -0.767  -0.083  -0.258
    1UNK    C0E   15  -0.754  -0.231  -0.265
    1UNK    O0F   16  -0.766  -0.302  -0.165
    1UNK    H0G   17   0.139   0.168   0.077
    1UNK    H0H   18   0.141   0.133  -0.096
    1UNK    H0I   19   0.138  -0.000   0.022
    1UNK    H0J   20  -0.061   0.176   0.201
    1UNK    H0K   21  -0.095   0.002   0.187
    1UNK    H0M   22  -0.217   0.124   0.140
    1UNK    H0N   23  -0.063   0.241  -0.173
    1UNK    H0O   24  -0.213   0.235  -0.074
    1UNK    H0P   25  -0.052   0.026  -0.328
    1UNK    H0Q   26  -0.297  -0.023   0.007
    1UNK    H0R   27  -0.241  -0.149  -0.101
    1UNK    H0S   28  -0.325  -0.018  -0.297
    1UNK    H0T   29  -0.377   0.111  -0.190
    1UNK    H0U   30  -0.540  -0.043  -0.079
    1UNK    H0V   31  -0.487  -0.175  -0.186
    1UNK    H0W   32  -0.842  -0.050  -0.331
    1UNK    H0X   33  -0.795  -0.050  -0.158
    1UNK    H0Y   34  -0.732  -0.275  -0.363
   1.00000   1.00000   1.00000

