LIGPARGEN GENERATED GRO FILE
   36
    1UNK    C00    1   0.100   0.100   0.000
    1UNK    C01    2  -0.052   0.100   0.000
    1UNK    O02    3  -0.103   0.100   0.134
    1UNK    C03    4  -0.101  -0.021   0.197
    1UNK    O04    5  -0.059  -0.125   0.146
    1UNK    C05    6  -0.156  -0.010   0.338
    1UNK    C06    7  -0.229  -0.143   0.367
    1UNK    C07    8  -0.046   0.029   0.444
    1UNK    C08    9  -0.108   0.029   0.586
    1UNK    C09   10   0.070  -0.072   0.442
    1UNK    C0A   11   0.009   0.173   0.414
    1UNK    C0B   12   0.113   0.226   0.513
    1UNK    C0C   13   0.161   0.365   0.478
    1UNK    O0D   14   0.125   0.432   0.382
    1UNK    C0E   15   0.264   0.425   0.572
    1UNK    O0F   16   0.304   0.363   0.669
    1UNK    H0G   17   0.139   0.100  -0.102
    1UNK    H0H   18   0.140   0.013   0.052
    1UNK    H0I   19   0.138   0.188   0.052
    1UNK    H0J   20  -0.092   0.015  -0.057
    1UNK    H0K   21  -0.088   0.191  -0.048
    1UNK    H0M   22  -0.234   0.068   0.337
    1UNK    H0N   23  -0.160  -0.228   0.370
    1UNK    H0O   24  -0.302  -0.164   0.289
    1UNK    H0P   25  -0.284  -0.140   0.462
    1UNK    H0Q   26  -0.150  -0.069   0.613
    1UNK    H0R   27  -0.188   0.103   0.594
    1UNK    H0S   28  -0.033   0.051   0.663
    1UNK    H0T   29   0.035  -0.175   0.458
    1UNK    H0U   30   0.143  -0.052   0.521
    1UNK    H0V   31   0.124  -0.069   0.346
    1UNK    H0W   32  -0.076   0.243   0.410
    1UNK    H0X   33   0.054   0.175   0.314
    1UNK    H0Y   34   0.200   0.161   0.514
    1UNK    H0Z   35   0.070   0.232   0.614
    1UNK    H10   36   0.298   0.525   0.544
   1.00000   1.00000   1.00000

