
;
; GENERATED BY LigParGen Server
; Jorgensen Lab @ Yale University 
;
[ atomtypes ]
  opls_818  H818     1.0080     0.000    A    2.50000E-01   1.25520E-01
  opls_808  C808    12.0110     0.000    A    3.50000E-01   2.76144E-01
  opls_824  H824     1.0080     0.000    A    2.50000E-01   1.25520E-01
  opls_805  C805    12.0110     0.000    A    3.50000E-01   2.76144E-01
  opls_804  O804    15.9990     0.000    A    2.96000E-01   8.78640E-01
  opls_834  H834     1.0080     0.000    A    2.50000E-01   1.25520E-01
  opls_828  H828     1.0080     0.000    A    2.50000E-01   1.25520E-01
  opls_814  C814    12.0110     0.000    A    3.55000E-01   2.92880E-01
  opls_835  H835     1.0080     0.000    A    2.50000E-01   1.25520E-01
  opls_832  H832     1.0080     0.000    A    2.50000E-01   1.25520E-01
  opls_806  C806    12.0110     0.000    A    3.50000E-01   2.76144E-01
  opls_827  H827     1.0080     0.000    A    2.50000E-01   1.25520E-01
  opls_809  C809    12.0110     0.000    A    3.50000E-01   2.76144E-01
  opls_822  H822     1.0080     0.000    A    2.50000E-01   1.25520E-01
  opls_807  C807    12.0110     0.000    A    3.50000E-01   2.76144E-01
  opls_825  H825     1.0080     0.000    A    2.50000E-01   1.25520E-01
  opls_830  H830     1.0080     0.000    A    2.50000E-01   1.25520E-01
  opls_821  H821     1.0080     0.000    A    2.50000E-01   1.25520E-01
  opls_820  H820     1.0080     0.000    A    2.50000E-01   1.25520E-01
  opls_812  C812    12.0110     0.000    A    3.55000E-01   2.92880E-01
  opls_829  H829     1.0080     0.000    A    2.50000E-01   1.25520E-01
  opls_831  H831     1.0080     0.000    A    2.50000E-01   1.25520E-01
  opls_816  H816     1.0080     0.000    A    2.50000E-01   1.25520E-01
  opls_800  C800    12.0110     0.000    A    3.50000E-01   2.76144E-01
  opls_811  C811    12.0110     0.000    A    3.50000E-01   2.76144E-01
  opls_823  H823     1.0080     0.000    A    2.50000E-01   1.25520E-01
  opls_826  H826     1.0080     0.000    A    2.50000E-01   1.25520E-01
  opls_813  O813    15.9990     0.000    A    2.96000E-01   8.78640E-01
  opls_819  H819     1.0080     0.000    A    2.50000E-01   1.25520E-01
  opls_810  C810    12.0110     0.000    A    3.50000E-01   2.76144E-01
  opls_833  H833     1.0080     0.000    A    2.50000E-01   1.25520E-01
  opls_802  O802    15.9990     0.000    A    2.90000E-01   5.85760E-01
  opls_801  C801    12.0110     0.000    A    3.50000E-01   2.76144E-01
  opls_803  C803    12.0110     0.000    A    3.55000E-01   2.92880E-01
  opls_815  O815    15.9990     0.000    A    2.96000E-01   8.78640E-01
  opls_817  H817     1.0080     0.000    A    2.50000E-01   1.25520E-01
[ moleculetype ]
; Name               nrexcl
UNK                   3
[ atoms ]
;   nr       type  resnr residue  atom   cgnr     charge       mass  
     1   opls_800      1    UNK   C00      1    -0.2785    12.0110 
     2   opls_801      1    UNK   C01      1     0.0051    12.0110 
     3   opls_802      1    UNK   O02      1    -0.3551    15.9990 
     4   opls_803      1    UNK   C03      1     0.4377    12.0110 
     5   opls_804      1    UNK   O04      1    -0.4519    15.9990 
     6   opls_805      1    UNK   C05      1    -0.1074    12.0110 
     7   opls_806      1    UNK   C06      1    -0.2355    12.0110 
     8   opls_807      1    UNK   C07      1    -0.0253    12.0110 
     9   opls_808      1    UNK   C08      1    -0.2363    12.0110 
    10   opls_809      1    UNK   C09      1    -0.2395    12.0110 
    11   opls_810      1    UNK   C0A      1    -0.1708    12.0110 
    12   opls_811      1    UNK   C0B      1    -0.2236    12.0110 
    13   opls_812      1    UNK   C0C      1     0.2941    12.0110 
    14   opls_813      1    UNK   O0D      1    -0.3993    15.9990 
    15   opls_814      1    UNK   C0E      1     0.2656    12.0110 
    16   opls_815      1    UNK   O0F      1    -0.3958    15.9990 
    17   opls_816      1    UNK   H0G      1     0.0993     1.0080 
    18   opls_817      1    UNK   H0H      1     0.0993     1.0080 
    19   opls_818      1    UNK   H0I      1     0.0993     1.0080 
    20   opls_819      1    UNK   H0J      1     0.1142     1.0080 
    21   opls_820      1    UNK   H0K      1     0.1142     1.0080 
    22   opls_821      1    UNK   H0M      1     0.1297     1.0080 
    23   opls_822      1    UNK   H0N      1     0.0964     1.0080 
    24   opls_823      1    UNK   H0O      1     0.0964     1.0080 
    25   opls_824      1    UNK   H0P      1     0.0964     1.0080 
    26   opls_825      1    UNK   H0Q      1     0.0872     1.0080 
    27   opls_826      1    UNK   H0R      1     0.0872     1.0080 
    28   opls_827      1    UNK   H0S      1     0.0872     1.0080 
    29   opls_828      1    UNK   H0T      1     0.0905     1.0080 
    30   opls_829      1    UNK   H0U      1     0.0905     1.0080 
    31   opls_830      1    UNK   H0V      1     0.0905     1.0080 
    32   opls_831      1    UNK   H0W      1     0.1096     1.0080 
    33   opls_832      1    UNK   H0X      2     0.1096     1.0080 
    34   opls_833      1    UNK   H0Y      2     0.1369     1.0080 
    35   opls_834      1    UNK   H0Z      2     0.1369     1.0080 
    36   opls_835      1    UNK   H10      2     0.1448     1.0080 
[ bonds ]
    2     1     1      0.1529 224262.400
    3     2     1      0.1410 267776.000
    4     3     1      0.1327 179075.200
    5     4     1      0.1229 476976.000
    6     4     1      0.1522 265265.600
    7     6     1      0.1529 224262.400
    8     6     1      0.1529 224262.400
    9     8     1      0.1529 224262.400
   10     8     1      0.1529 224262.400
   11     8     1      0.1529 224262.400
   12    11     1      0.1529 224262.400
   13    12     1      0.1522 265265.600
   14    13     1      0.1229 476976.000
   15    13     1      0.1510 292880.000
   16    15     1      0.1229 476976.000
   17     1     1      0.1090 284512.000
   18     1     1      0.1090 284512.000
   19     1     1      0.1090 284512.000
   20     2     1      0.1090 284512.000
   21     2     1      0.1090 284512.000
   22     6     1      0.1090 284512.000
   23     7     1      0.1090 284512.000
   24     7     1      0.1090 284512.000
   25     7     1      0.1090 284512.000
   26     9     1      0.1090 284512.000
   27     9     1      0.1090 284512.000
   28     9     1      0.1090 284512.000
   29    10     1      0.1090 284512.000
   30    10     1      0.1090 284512.000
   31    10     1      0.1090 284512.000
   32    11     1      0.1090 284512.000
   33    11     1      0.1090 284512.000
   34    12     1      0.1090 284512.000
   35    12     1      0.1090 284512.000
   36    15     1      0.1090 284512.000

[ angles ]
;  ai    aj    ak funct            c0            c1            c2            c3 
    1     2     3     1    109.500    418.400
    2     3     4     1    116.900    694.544
    3     4     5     1    123.400    694.544
    3     4     6     1    111.400    677.808
    4     6     7     1    111.100    527.184
    4     6     8     1    111.100    527.184
    6     8     9     1    112.700    488.273
    6     8    10     1    112.700    488.273
    6     8    11     1    112.700    488.273
    8    11    12     1    112.700    488.273
   11    12    13     1    111.100    527.184
   12    13    14     1    120.400    669.440
   12    13    15     1    117.200    669.440
   13    15    16     1    121.400    669.440
    2     1    17     1    110.700    313.800
    2     1    18     1    110.700    313.800
    2     1    19     1    110.700    313.800
    1     2    20     1    110.700    313.800
    1     2    21     1    110.700    313.800
    4     6    22     1    109.500    292.880
    6     7    23     1    110.700    313.800
    6     7    24     1    110.700    313.800
    6     7    25     1    110.700    313.800
    8     9    26     1    110.700    313.800
    8     9    27     1    110.700    313.800
    8     9    28     1    110.700    313.800
    8    10    29     1    110.700    313.800
    8    10    30     1    110.700    313.800
    8    10    31     1    110.700    313.800
    8    11    32     1    110.700    313.800
    8    11    33     1    110.700    313.800
   11    12    34     1    110.700    313.800
   11    12    35     1    110.700    313.800
   13    15    36     1    118.180    584.923
   23     7    24     1    107.800    276.144
    5     4     6     1    120.400    669.440
    3     2    20     1    109.500    292.880
   10     8    11     1    112.700    488.273
    9     8    10     1    112.700    488.273
   26     9    28     1    107.800    276.144
    3     2    21     1    109.500    292.880
    7     6    22     1    110.700    313.800
   29    10    30     1    107.800    276.144
   30    10    31     1    107.800    276.144
   24     7    25     1    107.800    276.144
   12    11    33     1    110.700    313.800
   26     9    27     1    107.800    276.144
   12    11    32     1    110.700    313.800
   14    13    15     1    121.400    669.440
   17     1    18     1    107.800    276.144
   32    11    33     1    107.800    276.144
   18     1    19     1    107.800    276.144
   23     7    25     1    107.800    276.144
   17     1    19     1    107.800    276.144
    7     6     8     1    112.700    488.273
   27     9    28     1    107.800    276.144
   20     2    21     1    107.800    276.144
    9     8    11     1    112.700    488.273
   13    12    35     1    109.500    292.880
    8     6    22     1    110.700    313.800
   34    12    35     1    107.800    276.144
   13    12    34     1    109.500    292.880
   16    15    36     1    123.000    292.880
   29    10    31     1    107.800    276.144

[ dihedrals ]
; IMPROPER DIHEDRAL ANGLES 
;  ai    aj    ak    al funct            c0            c1            c2            c3            c4            c5
    15    13    12    14    4        180.000     43.932     2  
     6     4     3     5    4        180.000     43.932     2  
    36    15    13    16    4        180.000     43.932     2  

[ dihedrals ]
; PROPER DIHEDRAL ANGLES
;  ai    aj    ak    al funct            c0            c1            c2            c3            c4            c5
   15   13   12   11        3       0.000   0.000   0.000  -0.000  -0.000   0.000
   13   12   11    8        3      -4.960   6.286   1.310  -2.636  -0.000   0.000
    4    3    2    1        3      -2.197   5.201   0.527  -3.531  -0.000   0.000
    6    4    3    2        3      31.206  -9.768  -21.439  -0.000  -0.000   0.000
    7    6    4    5        3       0.000   0.000   0.000  -0.000  -0.000   0.000
    8    6    4    5        3       0.000   0.000   0.000  -0.000  -0.000   0.000
    7    6    4    3        3      -1.157  -3.471   0.000   4.628  -0.000   0.000
    8    6    4    3        3      -1.157  -3.471   0.000   4.628  -0.000   0.000
   10    8    6    4        3      -4.960   6.286   1.310  -2.636  -0.000   0.000
    9    8    6    4        3      -4.960   6.286   1.310  -2.636  -0.000   0.000
   11    8    6    4        3      -4.960   6.286   1.310  -2.636  -0.000   0.000
   12   11    8   10        3       2.301  -1.464   0.837  -1.674  -0.000   0.000
   12   11    8    9        3       2.301  -1.464   0.837  -1.674  -0.000   0.000
    9    8    6    7        3       2.301  -1.464   0.837  -1.674  -0.000   0.000
   10    8    6    7        3       2.301  -1.464   0.837  -1.674  -0.000   0.000
   12   11    8    6        3       2.301  -1.464   0.837  -1.674  -0.000   0.000
   11    8    6    7        3       2.301  -1.464   0.837  -1.674  -0.000   0.000
   36   15   13   12        3      -1.506  -1.674   3.180  -0.000  -0.000   0.000
   36   15   13   14        3       0.000   0.000   0.000  -0.000  -0.000   0.000
   35   12   13   15        3       0.178   0.533   0.000  -0.711  -0.000   0.000
   34   12   13   15        3       0.178   0.533   0.000  -0.711  -0.000   0.000
   22    6    4    5        3       0.000   0.000   0.000  -0.000  -0.000   0.000
   35   12   13   14        3       0.000   0.000   0.000  -0.000  -0.000   0.000
   34   12   13   14        3       0.000   0.000   0.000  -0.000  -0.000   0.000
   22    6    4    3        3       0.276   0.828   0.000  -1.105  -0.000   0.000
   25    7    6    4        3      -0.209  -0.628   0.000   0.837  -0.000   0.000
   23    7    6    4        3      -0.209  -0.628   0.000   0.837  -0.000   0.000
   24    7    6    4        3      -0.209  -0.628   0.000   0.837  -0.000   0.000
   32   11   12   13        3      -0.209  -0.628   0.000   0.837  -0.000   0.000
   33   11   12   13        3      -0.209  -0.628   0.000   0.837  -0.000   0.000
   33   11    8   10        3       0.628   1.883   0.000  -2.510  -0.000   0.000
   27    9    8   10        3       0.628   1.883   0.000  -2.510  -0.000   0.000
   28    9    8   11        3       0.628   1.883   0.000  -2.510  -0.000   0.000
   31   10    8    6        3       0.628   1.883   0.000  -2.510  -0.000   0.000
   30   10    8    9        3       0.628   1.883   0.000  -2.510  -0.000   0.000
   31   10    8   11        3       0.628   1.883   0.000  -2.510  -0.000   0.000
   25    7    6    8        3       0.628   1.883   0.000  -2.510  -0.000   0.000
   22    6    8   10        3       0.628   1.883   0.000  -2.510  -0.000   0.000
   29   10    8   11        3       0.628   1.883   0.000  -2.510  -0.000   0.000
   26    9    8   10        3       0.628   1.883   0.000  -2.510  -0.000   0.000
   22    6    8   11        3       0.628   1.883   0.000  -2.510  -0.000   0.000
   30   10    8    6        3       0.628   1.883   0.000  -2.510  -0.000   0.000
   34   12   11    8        3       0.628   1.883   0.000  -2.510  -0.000   0.000
   32   11    8    9        3       0.628   1.883   0.000  -2.510  -0.000   0.000
   26    9    8   11        3       0.628   1.883   0.000  -2.510  -0.000   0.000
   28    9    8    6        3       0.628   1.883   0.000  -2.510  -0.000   0.000
   24    7    6    8        3       0.628   1.883   0.000  -2.510  -0.000   0.000
   26    9    8    6        3       0.628   1.883   0.000  -2.510  -0.000   0.000
   23    7    6    8        3       0.628   1.883   0.000  -2.510  -0.000   0.000
   32   11    8   10        3       0.628   1.883   0.000  -2.510  -0.000   0.000
   27    9    8   11        3       0.628   1.883   0.000  -2.510  -0.000   0.000
   31   10    8    9        3       0.628   1.883   0.000  -2.510  -0.000   0.000
   30   10    8   11        3       0.628   1.883   0.000  -2.510  -0.000   0.000
   32   11    8    6        3       0.628   1.883   0.000  -2.510  -0.000   0.000
   29   10    8    9        3       0.628   1.883   0.000  -2.510  -0.000   0.000
   27    9    8    6        3       0.628   1.883   0.000  -2.510  -0.000   0.000
   22    6    8    9        3       0.628   1.883   0.000  -2.510  -0.000   0.000
   35   12   11    8        3       0.628   1.883   0.000  -2.510  -0.000   0.000
   33   11    8    9        3       0.628   1.883   0.000  -2.510  -0.000   0.000
   33   11    8    6        3       0.628   1.883   0.000  -2.510  -0.000   0.000
   28    9    8   10        3       0.628   1.883   0.000  -2.510  -0.000   0.000
   29   10    8    6        3       0.628   1.883   0.000  -2.510  -0.000   0.000
   35   12   11   33        3       0.628   1.883   0.000  -2.510  -0.000   0.000
   34   12   11   33        3       0.628   1.883   0.000  -2.510  -0.000   0.000
   24    7    6   22        3       0.628   1.883   0.000  -2.510  -0.000   0.000
   35   12   11   32        3       0.628   1.883   0.000  -2.510  -0.000   0.000
   21    2    1   18        3       0.628   1.883   0.000  -2.510  -0.000   0.000
   21    2    1   17        3       0.628   1.883   0.000  -2.510  -0.000   0.000
   25    7    6   22        3       0.628   1.883   0.000  -2.510  -0.000   0.000
   34   12   11   32        3       0.628   1.883   0.000  -2.510  -0.000   0.000
   20    2    1   17        3       0.628   1.883   0.000  -2.510  -0.000   0.000
   20    2    1   18        3       0.628   1.883   0.000  -2.510  -0.000   0.000
   21    2    1   19        3       0.628   1.883   0.000  -2.510  -0.000   0.000
   20    2    1   19        3       0.628   1.883   0.000  -2.510  -0.000   0.000
   23    7    6   22        3       0.628   1.883   0.000  -2.510  -0.000   0.000
   19    1    2    3        3       0.979   2.937   0.000  -3.916  -0.000   0.000
   17    1    2    3        3       0.979   2.937   0.000  -3.916  -0.000   0.000
   18    1    2    3        3       0.979   2.937   0.000  -3.916  -0.000   0.000
   21    2    3    4        3       0.414   1.243   0.000  -1.657  -0.000   0.000
   20    2    3    4        3       0.414   1.243   0.000  -1.657  -0.000   0.000
   16   15   13   12        3       2.092   0.000  -2.092  -0.000  -0.000   0.000
   16   15   13   14        3      16.736  -3.347  -13.389  -0.000  -0.000   0.000
   14   13   12   11        3       0.000   0.000   0.000  -0.000  -0.000   0.000
    5    4    3    2        3      21.439   0.000  -21.439  -0.000  -0.000   0.000

[ pairs ]
     1     4    1
     2     5    1
     2     6    1
     3     7    1
     3     8    1
     5     7    1
     5     8    1
     4     9    1
     4    10    1
     4    11    1
     7     9    1
     7    10    1
     7    11    1
     6    12    1
     3    17    1
     9    12    1
     8    13    1
     3    18    1
    10    12    1
     3    19    1
     4    20    1
    11    14    1
     4    21    1
     3    22    1
    11    15    1
     5    22    1
     4    23    1
    12    16    1
     4    24    1
     4    25    1
    14    16    1
     9    22    1
     8    23    1
    10    22    1
     8    24    1
     6    26    1
    11    22    1
     8    25    1
     6    27    1
     6    28    1
     6    29    1
    10    26    1
     6    30    1
    17    20    1
    11    26    1
    10    27    1
     6    31    1
    18    20    1
    17    21    1
    11    27    1
    10    28    1
     9    29    1
     6    32    1
    19    20    1
    18    21    1
    11    28    1
     9    30    1
     6    33    1
    19    21    1
    11    29    1
     9    31    1
    11    30    1
     9    32    1
    11    31    1
    10    32    1
     9    33    1
     8    34    1
    10    33    1
     8    35    1
    22    23    1
    13    32    1
    22    24    1
    13    33    1
    22    25    1
    14    34    1
    12    36    1
    15    34    1
    14    35    1
    15    35    1
    14    36    1
    32    34    1
    33    34    1
    32    35    1
    33    35    1

