LIGPARGEN GENERATED GRO FILE
   31
    1UNK    C00    1   0.100   0.100   0.000
    1UNK    C01    2  -0.052   0.100   0.000
    1UNK    S02    3  -0.110   0.100   0.172
    1UNK    C03    4  -0.290   0.118   0.144
    1UNK    C04    5  -0.365   0.128   0.279
    1UNK    C05    6  -0.330   0.258   0.354
    1UNK    C06    7  -0.392   0.271   0.493
    1UNK    C07    8  -0.540   0.304   0.489
    1UNK    C08    9  -0.633   0.184   0.476
    1UNK    C09   10  -0.591   0.071   0.383
    1UNK    C0A   11  -0.517   0.113   0.256
    1UNK    H0B   12   0.138   0.095  -0.103
    1UNK    H0C   13   0.140   0.014   0.054
    1UNK    H0D   14   0.140   0.191   0.046
    1UNK    H0E   15  -0.089   0.011  -0.051
    1UNK    H0F   16  -0.089   0.189  -0.052
    1UNK    H0G   17  -0.323   0.030   0.089
    1UNK    H0H   18  -0.309   0.207   0.083
    1UNK    H0I   19  -0.332   0.043   0.341
    1UNK    H0J   20  -0.359   0.345   0.292
    1UNK    H0K   21  -0.222   0.265   0.367
    1UNK    H0M   22  -0.340   0.354   0.543
    1UNK    H0N   23  -0.372   0.181   0.552
    1UNK    H0O   24  -0.560   0.375   0.408
    1UNK    H0P   25  -0.566   0.357   0.582
    1UNK    H0Q   26  -0.731   0.222   0.445
    1UNK    H0R   27  -0.649   0.141   0.576
    1UNK    H0S   28  -0.682   0.017   0.355
    1UNK    H0T   29  -0.530  -0.001   0.439
    1UNK    H0U   30  -0.560   0.205   0.213
    1UNK    H0V   31  -0.533   0.034   0.182
   1.00000   1.00000   1.00000

