
;
; GENERATED BY LigParGen Server
; Jorgensen Lab @ Yale University 
;
[ atomtypes ]
  opls_818  H818     1.0080     0.000    A    2.50000E-01   1.25520E-01
  opls_808  C808    12.0110     0.000    A    3.50000E-01   2.76144E-01
  opls_811  C811    12.0110     0.000    A    3.30000E-01   2.76144E-01
  opls_824  H824     1.0080     0.000    A    2.50000E-01   1.25520E-01
  opls_804  O804    15.9990     0.000    A    2.96000E-01   8.78640E-01
  opls_813  H813     1.0080     0.000    A    2.50000E-01   1.25520E-01
  opls_802  C802    12.0110     0.000    A    3.50000E-01   2.76144E-01
  opls_815  H815     1.0080     0.000    A    2.50000E-01   1.25520E-01
  opls_809  C809    12.0110     0.000    A    3.50000E-01   2.76144E-01
  opls_822  H822     1.0080     0.000    A    2.50000E-01   1.25520E-01
  opls_807  C807    12.0110     0.000    A    3.50000E-01   2.76144E-01
  opls_825  H825     1.0080     0.000    A    2.50000E-01   1.25520E-01
  opls_814  H814     1.0080     0.000    A    2.50000E-01   1.25520E-01
  opls_821  H821     1.0080     0.000    A    2.50000E-01   1.25520E-01
  opls_820  H820     1.0080     0.000    A    2.50000E-01   1.25520E-01
  opls_805  C805    12.0110     0.000    A    3.55000E-01   2.92880E-01
  opls_812  N812    14.0070     0.000    A    3.20000E-01   7.11280E-01
  opls_816  H816     1.0080     0.000    A    2.50000E-01   1.25520E-01
  opls_800  C800    12.0110     0.000    A    3.50000E-01   2.76144E-01
  opls_823  H823     1.0080     0.000    A    2.50000E-01   1.25520E-01
  opls_826  H826     1.0080     0.000    A    2.50000E-01   1.25520E-01
  opls_819  H819     1.0080     0.000    A    2.50000E-01   1.25520E-01
  opls_810  C810    12.0110     0.000    A    3.50000E-01   2.76144E-01
  opls_827  H827     1.0080     0.000    A    2.50000E-01   1.25520E-01
  opls_801  C801    12.0110     0.000    A    3.50000E-01   2.76144E-01
  opls_803  C803    12.0110     0.000    A    3.55000E-01   2.92880E-01
  opls_806  O806    15.9990     0.000    A    2.96000E-01   8.78640E-01
  opls_817  H817     1.0080     0.000    A    2.50000E-01   1.25520E-01
[ moleculetype ]
; Name               nrexcl
UNK                   3
[ atoms ]
;   nr       type  resnr residue  atom   cgnr     charge       mass  
     1   opls_800      1    UNK   C00      1    -0.2299    12.0110 
     2   opls_801      1    UNK   C01      1    -0.1554    12.0110 
     3   opls_802      1    UNK   C02      1    -0.2357    12.0110 
     4   opls_803      1    UNK   C03      1     0.3348    12.0110 
     5   opls_804      1    UNK   O04      1    -0.4028    15.9990 
     6   opls_805      1    UNK   C05      1     0.3257    12.0110 
     7   opls_806      1    UNK   O06      1    -0.4117    15.9990 
     8   opls_807      1    UNK   C07      1    -0.0747    12.0110 
     9   opls_808      1    UNK   C08      1    -0.2403    12.0110 
    10   opls_809      1    UNK   C09      1      -0.24    12.0110 
    11   opls_810      1    UNK   C0A      1    -0.0305    12.0110 
    12   opls_811      1    UNK   C0B      1      0.131    12.0110 
    13   opls_812      1    UNK   N0C      1    -0.3922    14.0070 
    14   opls_813      1    UNK   H0D      1     0.0954     1.0080 
    15   opls_814      1    UNK   H0E      1     0.0954     1.0080 
    16   opls_815      1    UNK   H0F      1     0.0954     1.0080 
    17   opls_816      1    UNK   H0G      1     0.1412     1.0080 
    18   opls_817      1    UNK   H0H      1     0.0949     1.0080 
    19   opls_818      1    UNK   H0I      1     0.0949     1.0080 
    20   opls_819      1    UNK   H0J      1     0.0949     1.0080 
    21   opls_820      1    UNK   H0K      1     0.1048     1.0080 
    22   opls_821      1    UNK   H0M      1     0.1048     1.0080 
    23   opls_822      1    UNK   H0N      1     0.1048     1.0080 
    24   opls_823      1    UNK   H0O      1     0.1038     1.0080 
    25   opls_824      1    UNK   H0P      1     0.1038     1.0080 
    26   opls_825      1    UNK   H0Q      1     0.1038     1.0080 
    27   opls_826      1    UNK   H0R      1      0.142     1.0080 
    28   opls_827      1    UNK   H0S      1      0.142     1.0080 
[ bonds ]
    2     1     1      0.1529 224262.400
    3     2     1      0.1529 224262.400
    4     2     1      0.1522 265265.600
    5     4     1      0.1229 476976.000
    6     4     1      0.1510 292880.000
    7     6     1      0.1229 476976.000
    8     6     1      0.1522 265265.600
    9     8     1      0.1529 224262.400
   10     8     1      0.1529 224262.400
   11     8     1      0.1529 224262.400
   12    11     1      0.1470 326352.000
   13    12     1      0.1157 543920.000
   14     1     1      0.1090 284512.000
   15     1     1      0.1090 284512.000
   16     1     1      0.1090 284512.000
   17     2     1      0.1090 284512.000
   18     3     1      0.1090 284512.000
   19     3     1      0.1090 284512.000
   20     3     1      0.1090 284512.000
   21     9     1      0.1090 284512.000
   22     9     1      0.1090 284512.000
   23     9     1      0.1090 284512.000
   24    10     1      0.1090 284512.000
   25    10     1      0.1090 284512.000
   26    10     1      0.1090 284512.000
   27    11     1      0.1090 284512.000
   28    11     1      0.1090 284512.000

[ angles ]
;  ai    aj    ak funct            c0            c1            c2            c3 
    1     2     3     1    112.700    488.273
    1     2     4     1    111.100    527.184
    2     4     5     1    120.400    669.440
    2     4     6     1    117.200    669.440
    4     6     7     1    121.400    669.440
    4     6     8     1    117.200    669.440
    6     8     9     1    111.100    527.184
    6     8    10     1    111.100    527.184
    6     8    11     1    111.100    527.184
    8    11    12     1    112.700    488.273
   11    12    13     1    180.000   1255.200
    2     1    14     1    110.700    313.800
    2     1    15     1    110.700    313.800
    2     1    16     1    110.700    313.800
    1     2    17     1    110.700    313.800
    2     3    18     1    110.700    313.800
    2     3    19     1    110.700    313.800
    2     3    20     1    110.700    313.800
    8     9    21     1    110.700    313.800
    8     9    22     1    110.700    313.800
    8     9    23     1    110.700    313.800
    8    10    24     1    110.700    313.800
    8    10    25     1    110.700    313.800
    8    10    26     1    110.700    313.800
    8    11    27     1    110.700    313.800
    8    11    28     1    110.700    313.800
   21     9    23     1    107.800    276.144
    5     4     6     1    121.400    669.440
   10     8    11     1    112.700    488.273
   12    11    27     1    108.500    292.880
   24    10    25     1    107.800    276.144
    3     2    17     1    110.700    313.800
   24    10    26     1    107.800    276.144
    9     8    10     1    112.700    488.273
   22     9    23     1    107.800    276.144
   14     1    15     1    107.800    276.144
   21     9    22     1    107.800    276.144
   15     1    16     1    107.800    276.144
    3     2     4     1    111.100    527.184
    7     6     8     1    120.400    669.440
   18     3    20     1    107.800    276.144
    9     8    11     1    112.700    488.273
   27    11    28     1    107.800    276.144
   25    10    26     1    107.800    276.144
    4     2    17     1    109.500    292.880
   19     3    20     1    107.800    276.144
   14     1    16     1    107.800    276.144
   12    11    28     1    108.500    292.880
   18     3    19     1    107.800    276.144

[ dihedrals ]
; IMPROPER DIHEDRAL ANGLES 
;  ai    aj    ak    al funct            c0            c1            c2            c3            c4            c5
     6     4     2     5    4        180.000     43.932     2  
     8     6     4     7    4        180.000     43.932     2  

[ dihedrals ]
; PROPER DIHEDRAL ANGLES
;  ai    aj    ak    al funct            c0            c1            c2            c3            c4            c5
    6    4    2    3        3       0.000   0.000   0.000  -0.000  -0.000   0.000
    6    4    2    1        3       0.000   0.000   0.000  -0.000  -0.000   0.000
    8    6    4    2        3      -4.812  -1.464   6.276  -0.000  -0.000   0.000
    8    6    4    5        3       2.092   0.000  -2.092  -0.000  -0.000   0.000
    9    8    6    4        3       0.000   0.000   0.000  -0.000  -0.000   0.000
   11    8    6    4        3       0.000   0.000   0.000  -0.000  -0.000   0.000
   10    8    6    4        3       0.000   0.000   0.000  -0.000  -0.000   0.000
    9    8    6    7        3       0.000   0.000   0.000  -0.000  -0.000   0.000
   11    8    6    7        3       0.000   0.000   0.000  -0.000  -0.000   0.000
   10    8    6    7        3       0.000   0.000   0.000  -0.000  -0.000   0.000
   12   11    8    6        3      -4.960   6.286   1.310  -2.636  -0.000   0.000
   12   11    8    9        3      -2.720   0.000   2.720  -0.000  -0.000   0.000
   12   11    8   10        3      -2.720   0.000   2.720  -0.000  -0.000   0.000
   17    2    4    6        3       0.178   0.533   0.000  -0.711  -0.000   0.000
   17    2    4    5        3       0.000   0.000   0.000  -0.000  -0.000   0.000
   27   11    8    6        3      -0.209  -0.628   0.000   0.837  -0.000   0.000
   19    3    2    4        3      -0.209  -0.628   0.000   0.837  -0.000   0.000
   16    1    2    4        3      -0.209  -0.628   0.000   0.837  -0.000   0.000
   18    3    2    4        3      -0.209  -0.628   0.000   0.837  -0.000   0.000
   20    3    2    4        3      -0.209  -0.628   0.000   0.837  -0.000   0.000
   21    9    8    6        3      -0.209  -0.628   0.000   0.837  -0.000   0.000
   26   10    8    6        3      -0.209  -0.628   0.000   0.837  -0.000   0.000
   22    9    8    6        3      -0.209  -0.628   0.000   0.837  -0.000   0.000
   23    9    8    6        3      -0.209  -0.628   0.000   0.837  -0.000   0.000
   28   11    8    6        3      -0.209  -0.628   0.000   0.837  -0.000   0.000
   15    1    2    4        3      -0.209  -0.628   0.000   0.837  -0.000   0.000
   14    1    2    4        3      -0.209  -0.628   0.000   0.837  -0.000   0.000
   24   10    8    6        3      -0.209  -0.628   0.000   0.837  -0.000   0.000
   25   10    8    6        3      -0.209  -0.628   0.000   0.837  -0.000   0.000
   22    9    8   11        3       0.628   1.883   0.000  -2.510  -0.000   0.000
   16    1    2    3        3       0.628   1.883   0.000  -2.510  -0.000   0.000
   24   10    8   11        3       0.628   1.883   0.000  -2.510  -0.000   0.000
   28   11    8   10        3       0.628   1.883   0.000  -2.510  -0.000   0.000
   27   11    8    9        3       0.628   1.883   0.000  -2.510  -0.000   0.000
   14    1    2    3        3       0.628   1.883   0.000  -2.510  -0.000   0.000
   18    3    2    1        3       0.628   1.883   0.000  -2.510  -0.000   0.000
   23    9    8   11        3       0.628   1.883   0.000  -2.510  -0.000   0.000
   21    9    8   10        3       0.628   1.883   0.000  -2.510  -0.000   0.000
   28   11    8    9        3       0.628   1.883   0.000  -2.510  -0.000   0.000
   24   10    8    9        3       0.628   1.883   0.000  -2.510  -0.000   0.000
   25   10    8    9        3       0.628   1.883   0.000  -2.510  -0.000   0.000
   27   11    8   10        3       0.628   1.883   0.000  -2.510  -0.000   0.000
   23    9    8   10        3       0.628   1.883   0.000  -2.510  -0.000   0.000
   26   10    8   11        3       0.628   1.883   0.000  -2.510  -0.000   0.000
   22    9    8   10        3       0.628   1.883   0.000  -2.510  -0.000   0.000
   26   10    8    9        3       0.628   1.883   0.000  -2.510  -0.000   0.000
   20    3    2    1        3       0.628   1.883   0.000  -2.510  -0.000   0.000
   19    3    2    1        3       0.628   1.883   0.000  -2.510  -0.000   0.000
   21    9    8   11        3       0.628   1.883   0.000  -2.510  -0.000   0.000
   25   10    8   11        3       0.628   1.883   0.000  -2.510  -0.000   0.000
   15    1    2    3        3       0.628   1.883   0.000  -2.510  -0.000   0.000
   17    2    1   14        3       0.628   1.883   0.000  -2.510  -0.000   0.000
   17    2    1   15        3       0.628   1.883   0.000  -2.510  -0.000   0.000
   17    2    1   16        3       0.628   1.883   0.000  -2.510  -0.000   0.000
   18    3    2   17        3       0.628   1.883   0.000  -2.510  -0.000   0.000
   19    3    2   17        3       0.628   1.883   0.000  -2.510  -0.000   0.000
   20    3    2   17        3       0.628   1.883   0.000  -2.510  -0.000   0.000
   28   11   12   13        3       0.000   0.000   0.000  -0.000  -0.000   0.000
   27   11   12   13        3       0.000   0.000   0.000  -0.000  -0.000   0.000
   13   12   11    8        3       0.000   0.000   0.000  -0.000  -0.000   0.000
    7    6    4    2        3       2.092   0.000  -2.092  -0.000  -0.000   0.000
    7    6    4    5        3      16.736  -3.347  -13.389  -0.000  -0.000   0.000
    5    4    2    3        3       0.000   0.000   0.000  -0.000  -0.000   0.000
    5    4    2    1        3       0.000   0.000   0.000  -0.000  -0.000   0.000

[ pairs ]
     1     5    1
     1     6    1
     3     5    1
     3     6    1
     2     7    1
     2     8    1
     5     7    1
     5     8    1
     4     9    1
     4    10    1
     4    11    1
     7     9    1
     7    10    1
     3    14    1
     7    11    1
     6    12    1
     4    14    1
     3    15    1
     4    15    1
     3    16    1
     1    18    1
     4    16    1
     1    19    1
     9    12    1
     8    13    1
     1    20    1
    10    12    1
     5    17    1
     4    18    1
     6    17    1
     4    19    1
     4    20    1
     6    21    1
     6    22    1
     6    23    1
     6    24    1
    14    17    1
    10    21    1
     6    25    1
    15    17    1
    11    21    1
    10    22    1
     6    26    1
    16    17    1
    11    22    1
    10    23    1
     9    24    1
     6    27    1
    11    23    1
     9    25    1
     6    28    1
    17    18    1
    11    24    1
     9    26    1
    17    19    1
    11    25    1
     9    27    1
    17    20    1
    11    26    1
    10    27    1
     9    28    1
    10    28    1
    13    27    1
    13    28    1

