LIGPARGEN GENERATED GRO FILE
   38
    1UNK    C00    1   0.100   0.100   0.000
    1UNK    C01    2  -0.053   0.100   0.000
    1UNK    C02    3  -0.116   0.100   0.141
    1UNK    C03    4  -0.077   0.223   0.228
    1UNK    C04    5  -0.158   0.354   0.209
    1UNK    C05    6  -0.119   0.429   0.080
    1UNK    C06    7  -0.137   0.448   0.331
    1UNK    C07    8   0.007   0.495   0.355
    1UNK    C08    9  -0.307   0.319   0.200
    1UNK    O09   10  -0.394   0.385   0.257
    1UNK    C0A   11  -0.346   0.206   0.107
    1UNK    C0B   12  -0.272   0.077   0.141
    1UNK    C0C   13  -0.315  -0.031   0.039
    1UNK    C0D   14  -0.317   0.026   0.281
    1UNK    H0E   15   0.137   0.075  -0.100
    1UNK    H0F   16   0.140   0.025   0.069
    1UNK    H0G   17   0.141   0.198   0.027
    1UNK    H0H   18  -0.081   0.008  -0.052
    1UNK    H0I   19  -0.089   0.183  -0.061
    1UNK    H0J   20  -0.071   0.013   0.191
    1UNK    H0K   21   0.030   0.244   0.217
    1UNK    H0M   22  -0.088   0.192   0.333
    1UNK    H0N   23  -0.011   0.443   0.073
    1UNK    H0O   24  -0.166   0.528   0.078
    1UNK    H0P   25  -0.151   0.377  -0.010
    1UNK    H0Q   26  -0.173   0.399   0.422
    1UNK    H0R   27  -0.199   0.538   0.319
    1UNK    H0S   28   0.073   0.411   0.378
    1UNK    H0T   29   0.009   0.562   0.442
    1UNK    H0U   30   0.046   0.550   0.270
    1UNK    H0V   31  -0.327   0.238   0.004
    1UNK    H0W   32  -0.455   0.191   0.116
    1UNK    H0X   33  -0.302   0.004  -0.064
    1UNK    H0Y   34  -0.420  -0.057   0.051
    1UNK    H0Z   35  -0.256  -0.123   0.052
    1UNK    H10   36  -0.294   0.098   0.360
    1UNK    H11   37  -0.266  -0.068   0.306
    1UNK    H12   38  -0.425   0.008   0.282
   1.00000   1.00000   1.00000

