LIGPARGEN GENERATED GRO FILE
   32
    1UNK    C00    1   0.100   0.100   0.000
    1UNK    O01    2  -0.043   0.100   0.000
    1UNK    C02    3  -0.099   0.100   0.123
    1UNK    O03    4  -0.039   0.092   0.229
    1UNK    O04    5  -0.232   0.116   0.107
    1UNK    C05    6  -0.311   0.135   0.226
    1UNK    C06    7  -0.285   0.278   0.283
    1UNK    C07    8  -0.331   0.396   0.195
    1UNK    C08    9  -0.314   0.528   0.272
    1UNK    C09   10  -0.256   0.408   0.062
    1UNK    N0A   11  -0.454   0.111   0.194
    1UNK    C0B   12  -0.472  -0.023   0.137
    1UNK    C0C   13  -0.541   0.126   0.311
    1UNK    H0D   14   0.133   0.084  -0.103
    1UNK    H0E   15   0.140   0.020   0.062
    1UNK    H0F   16   0.137   0.198   0.033
    1UNK    H0G   17  -0.279   0.061   0.301
    1UNK    H0H   18  -0.177   0.290   0.302
    1UNK    H0I   19  -0.332   0.285   0.381
    1UNK    H0J   20  -0.438   0.385   0.173
    1UNK    H0K   21  -0.209   0.558   0.277
    1UNK    H0M   22  -0.351   0.519   0.375
    1UNK    H0N   23  -0.370   0.608   0.223
    1UNK    H0O   24  -0.147   0.413   0.079
    1UNK    H0P   25  -0.286   0.498   0.008
    1UNK    H0Q   26  -0.276   0.323  -0.004
    1UNK    H0R   27  -0.415  -0.035   0.044
    1UNK    H0S   28  -0.577  -0.039   0.109
    1UNK    H0T   29  -0.442  -0.102   0.206
    1UNK    H0U   30  -0.544   0.229   0.346
    1UNK    H0V   31  -0.511   0.060   0.393
    1UNK    H0W   32  -0.645   0.101   0.284
   1.00000   1.00000   1.00000

