LIGPARGEN GENERATED GRO FILE
   50
    1UNK    C00    1   0.100   0.100   0.000
    1UNK    C01    2  -0.052   0.100   0.000
    1UNK    C02    3  -0.106   0.100   0.143
    1UNK    C03    4  -0.259   0.100   0.145
    1UNK    C04    5  -0.310   0.106   0.289
    1UNK    C05    6  -0.462   0.118   0.292
    1UNK    C06    7  -0.531   0.116   0.431
    1UNK    C07    8  -0.498   0.240   0.520
    1UNK    C08    9  -0.354   0.257   0.564
    1UNK    C09   10  -0.688   0.102   0.415
    1UNK    C0A   11  -0.746   0.219   0.330
    1UNK    C0B   12  -0.898   0.228   0.321
    1UNK    C0C   13  -0.733  -0.033   0.353
    1UNK    C0D   14  -0.688  -0.163   0.421
    1UNK    C0E   15  -0.744  -0.176   0.563
    1UNK    C0F   16  -0.738  -0.282   0.336
    1UNK    H0G   17   0.138   0.100  -0.102
    1UNK    H0H   18   0.139   0.011   0.051
    1UNK    H0I   19   0.139   0.189   0.051
    1UNK    H0J   20  -0.088   0.012  -0.054
    1UNK    H0K   21  -0.088   0.188  -0.054
    1UNK    H0M   22  -0.068   0.189   0.196
    1UNK    H0N   23  -0.068   0.012   0.197
    1UNK    H0O   24  -0.297   0.010   0.096
    1UNK    H0P   25  -0.296   0.186   0.089
    1UNK    H0Q   26  -0.264   0.194   0.335
    1UNK    H0R   27  -0.277   0.018   0.345
    1UNK    H0S   28  -0.500   0.033   0.233
    1UNK    H0T   29  -0.490   0.209   0.238
    1UNK    H0U   30  -0.494   0.028   0.486
    1UNK    H0V   31  -0.559   0.232   0.611
    1UNK    H0W   32  -0.529   0.333   0.470
    1UNK    H0X   33  -0.303   0.162   0.580
    1UNK    H0Y   34  -0.350   0.314   0.658
    1UNK    H0Z   35  -0.297   0.317   0.492
    1UNK    H10   36  -0.732   0.109   0.516
    1UNK    H11   37  -0.708   0.211   0.227
    1UNK    H12   38  -0.712   0.316   0.369
    1UNK    H13   39  -0.947   0.133   0.303
    1UNK    H14   40  -0.926   0.294   0.237
    1UNK    H15   41  -0.940   0.272   0.412
    1UNK    H16   42  -0.701  -0.035   0.248
    1UNK    H17   43  -0.842  -0.035   0.350
    1UNK    H18   44  -0.579  -0.169   0.425
    1UNK    H19   45  -0.849  -0.146   0.568
    1UNK    H1A   46  -0.688  -0.112   0.632
    1UNK    H1B   47  -0.737  -0.279   0.600
    1UNK    H1C   48  -0.847  -0.282   0.328
    1UNK    H1D   49  -0.707  -0.377   0.380
    1UNK    H1E   50  -0.696  -0.277   0.235
   1.00000   1.00000   1.00000

