LIGPARGEN GENERATED GRO FILE
   47
    1UNK    C00    1   0.100   0.100   0.000
    1UNK    C01    2  -0.054   0.100   0.000
    1UNK    C02    3  -0.098   0.100   0.147
    1UNK    C03    4  -0.113   0.217  -0.089
    1UNK    C04    5  -0.053   0.205  -0.234
    1UNK    C05    6  -0.094   0.306  -0.341
    1UNK    C06    7  -0.057   0.449  -0.303
    1UNK    N07    8  -0.026   0.567  -0.272
    1UNK    C08    9  -0.269   0.218  -0.098
    1UNK    C09   10  -0.351   0.255   0.028
    1UNK    C0A   11  -0.315   0.394   0.084
    1UNK    C0B   12  -0.433   0.483   0.126
    1UNK    C0C   13  -0.476   0.574   0.010
    1UNK    C0D   14  -0.620   0.554  -0.037
    1UNK    C0E   15  -0.663   0.408  -0.046
    1UNK    C0F   16  -0.604   0.317   0.064
    1UNK    C0G   17  -0.547   0.398   0.179
    1UNK    C0H   18  -0.500   0.222   0.005
    1UNK    H0I   19   0.140   0.034   0.078
    1UNK    H0J   20   0.139   0.201   0.017
    1UNK    H0K   21   0.139   0.062  -0.095
    1UNK    H0M   22  -0.086   0.004  -0.043
    1UNK    H0N   23  -0.100   0.201   0.189
    1UNK    H0O   24  -0.031   0.039   0.209
    1UNK    H0P   25  -0.196   0.052   0.158
    1UNK    H0Q   26  -0.079   0.312  -0.047
    1UNK    H0R   27  -0.077   0.105  -0.273
    1UNK    H0S   28   0.056   0.210  -0.228
    1UNK    H0T   29  -0.201   0.301  -0.362
    1UNK    H0U   30  -0.043   0.282  -0.434
    1UNK    H0V   31  -0.301   0.120  -0.134
    1UNK    H0W   32  -0.300   0.290  -0.175
    1UNK    H0X   33  -0.324   0.186   0.108
    1UNK    H0Y   34  -0.249   0.449   0.016
    1UNK    H0Z   35  -0.254   0.378   0.174
    1UNK    H10   36  -0.397   0.548   0.207
    1UNK    H11   37  -0.409   0.563  -0.076
    1UNK    H12   38  -0.465   0.679   0.042
    1UNK    H13   39  -0.633   0.602  -0.135
    1UNK    H14   40  -0.687   0.607   0.031
    1UNK    H15   41  -0.640   0.369  -0.146
    1UNK    H16   42  -0.772   0.406  -0.038
    1UNK    H17   43  -0.687   0.255   0.102
    1UNK    H18   44  -0.512   0.331   0.259
    1UNK    H19   45  -0.625   0.461   0.224
    1UNK    H1A   46  -0.520   0.202  -0.101
    1UNK    H1B   47  -0.517   0.124   0.053
   1.00000   1.00000   1.00000

