
;
; GENERATED BY LigParGen Server
; Jorgensen Lab @ Yale University 
;
[ atomtypes ]
  opls_818  H818     1.0080     0.000    A    2.50000E-01   1.25520E-01
  opls_814  C814    12.0110     0.000    A    3.50000E-01   2.76144E-01
  opls_806  C806    12.0110     0.000    A    3.30000E-01   2.76144E-01
  opls_824  H824     1.0080     0.000    A    2.50000E-01   1.25520E-01
  opls_811  C811    12.0110     0.000    A    3.50000E-01   2.76144E-01
  opls_805  C805    12.0110     0.000    A    3.50000E-01   2.76144E-01
  opls_843  H843     1.0080     0.000    A    2.50000E-01   1.25520E-01
  opls_836  H836     1.0080     0.000    A    2.50000E-01   1.25520E-01
  opls_834  H834     1.0080     0.000    A    2.50000E-01   1.25520E-01
  opls_810  C810    12.0110     0.000    A    3.50000E-01   2.76144E-01
  opls_828  H828     1.0080     0.000    A    2.50000E-01   1.25520E-01
  opls_812  C812    12.0110     0.000    A    3.50000E-01   2.76144E-01
  opls_802  C802    12.0110     0.000    A    3.50000E-01   2.76144E-01
  opls_827  H827     1.0080     0.000    A    2.50000E-01   1.25520E-01
  opls_809  C809    12.0110     0.000    A    3.50000E-01   2.76144E-01
  opls_838  H838     1.0080     0.000    A    2.50000E-01   1.25520E-01
  opls_822  H822     1.0080     0.000    A    2.50000E-01   1.25520E-01
  opls_803  C803    12.0110     0.000    A    3.50000E-01   2.76144E-01
  opls_807  N807    14.0070     0.000    A    3.20000E-01   7.11280E-01
  opls_825  H825     1.0080     0.000    A    2.50000E-01   1.25520E-01
  opls_830  H830     1.0080     0.000    A    2.50000E-01   1.25520E-01
  opls_821  H821     1.0080     0.000    A    2.50000E-01   1.25520E-01
  opls_842  H842     1.0080     0.000    A    2.50000E-01   1.25520E-01
  opls_820  H820     1.0080     0.000    A    2.50000E-01   1.25520E-01
  opls_837  H837     1.0080     0.000    A    2.50000E-01   1.25520E-01
  opls_829  H829     1.0080     0.000    A    2.50000E-01   1.25520E-01
  opls_831  H831     1.0080     0.000    A    2.50000E-01   1.25520E-01
  opls_832  H832     1.0080     0.000    A    2.50000E-01   1.25520E-01
  opls_800  C800    12.0110     0.000    A    3.50000E-01   2.76144E-01
  opls_846  H846     1.0080     0.000    A    2.50000E-01   1.25520E-01
  opls_816  C816    12.0110     0.000    A    3.50000E-01   2.76144E-01
  opls_815  C815    12.0110     0.000    A    3.50000E-01   2.76144E-01
  opls_823  H823     1.0080     0.000    A    2.50000E-01   1.25520E-01
  opls_813  C813    12.0110     0.000    A    3.50000E-01   2.76144E-01
  opls_826  H826     1.0080     0.000    A    2.50000E-01   1.25520E-01
  opls_835  H835     1.0080     0.000    A    2.50000E-01   1.25520E-01
  opls_841  H841     1.0080     0.000    A    2.50000E-01   1.25520E-01
  opls_819  H819     1.0080     0.000    A    2.50000E-01   1.25520E-01
  opls_804  C804    12.0110     0.000    A    3.50000E-01   2.76144E-01
  opls_833  H833     1.0080     0.000    A    2.50000E-01   1.25520E-01
  opls_839  H839     1.0080     0.000    A    2.50000E-01   1.25520E-01
  opls_817  C817    12.0110     0.000    A    3.50000E-01   2.76144E-01
  opls_801  C801    12.0110     0.000    A    3.50000E-01   2.76144E-01
  opls_808  C808    12.0110     0.000    A    3.50000E-01   2.76144E-01
  opls_840  H840     1.0080     0.000    A    2.50000E-01   1.25520E-01
  opls_844  H844     1.0080     0.000    A    2.50000E-01   1.25520E-01
  opls_845  H845     1.0080     0.000    A    2.50000E-01   1.25520E-01
[ moleculetype ]
; Name               nrexcl
UNK                   3
[ atoms ]
;   nr       type  resnr residue  atom   cgnr     charge       mass  
     1   opls_800      1    UNK   C00      1    -0.2413    12.0110 
     2   opls_801      1    UNK   C01      1    -0.1095    12.0110 
     3   opls_802      1    UNK   C02      1    -0.2344    12.0110 
     4   opls_803      1    UNK   C03      1    -0.0945    12.0110 
     5   opls_804      1    UNK   C04      1    -0.1799    12.0110 
     6   opls_805      1    UNK   C05      1    -0.0386    12.0110 
     7   opls_806      1    UNK   C06      1     0.1328    12.0110 
     8   opls_807      1    UNK   N07      1    -0.3977    14.0070 
     9   opls_808      1    UNK   C08      1    -0.1677    12.0110 
    10   opls_809      1    UNK   C09      1    -0.1042    12.0110 
    11   opls_810      1    UNK   C0A      1    -0.1621    12.0110 
    12   opls_811      1    UNK   C0B      1    -0.1028    12.0110 
    13   opls_812      1    UNK   C0C      1    -0.1676    12.0110 
    14   opls_813      1    UNK   C0D      1    -0.1697    12.0110 
    15   opls_814      1    UNK   C0E      1    -0.1678    12.0110 
    16   opls_815      1    UNK   C0F      1    -0.0999    12.0110 
    17   opls_816      1    UNK   C0G      1    -0.1577    12.0110 
    18   opls_817      1    UNK   C0H      1    -0.1614    12.0110 
    19   opls_818      1    UNK   H0I      1     0.0826     1.0080 
    20   opls_819      1    UNK   H0J      1     0.0826     1.0080 
    21   opls_820      1    UNK   H0K      1     0.0826     1.0080 
    22   opls_821      1    UNK   H0M      1     0.0915     1.0080 
    23   opls_822      1    UNK   H0N      1     0.0838     1.0080 
    24   opls_823      1    UNK   H0O      1     0.0838     1.0080 
    25   opls_824      1    UNK   H0P      1     0.0838     1.0080 
    26   opls_825      1    UNK   H0Q      1     0.1088     1.0080 
    27   opls_826      1    UNK   H0R      1     0.1008     1.0080 
    28   opls_827      1    UNK   H0S      1     0.1008     1.0080 
    29   opls_828      1    UNK   H0T      1     0.1259     1.0080 
    30   opls_829      1    UNK   H0U      1     0.1259     1.0080 
    31   opls_830      1    UNK   H0V      1     0.0861     1.0080 
    32   opls_831      1    UNK   H0W      1     0.0861     1.0080 
    33   opls_832      1    UNK   H0X      2     0.0883     1.0080 
    34   opls_833      1    UNK   H0Y      2     0.0865     1.0080 
    35   opls_834      1    UNK   H0Z      2     0.0865     1.0080 
    36   opls_835      1    UNK   H10      2     0.0933     1.0080 
    37   opls_836      1    UNK   H11      2     0.0875     1.0080 
    38   opls_837      1    UNK   H12      2     0.0875     1.0080 
    39   opls_838      1    UNK   H13      2     0.0842     1.0080 
    40   opls_839      1    UNK   H14      2     0.0842     1.0080 
    41   opls_840      1    UNK   H15      2     0.0829     1.0080 
    42   opls_841      1    UNK   H16      2     0.0829     1.0080 
    43   opls_842      1    UNK   H17      2     0.0908     1.0080 
    44   opls_843      1    UNK   H18      2     0.0919     1.0080 
    45   opls_844      1    UNK   H19      2     0.0919     1.0080 
    46   opls_845      1    UNK   H1A      2     0.0803     1.0080 
    47   opls_846      1    UNK   H1B      2     0.0803     1.0080 
[ bonds ]
    2     1     1      0.1529 224262.400
    3     2     1      0.1529 224262.400
    4     2     1      0.1529 224262.400
    5     4     1      0.1529 224262.400
    6     5     1      0.1529 224262.400
    7     6     1      0.1470 326352.000
    8     7     1      0.1157 543920.000
    9     4     1      0.1529 224262.400
   10     9     1      0.1529 224262.400
   11    10     1      0.1529 224262.400
   12    11     1      0.1529 224262.400
   13    12     1      0.1529 224262.400
   14    13     1      0.1529 224262.400
   15    14     1      0.1529 224262.400
   16    15     1      0.1529 224262.400
   17    12     1      0.1529 224262.400
   18    10     1      0.1529 224262.400
   19     1     1      0.1090 284512.000
   20     1     1      0.1090 284512.000
   21     1     1      0.1090 284512.000
   22     2     1      0.1090 284512.000
   23     3     1      0.1090 284512.000
   24     3     1      0.1090 284512.000
   25     3     1      0.1090 284512.000
   26     4     1      0.1090 284512.000
   27     5     1      0.1090 284512.000
   28     5     1      0.1090 284512.000
   29     6     1      0.1090 284512.000
   30     6     1      0.1090 284512.000
   31     9     1      0.1090 284512.000
   32     9     1      0.1090 284512.000
   33    10     1      0.1090 284512.000
   34    11     1      0.1090 284512.000
   35    11     1      0.1090 284512.000
   36    12     1      0.1090 284512.000
   37    13     1      0.1090 284512.000
   38    13     1      0.1090 284512.000
   39    14     1      0.1090 284512.000
   40    14     1      0.1090 284512.000
   41    15     1      0.1090 284512.000
   42    15     1      0.1090 284512.000
   43    16     1      0.1090 284512.000
   44    17     1      0.1090 284512.000
   45    17     1      0.1090 284512.000
   46    18     1      0.1090 284512.000
   47    18     1      0.1090 284512.000
   17    16     1      0.1529 224262.400
   18    16     1      0.1529 224262.400

[ angles ]
;  ai    aj    ak funct            c0            c1            c2            c3 
    1     2     3     1    112.700    488.273
    1     2     4     1    112.700    488.273
    2     4     5     1    112.700    488.273
    4     5     6     1    112.700    488.273
    5     6     7     1    112.700    488.273
    6     7     8     1    180.000   1255.200
    2     4     9     1    112.700    488.273
    4     9    10     1    112.700    488.273
    9    10    11     1    112.700    488.273
   10    11    12     1    112.700    488.273
   11    12    13     1    112.700    488.273
   12    13    14     1    112.700    488.273
   13    14    15     1    112.700    488.273
   14    15    16     1    112.700    488.273
   11    12    17     1    112.700    488.273
    9    10    18     1    112.700    488.273
    2     1    19     1    110.700    313.800
    2     1    20     1    110.700    313.800
    2     1    21     1    110.700    313.800
    1     2    22     1    110.700    313.800
    2     3    23     1    110.700    313.800
    2     3    24     1    110.700    313.800
    2     3    25     1    110.700    313.800
    2     4    26     1    110.700    313.800
    4     5    27     1    110.700    313.800
    4     5    28     1    110.700    313.800
    5     6    29     1    110.700    313.800
    5     6    30     1    110.700    313.800
    4     9    31     1    110.700    313.800
    4     9    32     1    110.700    313.800
    9    10    33     1    110.700    313.800
   10    11    34     1    110.700    313.800
   10    11    35     1    110.700    313.800
   11    12    36     1    110.700    313.800
   12    13    37     1    110.700    313.800
   12    13    38     1    110.700    313.800
   13    14    39     1    110.700    313.800
   13    14    40     1    110.700    313.800
   14    15    41     1    110.700    313.800
   14    15    42     1    110.700    313.800
   15    16    43     1    110.700    313.800
   12    17    44     1    110.700    313.800
   12    17    45     1    110.700    313.800
   10    18    46     1    110.700    313.800
   10    18    47     1    110.700    313.800
   11    10    33     1    110.700    313.800
   13    12    36     1    110.700    313.800
   19     1    21     1    107.800    276.144
   15    14    40     1    110.700    313.800
   16    18    46     1    110.700    313.800
   13    12    17     1    112.700    488.273
   44    17    45     1    107.800    276.144
   39    14    40     1    107.800    276.144
    7     6    30     1    108.500    292.880
   12    17    16     1    112.700    488.273
   20     1    21     1    107.800    276.144
   15    16    18     1    112.700    488.273
   24     3    25     1    107.800    276.144
    5     4    26     1    110.700    313.800
    5     4     9     1    112.700    488.273
   27     5    28     1    107.800    276.144
   10    18    16     1    112.700    488.273
   16    17    44     1    110.700    313.800
   10     9    31     1    110.700    313.800
   37    13    38     1    107.800    276.144
   18    16    43     1    110.700    313.800
   15    16    17     1    112.700    488.273
   10     9    32     1    110.700    313.800
   23     3    25     1    107.800    276.144
    6     5    28     1    110.700    313.800
   41    15    42     1    107.800    276.144
   16    15    41     1    110.700    313.800
    4     2    22     1    110.700    313.800
   18    10    33     1    110.700    313.800
   12    11    35     1    110.700    313.800
   17    16    18     1    112.700    488.273
   23     3    24     1    107.800    276.144
    6     5    27     1    110.700    313.800
   46    18    47     1    107.800    276.144
    9     4    26     1    110.700    313.800
   11    10    18     1    112.700    488.273
   34    11    35     1    107.800    276.144
   14    13    38     1    110.700    313.800
   16    17    45     1    110.700    313.800
   29     6    30     1    107.800    276.144
   31     9    32     1    107.800    276.144
   12    11    34     1    110.700    313.800
   15    14    39     1    110.700    313.800
   17    16    43     1    110.700    313.800
   14    13    37     1    110.700    313.800
   16    18    47     1    110.700    313.800
    3     2    22     1    110.700    313.800
    7     6    29     1    108.500    292.880
    3     2     4     1    112.700    488.273
   16    15    42     1    110.700    313.800
   19     1    20     1    107.800    276.144
   17    12    36     1    110.700    313.800

[ dihedrals ]
; IMPROPER DIHEDRAL ANGLES 
;  ai    aj    ak    al funct            c0            c1            c2            c3            c4            c5

[ dihedrals ]
; PROPER DIHEDRAL ANGLES
;  ai    aj    ak    al funct            c0            c1            c2            c3            c4            c5
   16   18   10    9        3       2.301  -1.464   0.837  -1.674  -0.000   0.000
    9    4    5    6        3       2.301  -1.464   0.837  -1.674  -0.000   0.000
    5    4    2    3        3       2.301  -1.464   0.837  -1.674  -0.000   0.000
   17   16   18   10        3       2.301  -1.464   0.837  -1.674  -0.000   0.000
   17   16   15   14        3       2.301  -1.464   0.837  -1.674  -0.000   0.000
    9    4    2    1        3       2.301  -1.464   0.837  -1.674  -0.000   0.000
   15   16   17   12        3       2.301  -1.464   0.837  -1.674  -0.000   0.000
   17   12   13   14        3       2.301  -1.464   0.837  -1.674  -0.000   0.000
   18   16   17   12        3       2.301  -1.464   0.837  -1.674  -0.000   0.000
   18   10   11   12        3       2.301  -1.464   0.837  -1.674  -0.000   0.000
   16   17   12   13        3       2.301  -1.464   0.837  -1.674  -0.000   0.000
   10    9    4    5        3       2.301  -1.464   0.837  -1.674  -0.000   0.000
   15   16   18   10        3       2.301  -1.464   0.837  -1.674  -0.000   0.000
   18   16   15   14        3       2.301  -1.464   0.837  -1.674  -0.000   0.000
   16   18   10   11        3       2.301  -1.464   0.837  -1.674  -0.000   0.000
    9    4    2    3        3       2.301  -1.464   0.837  -1.674  -0.000   0.000
   16   17   12   11        3       2.301  -1.464   0.837  -1.674  -0.000   0.000
   17   12   11   10        3       2.301  -1.464   0.837  -1.674  -0.000   0.000
   18   10    9    4        3       2.301  -1.464   0.837  -1.674  -0.000   0.000
   10    9    4    2        3       2.301  -1.464   0.837  -1.674  -0.000   0.000
   15   14   13   12        3       2.301  -1.464   0.837  -1.674  -0.000   0.000
   16   15   14   13        3       2.301  -1.464   0.837  -1.674  -0.000   0.000
   13   12   11   10        3       2.301  -1.464   0.837  -1.674  -0.000   0.000
   12   11   10    9        3       2.301  -1.464   0.837  -1.674  -0.000   0.000
   11   10    9    4        3       2.301  -1.464   0.837  -1.674  -0.000   0.000
    6    5    4    2        3       2.301  -1.464   0.837  -1.674  -0.000   0.000
    5    4    2    1        3       2.301  -1.464   0.837  -1.674  -0.000   0.000
   14   13   12   11        3       2.301  -1.464   0.837  -1.674  -0.000   0.000
    7    6    5    4        3      -2.720   0.000   2.720  -0.000  -0.000   0.000
   32    9   10   18        3       0.628   1.883   0.000  -2.510  -0.000   0.000
   41   15   14   13        3       0.628   1.883   0.000  -2.510  -0.000   0.000
   25    3    2    1        3       0.628   1.883   0.000  -2.510  -0.000   0.000
   22    2    4    9        3       0.628   1.883   0.000  -2.510  -0.000   0.000
   46   18   16   15        3       0.628   1.883   0.000  -2.510  -0.000   0.000
   35   11   12   13        3       0.628   1.883   0.000  -2.510  -0.000   0.000
   43   16   15   14        3       0.628   1.883   0.000  -2.510  -0.000   0.000
   38   13   12   11        3       0.628   1.883   0.000  -2.510  -0.000   0.000
   46   18   10   11        3       0.628   1.883   0.000  -2.510  -0.000   0.000
   31    9   10   11        3       0.628   1.883   0.000  -2.510  -0.000   0.000
   47   18   16   17        3       0.628   1.883   0.000  -2.510  -0.000   0.000
   36   12   11   10        3       0.628   1.883   0.000  -2.510  -0.000   0.000
   32    9    4    2        3       0.628   1.883   0.000  -2.510  -0.000   0.000
   35   11   10   18        3       0.628   1.883   0.000  -2.510  -0.000   0.000
   23    3    2    1        3       0.628   1.883   0.000  -2.510  -0.000   0.000
   40   14   15   16        3       0.628   1.883   0.000  -2.510  -0.000   0.000
   39   14   13   12        3       0.628   1.883   0.000  -2.510  -0.000   0.000
   47   18   10    9        3       0.628   1.883   0.000  -2.510  -0.000   0.000
   30    6    5    4        3       0.628   1.883   0.000  -2.510  -0.000   0.000
   31    9    4    2        3       0.628   1.883   0.000  -2.510  -0.000   0.000
   31    9    4    5        3       0.628   1.883   0.000  -2.510  -0.000   0.000
   45   17   12   11        3       0.628   1.883   0.000  -2.510  -0.000   0.000
   42   15   16   18        3       0.628   1.883   0.000  -2.510  -0.000   0.000
   27    5    4    2        3       0.628   1.883   0.000  -2.510  -0.000   0.000
   26    4    2    1        3       0.628   1.883   0.000  -2.510  -0.000   0.000
   20    1    2    4        3       0.628   1.883   0.000  -2.510  -0.000   0.000
   35   11   12   17        3       0.628   1.883   0.000  -2.510  -0.000   0.000
   46   18   16   17        3       0.628   1.883   0.000  -2.510  -0.000   0.000
   34   11   10    9        3       0.628   1.883   0.000  -2.510  -0.000   0.000
   32    9    4    5        3       0.628   1.883   0.000  -2.510  -0.000   0.000
   36   12   17   16        3       0.628   1.883   0.000  -2.510  -0.000   0.000
   26    4    5    6        3       0.628   1.883   0.000  -2.510  -0.000   0.000
   34   11   12   17        3       0.628   1.883   0.000  -2.510  -0.000   0.000
   37   13   14   15        3       0.628   1.883   0.000  -2.510  -0.000   0.000
   38   13   14   15        3       0.628   1.883   0.000  -2.510  -0.000   0.000
   19    1    2    4        3       0.628   1.883   0.000  -2.510  -0.000   0.000
   20    1    2    3        3       0.628   1.883   0.000  -2.510  -0.000   0.000
   40   14   13   12        3       0.628   1.883   0.000  -2.510  -0.000   0.000
   34   11   10   18        3       0.628   1.883   0.000  -2.510  -0.000   0.000
   24    3    2    1        3       0.628   1.883   0.000  -2.510  -0.000   0.000
   44   17   16   18        3       0.628   1.883   0.000  -2.510  -0.000   0.000
   43   16   18   10        3       0.628   1.883   0.000  -2.510  -0.000   0.000
   26    4    9   10        3       0.628   1.883   0.000  -2.510  -0.000   0.000
   37   13   12   17        3       0.628   1.883   0.000  -2.510  -0.000   0.000
   46   18   10    9        3       0.628   1.883   0.000  -2.510  -0.000   0.000
   21    1    2    4        3       0.628   1.883   0.000  -2.510  -0.000   0.000
   36   12   13   14        3       0.628   1.883   0.000  -2.510  -0.000   0.000
   25    3    2    4        3       0.628   1.883   0.000  -2.510  -0.000   0.000
   45   17   16   15        3       0.628   1.883   0.000  -2.510  -0.000   0.000
   28    5    4    9        3       0.628   1.883   0.000  -2.510  -0.000   0.000
   21    1    2    3        3       0.628   1.883   0.000  -2.510  -0.000   0.000
   24    3    2    4        3       0.628   1.883   0.000  -2.510  -0.000   0.000
   33   10   18   16        3       0.628   1.883   0.000  -2.510  -0.000   0.000
   33   10   11   12        3       0.628   1.883   0.000  -2.510  -0.000   0.000
   42   15   14   13        3       0.628   1.883   0.000  -2.510  -0.000   0.000
   28    5    4    2        3       0.628   1.883   0.000  -2.510  -0.000   0.000
   31    9   10   18        3       0.628   1.883   0.000  -2.510  -0.000   0.000
   22    2    4    5        3       0.628   1.883   0.000  -2.510  -0.000   0.000
   41   15   16   17        3       0.628   1.883   0.000  -2.510  -0.000   0.000
   23    3    2    4        3       0.628   1.883   0.000  -2.510  -0.000   0.000
   44   17   12   13        3       0.628   1.883   0.000  -2.510  -0.000   0.000
   38   13   12   17        3       0.628   1.883   0.000  -2.510  -0.000   0.000
   32    9   10   11        3       0.628   1.883   0.000  -2.510  -0.000   0.000
   47   18   16   15        3       0.628   1.883   0.000  -2.510  -0.000   0.000
   37   13   12   11        3       0.628   1.883   0.000  -2.510  -0.000   0.000
   43   16   17   12        3       0.628   1.883   0.000  -2.510  -0.000   0.000
   39   14   15   16        3       0.628   1.883   0.000  -2.510  -0.000   0.000
   45   17   16   18        3       0.628   1.883   0.000  -2.510  -0.000   0.000
   42   15   16   17        3       0.628   1.883   0.000  -2.510  -0.000   0.000
   41   15   16   18        3       0.628   1.883   0.000  -2.510  -0.000   0.000
   47   18   10   11        3       0.628   1.883   0.000  -2.510  -0.000   0.000
   29    6    5    4        3       0.628   1.883   0.000  -2.510  -0.000   0.000
   33   10    9    4        3       0.628   1.883   0.000  -2.510  -0.000   0.000
   44   17   16   15        3       0.628   1.883   0.000  -2.510  -0.000   0.000
   45   17   12   13        3       0.628   1.883   0.000  -2.510  -0.000   0.000
   44   17   12   11        3       0.628   1.883   0.000  -2.510  -0.000   0.000
   27    5    4    9        3       0.628   1.883   0.000  -2.510  -0.000   0.000
   34   11   12   13        3       0.628   1.883   0.000  -2.510  -0.000   0.000
   26    4    2    3        3       0.628   1.883   0.000  -2.510  -0.000   0.000
   35   11   10    9        3       0.628   1.883   0.000  -2.510  -0.000   0.000
   19    1    2    3        3       0.628   1.883   0.000  -2.510  -0.000   0.000
   28    5    6    7        3       0.766   2.297   0.000  -3.063  -0.000   0.000
   27    5    6    7        3       0.766   2.297   0.000  -3.063  -0.000   0.000
   28    5    4   26        3       0.628   1.883   0.000  -2.510  -0.000   0.000
   22    2    1   21        3       0.628   1.883   0.000  -2.510  -0.000   0.000
   42   15   14   39        3       0.628   1.883   0.000  -2.510  -0.000   0.000
   38   13   12   36        3       0.628   1.883   0.000  -2.510  -0.000   0.000
   45   17   12   36        3       0.628   1.883   0.000  -2.510  -0.000   0.000
   33   10    9   31        3       0.628   1.883   0.000  -2.510  -0.000   0.000
   27    5    4   26        3       0.628   1.883   0.000  -2.510  -0.000   0.000
   31    9    4   26        3       0.628   1.883   0.000  -2.510  -0.000   0.000
   30    6    5   27        3       0.628   1.883   0.000  -2.510  -0.000   0.000
   36   12   11   34        3       0.628   1.883   0.000  -2.510  -0.000   0.000
   43   16   15   42        3       0.628   1.883   0.000  -2.510  -0.000   0.000
   26    4    2   22        3       0.628   1.883   0.000  -2.510  -0.000   0.000
   47   18   10   33        3       0.628   1.883   0.000  -2.510  -0.000   0.000
   25    3    2   22        3       0.628   1.883   0.000  -2.510  -0.000   0.000
   22    2    1   20        3       0.628   1.883   0.000  -2.510  -0.000   0.000
   29    6    5   28        3       0.628   1.883   0.000  -2.510  -0.000   0.000
   45   17   16   43        3       0.628   1.883   0.000  -2.510  -0.000   0.000
   46   18   16   43        3       0.628   1.883   0.000  -2.510  -0.000   0.000
   44   17   16   43        3       0.628   1.883   0.000  -2.510  -0.000   0.000
   41   15   14   40        3       0.628   1.883   0.000  -2.510  -0.000   0.000
   42   15   14   40        3       0.628   1.883   0.000  -2.510  -0.000   0.000
   23    3    2   22        3       0.628   1.883   0.000  -2.510  -0.000   0.000
   39   14   13   38        3       0.628   1.883   0.000  -2.510  -0.000   0.000
   22    2    1   19        3       0.628   1.883   0.000  -2.510  -0.000   0.000
   46   18   10   33        3       0.628   1.883   0.000  -2.510  -0.000   0.000
   41   15   14   39        3       0.628   1.883   0.000  -2.510  -0.000   0.000
   44   17   12   36        3       0.628   1.883   0.000  -2.510  -0.000   0.000
   43   16   15   41        3       0.628   1.883   0.000  -2.510  -0.000   0.000
   34   11   10   33        3       0.628   1.883   0.000  -2.510  -0.000   0.000
   35   11   10   33        3       0.628   1.883   0.000  -2.510  -0.000   0.000
   29    6    5   27        3       0.628   1.883   0.000  -2.510  -0.000   0.000
   40   14   13   37        3       0.628   1.883   0.000  -2.510  -0.000   0.000
   30    6    5   28        3       0.628   1.883   0.000  -2.510  -0.000   0.000
   33   10    9   32        3       0.628   1.883   0.000  -2.510  -0.000   0.000
   47   18   16   43        3       0.628   1.883   0.000  -2.510  -0.000   0.000
   39   14   13   37        3       0.628   1.883   0.000  -2.510  -0.000   0.000
   24    3    2   22        3       0.628   1.883   0.000  -2.510  -0.000   0.000
   37   13   12   36        3       0.628   1.883   0.000  -2.510  -0.000   0.000
   36   12   11   35        3       0.628   1.883   0.000  -2.510  -0.000   0.000
   32    9    4   26        3       0.628   1.883   0.000  -2.510  -0.000   0.000
   40   14   13   38        3       0.628   1.883   0.000  -2.510  -0.000   0.000
   30    6    7    8        3       0.000   0.000   0.000  -0.000  -0.000   0.000
   29    6    7    8        3       0.000   0.000   0.000  -0.000  -0.000   0.000
    8    7    6    5        3       0.000   0.000   0.000  -0.000  -0.000   0.000

[ pairs ]
     1     5    1
     3     5    1
     2     6    1
     1     9    1
     4     7    1
     3     9    1
     2    10    1
     5     8    1
     6     9    1
     5    10    1
     4    11    1
     9    12    1
     4    18    1
     3    19    1
    10    13    1
     4    19    1
     3    20    1
     4    20    1
     3    21    1
     1    23    1
    11    14    1
    10    15    1
     9    16    1
     4    21    1
     1    24    1
     1    25    1
    12    15    1
    11    16    1
    10    17    1
     5    22    1
     4    23    1
     1    26    1
     4    24    1
    13    16    1
     4    25    1
     3    26    1
     2    27    1
    12    18    1
     2    28    1
    14    17    1
     9    22    1
    14    18    1
     6    26    1
     4    29    1
     2    31    1
     7    27    1
     4    30    1
     2    32    1
     7    28    1
    10    26    1
     9    27    1
     5    31    1
     9    28    1
     8    29    1
     5    32    1
     4    33    1
     8    30    1
    19    22    1
    20    22    1
    11    31    1
    21    22    1
    11    32    1
     9    34    1
     9    35    1
    22    23    1
    12    33    1
    22    24    1
    10    36    1
    22    25    1
    13    34    1
    22    26    1
    13    35    1
    11    37    1
    18    31    1
    16    33    1
    11    38    1
    18    32    1
    14    36    1
    17    34    1
    12    39    1
    18    34    1
    17    35    1
    16    36    1
    15    37    1
    12    40    1
    26    27    1
    18    35    1
    15    38    1
    10    43    1
    26    28    1
    17    37    1
    13    41    1
    17    38    1
    16    39    1
    13    42    1
    12    43    1
    11    44    1
     9    46    1
    27    29    1
    16    40    1
    11    45    1
     9    47    1
    28    29    1
    27    30    1
    26    31    1
    14    43    1
    13    44    1
    11    46    1
    28    30    1
    26    32    1
    17    41    1
    13    45    1
    11    47    1
    18    41    1
    17    42    1
    15    44    1
    18    42    1
    15    45    1
    15    46    1
    18    44    1
    15    47    1
    18    45    1
    17    46    1
    31    33    1
    17    47    1
    32    33    1
    33    34    1
    33    35    1
    34    36    1
    35    36    1
    36    37    1
    36    38    1
    37    39    1
    38    39    1
    37    40    1
    38    40    1
    33    46    1
    39    41    1
    36    44    1
    33    47    1
    40    41    1
    39    42    1
    36    45    1
    40    42    1
    41    43    1
    42    43    1
    43    44    1
    43    45    1
    43    46    1
    43    47    1

