LIGPARGEN GENERATED GRO FILE
   45
    1UNK    C00    1   0.100   0.100   0.000
    1UNK    C01    2  -0.052   0.100   0.000
    1UNK    S02    3  -0.113   0.100   0.172
    1UNK    C03    4  -0.294   0.116   0.143
    1UNK    C04    5  -0.348  -0.007   0.070
    1UNK    C05    6  -0.367   0.130   0.278
    1UNK    C06    7  -0.334   0.253   0.366
    1UNK    C07    8  -0.369   0.383   0.294
    1UNK    C08    9  -0.411   0.246   0.500
    1UNK    C09   10  -0.371   0.126   0.587
    1UNK    C0A   11  -0.445   0.115   0.722
    1UNK    C0B   12  -0.597   0.105   0.702
    1UNK    C0C   13  -0.391  -0.009   0.796
    1UNK    C0D   14  -0.450  -0.028   0.934
    1UNK    O0E   15  -0.486   0.063   1.008
    1UNK    O0F   16  -0.458  -0.161   0.962
    1UNK    C0G   17  -0.519  -0.190   1.088
    1UNK    H0H   18   0.137   0.095  -0.103
    1UNK    H0I   19   0.140   0.013   0.053
    1UNK    H0J   20   0.140   0.191   0.046
    1UNK    H0K   21  -0.087   0.010  -0.052
    1UNK    H0M   22  -0.089   0.188  -0.053
    1UNK    H0N   23  -0.312   0.205   0.081
    1UNK    H0O   24  -0.339  -0.097   0.133
    1UNK    H0P   25  -0.298  -0.027  -0.025
    1UNK    H0Q   26  -0.454   0.006   0.048
    1UNK    H0R   27  -0.348   0.038   0.334
    1UNK    H0S   28  -0.476   0.130   0.258
    1UNK    H0T   29  -0.227   0.254   0.389
    1UNK    H0U   30  -0.471   0.382   0.255
    1UNK    H0V   31  -0.301   0.401   0.210
    1UNK    H0W   32  -0.360   0.469   0.362
    1UNK    H0X   33  -0.519   0.244   0.479
    1UNK    H0Y   34  -0.392   0.338   0.558
    1UNK    H0Z   35  -0.263   0.131   0.605
    1UNK    H10   36  -0.390   0.033   0.532
    1UNK    H11   37  -0.424   0.205   0.781
    1UNK    H12   38  -0.622   0.022   0.634
    1UNK    H13   39  -0.637   0.197   0.659
    1UNK    H14   40  -0.649   0.089   0.796
    1UNK    H15   41  -0.282  -0.001   0.809
    1UNK    H16   42  -0.412  -0.098   0.736
    1UNK    H17   43  -0.504  -0.297   1.108
    1UNK    H18   44  -0.626  -0.170   1.083
    1UNK    H19   45  -0.472  -0.133   1.169
   1.00000   1.00000   1.00000

