LIGPARGEN GENERATED GRO FILE
   38
    1UNK    C00    1   0.100   0.100   0.000
    1UNK    C01    2  -0.052   0.100   0.000
    1UNK    C02    3  -0.118   0.100   0.140
    1UNK    C03    4  -0.078  -0.027   0.215
    1UNK    C04    5  -0.091   0.232   0.217
    1UNK    C05    6  -0.151   0.246   0.360
    1UNK    C06    7  -0.304   0.229   0.358
    1UNK    C07    8  -0.080   0.156   0.462
    1UNK    C08    9  -0.092   0.225   0.596
    1UNK    C09   10  -0.080   0.374   0.566
    1UNK    S0A   11  -0.186   0.467   0.673
    1UNK    C0B   12  -0.164   0.638   0.629
    1UNK    O0C   13  -0.324   0.431   0.646
    1UNK    O0D   14  -0.132   0.452   0.807
    1UNK    C0E   15  -0.122   0.383   0.422
    1UNK    O0F   16  -0.130   0.490   0.361
    1UNK    H0G   17   0.137   0.087  -0.102
    1UNK    H0H   18   0.141   0.019   0.060
    1UNK    H0I   19   0.140   0.195   0.038
    1UNK    H0J   20  -0.086   0.011  -0.054
    1UNK    H0K   21  -0.088   0.186  -0.058
    1UNK    H0M   22  -0.226   0.094   0.122
    1UNK    H0N   23   0.021  -0.018   0.261
    1UNK    H0O   24  -0.077  -0.114   0.148
    1UNK    H0P   25  -0.151  -0.051   0.293
    1UNK    H0Q   26  -0.130   0.315   0.155
    1UNK    H0R   27   0.017   0.250   0.223
    1UNK    H0S   28  -0.333   0.130   0.320
    1UNK    H0T   29  -0.351   0.305   0.295
    1UNK    H0U   30  -0.347   0.239   0.458
    1UNK    H0V   31   0.026   0.145   0.437
    1UNK    H0W   32  -0.125   0.056   0.469
    1UNK    H0X   33  -0.013   0.192   0.664
    1UNK    H0Y   34  -0.187   0.199   0.643
    1UNK    H0Z   35   0.023   0.408   0.577
    1UNK    H10   36  -0.202   0.655   0.529
    1UNK    H11   37  -0.058   0.663   0.637
    1UNK    H12   38  -0.222   0.697   0.700
   1.00000   1.00000   1.00000

