
;
; GENERATED BY LigParGen Server
; Jorgensen Lab @ Yale University 
;
[ atomtypes ]
  opls_818  H818     1.0080     0.000    A    2.50000E-01   1.25520E-01
  opls_824  H824     1.0080     0.000    A    2.50000E-01   1.25520E-01
  opls_805  C805    12.0110     0.000    A    3.50000E-01   2.76144E-01
  opls_836  H836     1.0080     0.000    A    2.50000E-01   1.25520E-01
  opls_810  S810    32.0600     0.000    A    3.55000E-01   1.04600E+00
  opls_828  H828     1.0080     0.000    A    2.50000E-01   1.25520E-01
  opls_814  C814    12.0110     0.000    A    3.55000E-01   2.92880E-01
  opls_832  H832     1.0080     0.000    A    2.50000E-01   1.25520E-01
  opls_802  C802    12.0110     0.000    A    3.50000E-01   2.76144E-01
  opls_827  H827     1.0080     0.000    A    2.50000E-01   1.25520E-01
  opls_809  C809    12.0110     0.000    A    3.50000E-01   2.76144E-01
  opls_806  C806    12.0110     0.000    A    3.50000E-01   2.76144E-01
  opls_822  H822     1.0080     0.000    A    2.50000E-01   1.25520E-01
  opls_803  C803    12.0110     0.000    A    3.50000E-01   2.76144E-01
  opls_825  H825     1.0080     0.000    A    2.50000E-01   1.25520E-01
  opls_830  H830     1.0080     0.000    A    2.50000E-01   1.25520E-01
  opls_821  H821     1.0080     0.000    A    2.50000E-01   1.25520E-01
  opls_812  O812    15.9990     0.000    A    2.96000E-01   7.11280E-01
  opls_820  H820     1.0080     0.000    A    2.50000E-01   1.25520E-01
  opls_837  H837     1.0080     0.000    A    2.50000E-01   1.25520E-01
  opls_829  H829     1.0080     0.000    A    2.50000E-01   1.25520E-01
  opls_834  H834     1.0080     0.000    A    2.50000E-01   1.25520E-01
  opls_831  H831     1.0080     0.000    A    2.50000E-01   1.25520E-01
  opls_816  H816     1.0080     0.000    A    2.50000E-01   1.25520E-01
  opls_800  C800    12.0110     0.000    A    3.50000E-01   2.76144E-01
  opls_811  C811    12.0110     0.000    A    3.50000E-01   2.76144E-01
  opls_823  H823     1.0080     0.000    A    2.50000E-01   1.25520E-01
  opls_826  H826     1.0080     0.000    A    2.50000E-01   1.25520E-01
  opls_835  H835     1.0080     0.000    A    2.50000E-01   1.25520E-01
  opls_813  O813    15.9990     0.000    A    2.96000E-01   7.11280E-01
  opls_819  H819     1.0080     0.000    A    2.50000E-01   1.25520E-01
  opls_804  C804    12.0110     0.000    A    3.50000E-01   2.76144E-01
  opls_833  H833     1.0080     0.000    A    2.50000E-01   1.25520E-01
  opls_801  C801    12.0110     0.000    A    3.50000E-01   2.76144E-01
  opls_808  C808    12.0110     0.000    A    3.50000E-01   2.76144E-01
  opls_815  O815    15.9990     0.000    A    2.96000E-01   8.78640E-01
  opls_817  H817     1.0080     0.000    A    2.50000E-01   1.25520E-01
  opls_807  C807    12.0110     0.000    A    3.50000E-01   2.76144E-01
[ moleculetype ]
; Name               nrexcl
UNK                   3
[ atoms ]
;   nr       type  resnr residue  atom   cgnr     charge       mass  
     1   opls_800      1    UNK   C00      1    -0.2382    12.0110 
     2   opls_801      1    UNK   C01      1    -0.1748    12.0110 
     3   opls_802      1    UNK   C02      1    -0.1064    12.0110 
     4   opls_803      1    UNK   C03      1    -0.2356    12.0110 
     5   opls_804      1    UNK   C04      1    -0.1491    12.0110 
     6   opls_805      1    UNK   C05      1    -0.0765    12.0110 
     7   opls_806      1    UNK   C06      1    -0.2336    12.0110 
     8   opls_807      1    UNK   C07      1    -0.1734    12.0110 
     9   opls_808      1    UNK   C08      1    -0.1489    12.0110 
    10   opls_809      1    UNK   C09      1    -0.5482    12.0110 
    11   opls_810      1    UNK   S0A      1     1.3147    32.0600 
    12   opls_811      1    UNK   C0B      1    -0.5581    12.0110 
    13   opls_812      1    UNK   O0C      1    -0.5558    15.9990 
    14   opls_813      1    UNK   O0D      1    -0.5558    15.9990 
    15   opls_814      1    UNK   C0E      1     0.4135    12.0110 
    16   opls_815      1    UNK   O0F      1    -0.4425    15.9990 
    17   opls_816      1    UNK   H0G      1     0.0819     1.0080 
    18   opls_817      1    UNK   H0H      1     0.0819     1.0080 
    19   opls_818      1    UNK   H0I      1     0.0819     1.0080 
    20   opls_819      1    UNK   H0J      1     0.0896     1.0080 
    21   opls_820      1    UNK   H0K      1     0.0896     1.0080 
    22   opls_821      1    UNK   H0M      1     0.0958     1.0080 
    23   opls_822      1    UNK   H0N      1     0.0822     1.0080 
    24   opls_823      1    UNK   H0O      1     0.0822     1.0080 
    25   opls_824      1    UNK   H0P      1     0.0822     1.0080 
    26   opls_825      1    UNK   H0Q      1     0.1008     1.0080 
    27   opls_826      1    UNK   H0R      1     0.1008     1.0080 
    28   opls_827      1    UNK   H0S      1     0.1032     1.0080 
    29   opls_828      1    UNK   H0T      1     0.1032     1.0080 
    30   opls_829      1    UNK   H0U      1     0.1032     1.0080 
    31   opls_830      1    UNK   H0V      1      0.111     1.0080 
    32   opls_831      1    UNK   H0W      1      0.111     1.0080 
    33   opls_832      1    UNK   H0X      2     0.1206     1.0080 
    34   opls_833      1    UNK   H0Y      2     0.1206     1.0080 
    35   opls_834      1    UNK   H0Z      2     0.2023     1.0080 
    36   opls_835      1    UNK   H10      2     0.1748     1.0080 
    37   opls_836      1    UNK   H11      2     0.1748     1.0080 
    38   opls_837      1    UNK   H12      2     0.1748     1.0080 
[ bonds ]
    2     1     1      0.1529 224262.400
    3     2     1      0.1529 224262.400
    4     3     1      0.1529 224262.400
    5     3     1      0.1529 224262.400
    6     5     1      0.1529 224262.400
    7     6     1      0.1529 224262.400
    8     6     1      0.1529 224262.400
    9     8     1      0.1529 224262.400
   10     9     1      0.1529 224262.400
   11    10     1      0.1770 284512.000
   12    11     1      0.1770 284512.000
   13    11     1      0.1440 585760.000
   14    11     1      0.1440 585760.000
   15     6     1      0.1522 265265.600
   16    15     1      0.1229 476976.000
   17     1     1      0.1090 284512.000
   18     1     1      0.1090 284512.000
   19     1     1      0.1090 284512.000
   20     2     1      0.1090 284512.000
   21     2     1      0.1090 284512.000
   22     3     1      0.1090 284512.000
   23     4     1      0.1090 284512.000
   24     4     1      0.1090 284512.000
   25     4     1      0.1090 284512.000
   26     5     1      0.1090 284512.000
   27     5     1      0.1090 284512.000
   28     7     1      0.1090 284512.000
   29     7     1      0.1090 284512.000
   30     7     1      0.1090 284512.000
   31     8     1      0.1090 284512.000
   32     8     1      0.1090 284512.000
   33     9     1      0.1090 284512.000
   34     9     1      0.1090 284512.000
   35    10     1      0.1090 284512.000
   36    12     1      0.1090 284512.000
   37    12     1      0.1090 284512.000
   38    12     1      0.1090 284512.000
   15    10     1      0.1522 265265.600

[ angles ]
;  ai    aj    ak funct            c0            c1            c2            c3 
    1     2     3     1    112.700    488.273
    2     3     4     1    112.700    488.273
    2     3     5     1    112.700    488.273
    3     5     6     1    112.700    488.273
    5     6     7     1    112.700    488.273
    5     6     8     1    112.700    488.273
    6     8     9     1    112.700    488.273
    8     9    10     1    112.700    488.273
    9    10    11     1    108.600    418.400
   10    11    12     1    102.000    518.816
   10    11    13     1    108.900    619.232
   10    11    14     1    108.900    619.232
    5     6    15     1    111.100    527.184
    6    15    16     1    120.400    669.440
    2     1    17     1    110.700    313.800
    2     1    18     1    110.700    313.800
    2     1    19     1    110.700    313.800
    1     2    20     1    110.700    313.800
    1     2    21     1    110.700    313.800
    2     3    22     1    110.700    313.800
    3     4    23     1    110.700    313.800
    3     4    24     1    110.700    313.800
    3     4    25     1    110.700    313.800
    3     5    26     1    110.700    313.800
    3     5    27     1    110.700    313.800
    6     7    28     1    110.700    313.800
    6     7    29     1    110.700    313.800
    6     7    30     1    110.700    313.800
    6     8    31     1    110.700    313.800
    6     8    32     1    110.700    313.800
    8     9    33     1    110.700    313.800
    8     9    34     1    110.700    313.800
    9    10    35     1    110.700    313.800
   11    12    36     1    109.500    292.880
   11    12    37     1    109.500    292.880
   11    12    38     1    109.500    292.880
   17     1    19     1    107.800    276.144
    3     2    20     1    110.700    313.800
   11    10    15     1    110.580    432.207
   23     4    24     1    107.800    276.144
   31     8    32     1    107.800    276.144
   10     9    33     1    110.700    313.800
   37    12    38     1    107.800    276.144
   28     7    30     1    107.800    276.144
   24     4    25     1    107.800    276.144
    4     3    22     1    110.700    313.800
   10     9    34     1    110.700    313.800
    6    15    10     1    116.000    585.760
   26     5    27     1    107.800    276.144
   17     1    18     1    107.800    276.144
    4     3     5     1    112.700    488.273
    6     5    27     1    110.700    313.800
   23     4    25     1    107.800    276.144
   18     1    19     1    107.800    276.144
   11    10    35     1    109.500    292.880
   36    12    37     1    107.800    276.144
    7     6    15     1    111.100    527.184
   28     7    29     1    107.800    276.144
   12    11    14     1    108.900    619.232
    9     8    32     1    110.700    313.800
   10    15    16     1    120.400    669.440
    7     6     8     1    112.700    488.273
   29     7    30     1    107.800    276.144
   15    10    35     1    109.500    292.880
    6     5    26     1    110.700    313.800
   20     2    21     1    107.800    276.144
   33     9    34     1    107.800    276.144
   12    11    13     1    108.900    619.232
    5     3    22     1    110.700    313.800
    8     6    15     1    111.100    527.184
   13    11    14     1    119.000    870.272
    9    10    15     1    111.100    527.184
    9     8    31     1    110.700    313.800
    3     2    21     1    110.700    313.800
   36    12    38     1    107.800    276.144

[ dihedrals ]
; IMPROPER DIHEDRAL ANGLES 
;  ai    aj    ak    al funct            c0            c1            c2            c3            c4            c5
    16    15     6    10    4        180.000     43.932     2  

[ dihedrals ]
; PROPER DIHEDRAL ANGLES
;  ai    aj    ak    al funct            c0            c1            c2            c3            c4            c5
   15    6    5    3        3      -4.960   6.286   1.310  -2.636  -0.000   0.000
   15   10    9    8        3      -4.960   6.286   1.310  -2.636  -0.000   0.000
   15    6    8    9        3      -4.960   6.286   1.310  -2.636  -0.000   0.000
   15   10   11   12        3       0.000   0.000   0.000  -0.000  -0.000   0.000
   15   10   11   14        3       0.000   0.000   0.000  -0.000  -0.000   0.000
   15   10   11   13        3       0.000   0.000   0.000  -0.000  -0.000   0.000
   10   15    6    5        3       0.818  -7.906   0.602   6.485  -0.000   0.000
   10   15    6    7        3       0.818  -7.906   0.602   6.485  -0.000   0.000
   10   15    6    8        3       0.818  -7.906   0.602   6.485  -0.000   0.000
    9   10   15    6        3       0.818  -7.906   0.602   6.485  -0.000   0.000
    8    6    5    3        3       2.301  -1.464   0.837  -1.674  -0.000   0.000
    5    3    2    1        3       2.301  -1.464   0.837  -1.674  -0.000   0.000
    9    8    6    7        3       2.301  -1.464   0.837  -1.674  -0.000   0.000
    6    5    3    4        3       2.301  -1.464   0.837  -1.674  -0.000   0.000
    4    3    2    1        3       2.301  -1.464   0.837  -1.674  -0.000   0.000
    7    6    5    3        3       2.301  -1.464   0.837  -1.674  -0.000   0.000
   10    9    8    6        3       2.301  -1.464   0.837  -1.674  -0.000   0.000
    9    8    6    5        3       2.301  -1.464   0.837  -1.674  -0.000   0.000
    6    5    3    2        3       2.301  -1.464   0.837  -1.674  -0.000   0.000
   12   11   10    9        3       0.000   0.000   0.000  -0.000  -0.000   0.000
   35   10   15    6        3       0.575   1.726   0.000  -2.301  -0.000   0.000
   35   10   15   16        3       0.000   0.000   0.000  -0.000  -0.000   0.000
   26    5    6   15        3      -0.209  -0.628   0.000   0.837  -0.000   0.000
   29    7    6   15        3      -0.209  -0.628   0.000   0.837  -0.000   0.000
   34    9   10   15        3      -0.209  -0.628   0.000   0.837  -0.000   0.000
   32    8    6   15        3      -0.209  -0.628   0.000   0.837  -0.000   0.000
   30    7    6   15        3      -0.209  -0.628   0.000   0.837  -0.000   0.000
   31    8    6   15        3      -0.209  -0.628   0.000   0.837  -0.000   0.000
   27    5    6   15        3      -0.209  -0.628   0.000   0.837  -0.000   0.000
   28    7    6   15        3      -0.209  -0.628   0.000   0.837  -0.000   0.000
   33    9   10   15        3      -0.209  -0.628   0.000   0.837  -0.000   0.000
   18    1    2    3        3       0.628   1.883   0.000  -2.510  -0.000   0.000
   22    3    5    6        3       0.628   1.883   0.000  -2.510  -0.000   0.000
   32    8    9   10        3       0.628   1.883   0.000  -2.510  -0.000   0.000
   27    5    6    8        3       0.628   1.883   0.000  -2.510  -0.000   0.000
   26    5    6    7        3       0.628   1.883   0.000  -2.510  -0.000   0.000
   26    5    3    2        3       0.628   1.883   0.000  -2.510  -0.000   0.000
   31    8    6    7        3       0.628   1.883   0.000  -2.510  -0.000   0.000
   24    4    3    5        3       0.628   1.883   0.000  -2.510  -0.000   0.000
   26    5    6    8        3       0.628   1.883   0.000  -2.510  -0.000   0.000
   25    4    3    2        3       0.628   1.883   0.000  -2.510  -0.000   0.000
   21    2    3    5        3       0.628   1.883   0.000  -2.510  -0.000   0.000
   29    7    6    5        3       0.628   1.883   0.000  -2.510  -0.000   0.000
   22    3    2    1        3       0.628   1.883   0.000  -2.510  -0.000   0.000
   31    8    6    5        3       0.628   1.883   0.000  -2.510  -0.000   0.000
   21    2    3    4        3       0.628   1.883   0.000  -2.510  -0.000   0.000
   27    5    6    7        3       0.628   1.883   0.000  -2.510  -0.000   0.000
   20    2    3    5        3       0.628   1.883   0.000  -2.510  -0.000   0.000
   33    9    8    6        3       0.628   1.883   0.000  -2.510  -0.000   0.000
   27    5    3    2        3       0.628   1.883   0.000  -2.510  -0.000   0.000
   24    4    3    2        3       0.628   1.883   0.000  -2.510  -0.000   0.000
   31    8    9   10        3       0.628   1.883   0.000  -2.510  -0.000   0.000
   29    7    6    8        3       0.628   1.883   0.000  -2.510  -0.000   0.000
   26    5    3    4        3       0.628   1.883   0.000  -2.510  -0.000   0.000
   20    2    3    4        3       0.628   1.883   0.000  -2.510  -0.000   0.000
   27    5    3    4        3       0.628   1.883   0.000  -2.510  -0.000   0.000
   30    7    6    8        3       0.628   1.883   0.000  -2.510  -0.000   0.000
   25    4    3    5        3       0.628   1.883   0.000  -2.510  -0.000   0.000
   35   10    9    8        3       0.628   1.883   0.000  -2.510  -0.000   0.000
   28    7    6    8        3       0.628   1.883   0.000  -2.510  -0.000   0.000
   32    8    6    5        3       0.628   1.883   0.000  -2.510  -0.000   0.000
   17    1    2    3        3       0.628   1.883   0.000  -2.510  -0.000   0.000
   28    7    6    5        3       0.628   1.883   0.000  -2.510  -0.000   0.000
   30    7    6    5        3       0.628   1.883   0.000  -2.510  -0.000   0.000
   34    9    8    6        3       0.628   1.883   0.000  -2.510  -0.000   0.000
   19    1    2    3        3       0.628   1.883   0.000  -2.510  -0.000   0.000
   23    4    3    2        3       0.628   1.883   0.000  -2.510  -0.000   0.000
   32    8    6    7        3       0.628   1.883   0.000  -2.510  -0.000   0.000
   23    4    3    5        3       0.628   1.883   0.000  -2.510  -0.000   0.000
   34    9    8   32        3       0.628   1.883   0.000  -2.510  -0.000   0.000
   25    4    3   22        3       0.628   1.883   0.000  -2.510  -0.000   0.000
   20    2    1   17        3       0.628   1.883   0.000  -2.510  -0.000   0.000
   27    5    3   22        3       0.628   1.883   0.000  -2.510  -0.000   0.000
   22    3    2   20        3       0.628   1.883   0.000  -2.510  -0.000   0.000
   34    9    8   31        3       0.628   1.883   0.000  -2.510  -0.000   0.000
   23    4    3   22        3       0.628   1.883   0.000  -2.510  -0.000   0.000
   35   10    9   34        3       0.628   1.883   0.000  -2.510  -0.000   0.000
   33    9    8   32        3       0.628   1.883   0.000  -2.510  -0.000   0.000
   33    9    8   31        3       0.628   1.883   0.000  -2.510  -0.000   0.000
   21    2    1   17        3       0.628   1.883   0.000  -2.510  -0.000   0.000
   20    2    1   18        3       0.628   1.883   0.000  -2.510  -0.000   0.000
   35   10    9   33        3       0.628   1.883   0.000  -2.510  -0.000   0.000
   26    5    3   22        3       0.628   1.883   0.000  -2.510  -0.000   0.000
   24    4    3   22        3       0.628   1.883   0.000  -2.510  -0.000   0.000
   22    3    2   21        3       0.628   1.883   0.000  -2.510  -0.000   0.000
   21    2    1   18        3       0.628   1.883   0.000  -2.510  -0.000   0.000
   20    2    1   19        3       0.628   1.883   0.000  -2.510  -0.000   0.000
   21    2    1   19        3       0.628   1.883   0.000  -2.510  -0.000   0.000
   33    9   10   11        3       0.946   2.837   0.000  -3.782  -0.000   0.000
   34    9   10   11        3       0.946   2.837   0.000  -3.782  -0.000   0.000
   38   12   11   10        3       0.732   2.197   0.000  -2.929  -0.000   0.000
   37   12   11   10        3       0.732   2.197   0.000  -2.929  -0.000   0.000
   35   10   11   12        3       0.732   2.197   0.000  -2.929  -0.000   0.000
   36   12   11   10        3       0.732   2.197   0.000  -2.929  -0.000   0.000
   35   10   11   14        3       0.732   2.197   0.000  -2.929  -0.000   0.000
   36   12   11   14        3       0.732   2.197   0.000  -2.929  -0.000   0.000
   37   12   11   13        3       0.732   2.197   0.000  -2.929  -0.000   0.000
   37   12   11   14        3       0.732   2.197   0.000  -2.929  -0.000   0.000
   38   12   11   13        3       0.732   2.197   0.000  -2.929  -0.000   0.000
   35   10   11   13        3       0.732   2.197   0.000  -2.929  -0.000   0.000
   36   12   11   13        3       0.732   2.197   0.000  -2.929  -0.000   0.000
   38   12   11   14        3       0.732   2.197   0.000  -2.929  -0.000   0.000
   16   15    6    8        3       0.000   0.000   0.000  -0.000  -0.000   0.000
   16   15    6    7        3       0.000   0.000   0.000  -0.000  -0.000   0.000
   16   15   10    9        3       0.000   0.000   0.000  -0.000  -0.000   0.000
   16   15    6    5        3       0.000   0.000   0.000  -0.000  -0.000   0.000
   16   15   10   11        3       0.000   0.000   0.000  -0.000  -0.000   0.000
   14   11   10    9        3       0.000   0.000   0.000  -0.000  -0.000   0.000
   13   11   10    9        3       0.000   0.000   0.000  -0.000  -0.000   0.000
   11   10   15    6        3       2.784   0.278   0.828  -3.891  -0.000   0.000
   11   10    9    8        3       2.784   0.278   0.828  -3.891  -0.000   0.000

[ pairs ]
     1     4    1
     1     5    1
     2     6    1
     4     6    1
     3     7    1
     3     8    1
     5     9    1
     5    10    1
     7     9    1
     7    10    1
     6    11    1
     3    15    1
     8    11    1
     3    17    1
     9    12    1
     5    16    1
     3    18    1
     9    13    1
     3    19    1
     9    14    1
     7    16    1
     1    22    1
     8    16    1
     4    20    1
     9    16    1
     5    20    1
     4    21    1
     2    23    1
     5    21    1
     2    24    1
    12    15    1
    11    16    1
     2    25    1
    13    15    1
     6    22    1
     5    23    1
     2    26    1
    14    15    1
     5    24    1
     2    27    1
     5    25    1
     4    26    1
     4    27    1
     7    26    1
     5    28    1
     8    26    1
     7    27    1
     5    29    1
     8    27    1
     5    30    1
     8    28    1
     5    31    1
    17    20    1
     8    29    1
     5    32    1
    18    20    1
    17    21    1
     8    30    1
     7    31    1
    19    20    1
    18    21    1
     7    32    1
     6    33    1
    19    21    1
     6    34    1
    15    26    1
    10    31    1
     6    35    1
    20    22    1
    15    27    1
    10    32    1
    21    22    1
    15    28    1
     8    35    1
    15    29    1
    11    33    1
    22    23    1
    15    30    1
    11    34    1
    22    24    1
    15    31    1
    10    36    1
    22    25    1
    15    32    1
    12    35    1
    10    37    1
    22    26    1
    15    33    1
    13    35    1
    10    38    1
    22    27    1
    15    34    1
    14    35    1
    13    36    1
    14    36    1
    13    37    1
    16    35    1
    14    37    1
    13    38    1
    14    38    1
    31    33    1
    32    33    1
    31    34    1
    32    34    1
    33    35    1
    34    35    1

