LIGPARGEN GENERATED GRO FILE
   35
    1UNK    C00    1   0.100   0.100   0.000
    1UNK    C01    2  -0.052   0.100   0.000
    1UNK    C02    3  -0.114   0.100   0.141
    1UNK    C03    4  -0.077   0.224   0.226
    1UNK    C04    5  -0.129   0.355   0.164
    1UNK    C05    6  -0.280   0.341   0.139
    1UNK    C06    7  -0.355   0.467   0.184
    1UNK    C07    8  -0.331   0.212   0.209
    1UNK    C08    9  -0.279   0.212   0.353
    1UNK    O09   10  -0.136   0.209   0.356
    1UNK    C0A   11  -0.270   0.091   0.133
    1UNK    C0B   12  -0.325  -0.043   0.188
    1UNK    C0C   13  -0.277  -0.166   0.112
    1UNK    H0D   14   0.137   0.100  -0.103
    1UNK    H0E   15   0.139   0.011   0.050
    1UNK    H0F   16   0.141   0.189   0.049
    1UNK    H0G   17  -0.086   0.011  -0.054
    1UNK    H0H   18  -0.088   0.186  -0.058
    1UNK    H0I   19  -0.076   0.012   0.195
    1UNK    H0J   20   0.031   0.230   0.241
    1UNK    H0K   21  -0.077   0.379   0.071
    1UNK    H0M   22  -0.109   0.437   0.234
    1UNK    H0N   23  -0.297   0.332   0.031
    1UNK    H0O   24  -0.339   0.488   0.290
    1UNK    H0P   25  -0.463   0.456   0.168
    1UNK    H0Q   26  -0.321   0.554   0.128
    1UNK    H0R   27  -0.440   0.208   0.206
    1UNK    H0S   28  -0.316   0.126   0.410
    1UNK    H0T   29  -0.311   0.301   0.408
    1UNK    H0U   30  -0.302   0.097   0.028
    1UNK    H0V   31  -0.435  -0.040   0.183
    1UNK    H0W   32  -0.298  -0.056   0.293
    1UNK    H0X   33  -0.301  -0.159   0.005
    1UNK    H0Y   34  -0.326  -0.256   0.152
    1UNK    H0Z   35  -0.169  -0.181   0.122
   1.00000   1.00000   1.00000

