LIGPARGEN GENERATED GRO FILE
   46
    1UNK    C00    1   0.100   0.100   0.000
    1UNK    C01    2  -0.053   0.100   0.000
    1UNK    C02    3  -0.114   0.100   0.143
    1UNK    C03    4  -0.068   0.226   0.224
    1UNK    C04    5  -0.109   0.358   0.157
    1UNK    C05    6  -0.105   0.222   0.373
    1UNK    C06    7  -0.253   0.246   0.408
    1UNK    C07    8  -0.260   0.321   0.542
    1UNK    C08    9  -0.342   0.117   0.404
    1UNK    C09   10  -0.489   0.158   0.383
    1UNK    C0A   11  -0.335   0.038   0.537
    1UNK    C0B   12  -0.302   0.017   0.292
    1UNK    C0C   13  -0.269   0.079   0.152
    1UNK    C0D   14  -0.334  -0.004   0.037
    1UNK    C0E   15  -0.287  -0.150   0.030
    1UNK    C0F   16  -0.485  -0.006   0.055
    1UNK    N0G   17  -0.610  -0.008   0.071
    1UNK    H0H   18   0.138   0.076  -0.100
    1UNK    H0I   19   0.140   0.025   0.069
    1UNK    H0J   20   0.141   0.198   0.028
    1UNK    H0K   21  -0.083   0.010  -0.054
    1UNK    H0M   22  -0.090   0.184  -0.059
    1UNK    H0N   23  -0.066   0.013   0.192
    1UNK    H0O   24   0.042   0.226   0.223
    1UNK    H0P   25  -0.217   0.366   0.139
    1UNK    H0Q   26  -0.060   0.371   0.060
    1UNK    H0R   27  -0.080   0.444   0.219
    1UNK    H0S   28  -0.044   0.301   0.421
    1UNK    H0T   29  -0.070   0.128   0.418
    1UNK    H0U   30  -0.294   0.316   0.335
    1UNK    H0V   31  -0.211   0.265   0.622
    1UNK    H0W   32  -0.364   0.340   0.572
    1UNK    H0X   33  -0.211   0.418   0.534
    1UNK    H0Y   34  -0.525   0.224   0.463
    1UNK    H0Z   35  -0.555   0.071   0.381
    1UNK    H10   36  -0.502   0.212   0.288
    1UNK    H11   37  -0.377   0.095   0.621
    1UNK    H12   38  -0.232   0.011   0.563
    1UNK    H13   39  -0.393  -0.055   0.530
    1UNK    H14   40  -0.383  -0.056   0.283
    1UNK    H15   41  -0.217  -0.043   0.326
    1UNK    H16   42  -0.317   0.177   0.146
    1UNK    H17   43  -0.313   0.045  -0.059
    1UNK    H18   44  -0.314  -0.206   0.121
    1UNK    H19   45  -0.179  -0.160   0.017
    1UNK    H1A   46  -0.336  -0.202  -0.054
   1.00000   1.00000   1.00000

