
;
; GENERATED BY LigParGen Server
; Jorgensen Lab @ Yale University 
;
[ atomtypes ]
  opls_818  H818     1.0080     0.000    A    2.50000E-01   1.25520E-01
  opls_824  H824     1.0080     0.000    A    2.50000E-01   1.25520E-01
  opls_810  F810    18.9984     0.000    A    2.90000E-01   2.51040E-01
  opls_805  C805    12.0110     0.000    A    3.50000E-01   2.76144E-01
  opls_834  H834     1.0080     0.000    A    2.50000E-01   1.25520E-01
  opls_828  H828     1.0080     0.000    A    2.50000E-01   1.25520E-01
  opls_811  F811    18.9984     0.000    A    2.90000E-01   2.51040E-01
  opls_802  C802    12.0110     0.000    A    3.50000E-01   2.76144E-01
  opls_827  H827     1.0080     0.000    A    2.50000E-01   1.25520E-01
  opls_801  C801    12.0110     0.000    A    3.50000E-01   2.76144E-01
  opls_806  C806    12.0110     0.000    A    3.50000E-01   2.76144E-01
  opls_822  H822     1.0080     0.000    A    2.50000E-01   1.25520E-01
  opls_803  C803    12.0110     0.000    A    3.50000E-01   2.76144E-01
  opls_825  H825     1.0080     0.000    A    2.50000E-01   1.25520E-01
  opls_830  H830     1.0080     0.000    A    2.50000E-01   1.25520E-01
  opls_814  O814    15.9990     0.000    A    2.90000E-01   5.85760E-01
  opls_821  H821     1.0080     0.000    A    2.50000E-01   1.25520E-01
  opls_820  H820     1.0080     0.000    A    2.50000E-01   1.25520E-01
  opls_812  C812    12.0110     0.000    A    3.55000E-01   2.92880E-01
  opls_829  H829     1.0080     0.000    A    2.50000E-01   1.25520E-01
  opls_831  H831     1.0080     0.000    A    2.50000E-01   1.25520E-01
  opls_832  H832     1.0080     0.000    A    2.50000E-01   1.25520E-01
  opls_816  H816     1.0080     0.000    A    2.50000E-01   1.25520E-01
  opls_800  C800    12.0110     0.000    A    3.50000E-01   2.76144E-01
  opls_815  C815    12.0110     0.000    A    3.50000E-01   2.76144E-01
  opls_809  F809    18.9984     0.000    A    2.90000E-01   2.51040E-01
  opls_823  H823     1.0080     0.000    A    2.50000E-01   1.25520E-01
  opls_826  H826     1.0080     0.000    A    2.50000E-01   1.25520E-01
  opls_813  O813    15.9990     0.000    A    2.96000E-01   8.78640E-01
  opls_819  H819     1.0080     0.000    A    2.50000E-01   1.25520E-01
  opls_804  C804    12.0110     0.000    A    3.50000E-01   2.76144E-01
  opls_833  H833     1.0080     0.000    A    2.50000E-01   1.25520E-01
  opls_808  C808    12.0110     0.000    A    3.50000E-01   2.76144E-01
  opls_817  H817     1.0080     0.000    A    2.50000E-01   1.25520E-01
  opls_807  C807    12.0110     0.000    A    3.50000E-01   2.76144E-01
[ moleculetype ]
; Name               nrexcl
UNK                   3
[ atoms ]
;   nr       type  resnr residue  atom   cgnr     charge       mass  
     1   opls_800      1    UNK   C00      1    -0.2407    12.0110 
     2   opls_801      1    UNK   C01      1    -0.1772    12.0110 
     3   opls_802      1    UNK   C02      1    -0.1744    12.0110 
     4   opls_803      1    UNK   C03      1    -0.1009    12.0110 
     5   opls_804      1    UNK   C04      1    -0.2419    12.0110 
     6   opls_805      1    UNK   C05      1     -0.113    12.0110 
     7   opls_806      1    UNK   C06      1    -0.1702    12.0110 
     8   opls_807      1    UNK   C07      1    -0.2719    12.0110 
     9   opls_808      1    UNK   C08      1     0.4521    12.0110 
    10   opls_809      1    UNK   F09      1    -0.1687    18.9984 
    11   opls_810      1    UNK   F0A      1    -0.1687    18.9984 
    12   opls_811      1    UNK   F0B      1    -0.1687    18.9984 
    13   opls_812      1    UNK   C0C      1     0.4334    12.0110 
    14   opls_813      1    UNK   O0D      1    -0.4406    15.9990 
    15   opls_814      1    UNK   O0E      1    -0.3551    15.9990 
    16   opls_815      1    UNK   C0F      1    -0.0619    12.0110 
    17   opls_816      1    UNK   H0G      1      0.083     1.0080 
    18   opls_817      1    UNK   H0H      1      0.083     1.0080 
    19   opls_818      1    UNK   H0I      1      0.083     1.0080 
    20   opls_819      1    UNK   H0J      1     0.0922     1.0080 
    21   opls_820      1    UNK   H0K      1     0.0922     1.0080 
    22   opls_821      1    UNK   H0M      1      0.091     1.0080 
    23   opls_822      1    UNK   H0N      1      0.091     1.0080 
    24   opls_823      1    UNK   H0O      1     0.1205     1.0080 
    25   opls_824      1    UNK   H0P      1     0.0887     1.0080 
    26   opls_825      1    UNK   H0Q      1     0.0887     1.0080 
    27   opls_826      1    UNK   H0R      1     0.0887     1.0080 
    28   opls_827      1    UNK   H0S      1     0.1343     1.0080 
    29   opls_828      1    UNK   H0T      1      0.122     1.0080 
    30   opls_829      1    UNK   H0U      1      0.122     1.0080 
    31   opls_830      1    UNK   H0V      1     0.1383     1.0080 
    32   opls_831      1    UNK   H0W      1     0.1383     1.0080 
    33   opls_832      1    UNK   H0X      2     0.1038     1.0080 
    34   opls_833      1    UNK   H0Y      2     0.1038     1.0080 
    35   opls_834      1    UNK   H0Z      2     0.1038     1.0080 
[ bonds ]
    2     1     1      0.1529 224262.400
    3     2     1      0.1529 224262.400
    4     3     1      0.1529 224262.400
    5     4     1      0.1529 224262.400
    6     4     1      0.1529 224262.400
    7     6     1      0.1529 224262.400
    8     7     1      0.1529 224262.400
    9     8     1      0.1529 224262.400
   10     9     1      0.1360 307105.600
   11     9     1      0.1360 307105.600
   12     9     1      0.1360 307105.600
   13     6     1      0.1522 265265.600
   14    13     1      0.1229 476976.000
   15    13     1      0.1327 179075.200
   16    15     1      0.1410 267776.000
   17     1     1      0.1090 284512.000
   18     1     1      0.1090 284512.000
   19     1     1      0.1090 284512.000
   20     2     1      0.1090 284512.000
   21     2     1      0.1090 284512.000
   22     3     1      0.1090 284512.000
   23     3     1      0.1090 284512.000
   24     4     1      0.1090 284512.000
   25     5     1      0.1090 284512.000
   26     5     1      0.1090 284512.000
   27     5     1      0.1090 284512.000
   28     6     1      0.1090 284512.000
   29     7     1      0.1090 284512.000
   30     7     1      0.1090 284512.000
   31     8     1      0.1090 284512.000
   32     8     1      0.1090 284512.000
   33    16     1      0.1090 284512.000
   34    16     1      0.1090 284512.000
   35    16     1      0.1090 284512.000

[ angles ]
;  ai    aj    ak funct            c0            c1            c2            c3 
    1     2     3     1    112.700    488.273
    2     3     4     1    112.700    488.273
    3     4     5     1    112.700    488.273
    3     4     6     1    112.700    488.273
    4     6     7     1    112.700    488.273
    6     7     8     1    112.700    488.273
    7     8     9     1    112.700    488.273
    8     9    10     1    109.500    418.400
    8     9    11     1    109.500    418.400
    8     9    12     1    109.500    418.400
    4     6    13     1    111.100    527.184
    6    13    14     1    120.400    669.440
    6    13    15     1    111.400    677.808
   13    15    16     1    116.900    694.544
    2     1    17     1    110.700    313.800
    2     1    18     1    110.700    313.800
    2     1    19     1    110.700    313.800
    1     2    20     1    110.700    313.800
    1     2    21     1    110.700    313.800
    2     3    22     1    110.700    313.800
    2     3    23     1    110.700    313.800
    3     4    24     1    110.700    313.800
    4     5    25     1    110.700    313.800
    4     5    26     1    110.700    313.800
    4     5    27     1    110.700    313.800
    4     6    28     1    110.700    313.800
    6     7    29     1    110.700    313.800
    6     7    30     1    110.700    313.800
    7     8    31     1    110.700    313.800
    7     8    32     1    110.700    313.800
   15    16    33     1    109.500    292.880
   15    16    34     1    109.500    292.880
   15    16    35     1    109.500    292.880
    6     4    24     1    110.700    313.800
    5     4     6     1    112.700    488.273
    3     2    20     1    110.700    313.800
    3     2    21     1    110.700    313.800
   31     8    32     1    107.800    276.144
    5     4    24     1    110.700    313.800
   14    13    15     1    123.400    694.544
    4     3    22     1    110.700    313.800
    7     6    28     1    110.700    313.800
   10     9    11     1    109.100    644.336
   34    16    35     1    107.800    276.144
   29     7    30     1    107.800    276.144
    7     6    13     1    111.100    527.184
    4     3    23     1    110.700    313.800
   13     6    28     1    109.500    292.880
   33    16    34     1    107.800    276.144
    8     7    29     1    110.700    313.800
   18     1    19     1    107.800    276.144
   26     5    27     1    107.800    276.144
   17     1    19     1    107.800    276.144
    9     8    32     1    110.700    313.800
   25     5    26     1    107.800    276.144
   20     2    21     1    107.800    276.144
   22     3    23     1    107.800    276.144
   11     9    12     1    109.100    644.336
   17     1    18     1    107.800    276.144
   33    16    35     1    107.800    276.144
    9     8    31     1    110.700    313.800
   25     5    27     1    107.800    276.144
    8     7    30     1    110.700    313.800
   10     9    12     1    109.100    644.336

[ dihedrals ]
; IMPROPER DIHEDRAL ANGLES 
;  ai    aj    ak    al funct            c0            c1            c2            c3            c4            c5
    15    13     6    14    4        180.000     43.932     2  

[ dihedrals ]
; PROPER DIHEDRAL ANGLES
;  ai    aj    ak    al funct            c0            c1            c2            c3            c4            c5
   13    6    4    5        3      -4.960   6.286   1.310  -2.636  -0.000   0.000
   13    6    4    3        3      -4.960   6.286   1.310  -2.636  -0.000   0.000
   13    6    7    8        3      -4.960   6.286   1.310  -2.636  -0.000   0.000
    9    8    7    6        3       2.301  -1.464   0.837  -1.674  -0.000   0.000
    4    3    2    1        3       2.301  -1.464   0.837  -1.674  -0.000   0.000
    5    4    3    2        3       2.301  -1.464   0.837  -1.674  -0.000   0.000
    7    6    4    3        3       2.301  -1.464   0.837  -1.674  -0.000   0.000
    8    7    6    4        3       2.301  -1.464   0.837  -1.674  -0.000   0.000
    7    6    4    5        3       2.301  -1.464   0.837  -1.674  -0.000   0.000
    6    4    3    2        3       2.301  -1.464   0.837  -1.674  -0.000   0.000
   16   15   13    6        3      31.206  -9.768  -21.439  -0.000  -0.000   0.000
   16   15   13   14        3      21.439   0.000  -21.439  -0.000  -0.000   0.000
   11    9    8    7        3       0.000   0.000   0.000  -0.000  -0.000   0.000
   10    9    8    7        3       0.000   0.000   0.000  -0.000  -0.000   0.000
   12    9    8    7        3       0.000   0.000   0.000  -0.000  -0.000   0.000
   28    6   13   14        3       0.000   0.000   0.000  -0.000  -0.000   0.000
   28    6   13   15        3       0.276   0.828   0.000  -1.105  -0.000   0.000
   32    8    9   10        3       0.753   2.259   0.000  -3.012  -0.000   0.000
   32    8    9   12        3       0.753   2.259   0.000  -3.012  -0.000   0.000
   31    8    9   11        3       0.753   2.259   0.000  -3.012  -0.000   0.000
   31    8    9   10        3       0.753   2.259   0.000  -3.012  -0.000   0.000
   31    8    9   12        3       0.753   2.259   0.000  -3.012  -0.000   0.000
   32    8    9   11        3       0.753   2.259   0.000  -3.012  -0.000   0.000
   24    4    6   13        3      -0.209  -0.628   0.000   0.837  -0.000   0.000
   29    7    6   13        3      -0.209  -0.628   0.000   0.837  -0.000   0.000
   30    7    6   13        3      -0.209  -0.628   0.000   0.837  -0.000   0.000
   30    7    8    9        3       0.628   1.883   0.000  -2.510  -0.000   0.000
   29    7    8    9        3       0.628   1.883   0.000  -2.510  -0.000   0.000
   23    3    4    5        3       0.628   1.883   0.000  -2.510  -0.000   0.000
   25    5    4    3        3       0.628   1.883   0.000  -2.510  -0.000   0.000
   23    3    2    1        3       0.628   1.883   0.000  -2.510  -0.000   0.000
   26    5    4    6        3       0.628   1.883   0.000  -2.510  -0.000   0.000
   22    3    4    6        3       0.628   1.883   0.000  -2.510  -0.000   0.000
   24    4    3    2        3       0.628   1.883   0.000  -2.510  -0.000   0.000
   22    3    2    1        3       0.628   1.883   0.000  -2.510  -0.000   0.000
   22    3    4    5        3       0.628   1.883   0.000  -2.510  -0.000   0.000
   19    1    2    3        3       0.628   1.883   0.000  -2.510  -0.000   0.000
   27    5    4    3        3       0.628   1.883   0.000  -2.510  -0.000   0.000
   18    1    2    3        3       0.628   1.883   0.000  -2.510  -0.000   0.000
   30    7    6    4        3       0.628   1.883   0.000  -2.510  -0.000   0.000
   31    8    7    6        3       0.628   1.883   0.000  -2.510  -0.000   0.000
   25    5    4    6        3       0.628   1.883   0.000  -2.510  -0.000   0.000
   21    2    3    4        3       0.628   1.883   0.000  -2.510  -0.000   0.000
   28    6    7    8        3       0.628   1.883   0.000  -2.510  -0.000   0.000
   20    2    3    4        3       0.628   1.883   0.000  -2.510  -0.000   0.000
   28    6    4    3        3       0.628   1.883   0.000  -2.510  -0.000   0.000
   27    5    4    6        3       0.628   1.883   0.000  -2.510  -0.000   0.000
   24    4    6    7        3       0.628   1.883   0.000  -2.510  -0.000   0.000
   32    8    7    6        3       0.628   1.883   0.000  -2.510  -0.000   0.000
   29    7    6    4        3       0.628   1.883   0.000  -2.510  -0.000   0.000
   23    3    4    6        3       0.628   1.883   0.000  -2.510  -0.000   0.000
   28    6    4    5        3       0.628   1.883   0.000  -2.510  -0.000   0.000
   17    1    2    3        3       0.628   1.883   0.000  -2.510  -0.000   0.000
   26    5    4    3        3       0.628   1.883   0.000  -2.510  -0.000   0.000
   27    5    4   24        3       0.628   1.883   0.000  -2.510  -0.000   0.000
   25    5    4   24        3       0.628   1.883   0.000  -2.510  -0.000   0.000
   22    3    2   20        3       0.628   1.883   0.000  -2.510  -0.000   0.000
   30    7    6   28        3       0.628   1.883   0.000  -2.510  -0.000   0.000
   24    4    3   23        3       0.628   1.883   0.000  -2.510  -0.000   0.000
   29    7    6   28        3       0.628   1.883   0.000  -2.510  -0.000   0.000
   24    4    3   22        3       0.628   1.883   0.000  -2.510  -0.000   0.000
   22    3    2   21        3       0.628   1.883   0.000  -2.510  -0.000   0.000
   21    2    1   19        3       0.628   1.883   0.000  -2.510  -0.000   0.000
   23    3    2   21        3       0.628   1.883   0.000  -2.510  -0.000   0.000
   20    2    1   19        3       0.628   1.883   0.000  -2.510  -0.000   0.000
   32    8    7   29        3       0.628   1.883   0.000  -2.510  -0.000   0.000
   23    3    2   20        3       0.628   1.883   0.000  -2.510  -0.000   0.000
   31    8    7   30        3       0.628   1.883   0.000  -2.510  -0.000   0.000
   28    6    4   24        3       0.628   1.883   0.000  -2.510  -0.000   0.000
   21    2    1   17        3       0.628   1.883   0.000  -2.510  -0.000   0.000
   20    2    1   18        3       0.628   1.883   0.000  -2.510  -0.000   0.000
   32    8    7   30        3       0.628   1.883   0.000  -2.510  -0.000   0.000
   20    2    1   17        3       0.628   1.883   0.000  -2.510  -0.000   0.000
   21    2    1   18        3       0.628   1.883   0.000  -2.510  -0.000   0.000
   26    5    4   24        3       0.628   1.883   0.000  -2.510  -0.000   0.000
   31    8    7   29        3       0.628   1.883   0.000  -2.510  -0.000   0.000
   33   16   15   13        3       0.414   1.243   0.000  -1.657  -0.000   0.000
   34   16   15   13        3       0.414   1.243   0.000  -1.657  -0.000   0.000
   35   16   15   13        3       0.414   1.243   0.000  -1.657  -0.000   0.000
   14   13    6    7        3       0.000   0.000   0.000  -0.000  -0.000   0.000
   14   13    6    4        3       0.000   0.000   0.000  -0.000  -0.000   0.000
   15   13    6    4        3      -1.157  -3.471   0.000   4.628  -0.000   0.000
   15   13    6    7        3      -1.157  -3.471   0.000   4.628  -0.000   0.000

[ pairs ]
     1     4    1
     2     5    1
     2     6    1
     3     7    1
     5     7    1
     4     8    1
     6     9    1
     3    13    1
     7    10    1
     7    11    1
     5    13    1
     4    14    1
     7    12    1
     4    15    1
     3    17    1
     8    13    1
     7    14    1
     3    18    1
     7    15    1
     6    16    1
     3    19    1
     1    22    1
     4    20    1
     1    23    1
     4    21    1
     2    24    1
     5    22    1
     6    22    1
     5    23    1
     3    25    1
     6    23    1
     3    26    1
    14    16    1
     3    27    1
     7    24    1
     6    25    1
     3    28    1
     6    26    1
     6    27    1
     5    28    1
     4    29    1
     4    30    1
     8    28    1
    17    20    1
    13    24    1
     6    31    1
    18    20    1
    17    21    1
     9    29    1
     6    32    1
    19    20    1
    18    21    1
     9    30    1
    19    21    1
    10    31    1
    20    22    1
    14    28    1
    13    29    1
    11    31    1
    10    32    1
    21    22    1
    20    23    1
    15    28    1
    13    30    1
    12    31    1
    11    32    1
    21    23    1
    12    32    1
    22    24    1
    13    33    1
    23    24    1
    13    34    1
    13    35    1
    24    25    1
    24    26    1
    24    27    1
    24    28    1
    28    29    1
    28    30    1
    29    31    1
    30    31    1
    29    32    1
    30    32    1

