LIGPARGEN GENERATED GRO FILE
   35
    1UNK    C00    1   0.100   0.100   0.000
    1UNK    C01    2  -0.052   0.100   0.000
    1UNK    C02    3  -0.107   0.100   0.143
    1UNK    C03    4  -0.262   0.100   0.153
    1UNK    C04    5  -0.320  -0.025   0.083
    1UNK    C05    6  -0.311   0.107   0.301
    1UNK    C06    7  -0.262   0.232   0.377
    1UNK    C07    8  -0.305   0.236   0.524
    1UNK    C08    9  -0.256   0.360   0.598
    1UNK    F09   10  -0.184   0.442   0.518
    1UNK    F0A   11  -0.360   0.430   0.647
    1UNK    F0B   12  -0.177   0.325   0.702
    1UNK    C0C   13  -0.463   0.107   0.303
    1UNK    O0D   14  -0.533   0.191   0.247
    1UNK    O0E   15  -0.510   0.003   0.377
    1UNK    C0F   16  -0.652  -0.005   0.385
    1UNK    H0G   17   0.138   0.107  -0.102
    1UNK    H0H   18   0.139   0.008   0.045
    1UNK    H0I   19   0.140   0.185   0.057
    1UNK    H0J   20  -0.086   0.012  -0.055
    1UNK    H0K   21  -0.088   0.189  -0.053
    1UNK    H0M   22  -0.068   0.190   0.192
    1UNK    H0N   23  -0.068   0.014   0.198
    1UNK    H0O   24  -0.300   0.188   0.099
    1UNK    H0P   25  -0.280  -0.117   0.128
    1UNK    H0Q   26  -0.296  -0.026  -0.024
    1UNK    H0R   27  -0.429  -0.029   0.090
    1UNK    H0S   28  -0.275   0.018   0.354
    1UNK    H0T   29  -0.298   0.323   0.326
    1UNK    H0U   30  -0.152   0.236   0.375
    1UNK    H0V   31  -0.267   0.146   0.575
    1UNK    H0W   32  -0.414   0.232   0.532
    1UNK    H0X   33  -0.678  -0.078   0.461
    1UNK    H0Y   34  -0.693  -0.038   0.289
    1UNK    H0Z   35  -0.695   0.092   0.414
   1.00000   1.00000   1.00000

