
;
; GENERATED BY LigParGen Server
; Jorgensen Lab @ Yale University 
;
[ atomtypes ]
  opls_818  H818     1.0080     0.000    A    2.50000E-01   1.25520E-01
  opls_824  H824     1.0080     0.000    A    2.50000E-01   1.25520E-01
  opls_808  O808    15.9990     0.000    A    2.96000E-01   8.78640E-01
  opls_836  H836     1.0080     0.000    A    2.50000E-01   1.25520E-01
  opls_834  H834     1.0080     0.000    A    2.50000E-01   1.25520E-01
  opls_810  C810    12.0110     0.000    A    3.50000E-01   2.76144E-01
  opls_828  H828     1.0080     0.000    A    2.50000E-01   1.25520E-01
  opls_801  O801    15.9990     0.000    A    2.90000E-01   5.85760E-01
  opls_832  H832     1.0080     0.000    A    2.50000E-01   1.25520E-01
  opls_802  C802    12.0110     0.000    A    3.50000E-01   2.76144E-01
  opls_827  H827     1.0080     0.000    A    2.50000E-01   1.25520E-01
  opls_809  C809    12.0110     0.000    A    3.50000E-01   2.76144E-01
  opls_822  H822     1.0080     0.000    A    2.50000E-01   1.25520E-01
  opls_803  C803    12.0110     0.000    A    3.50000E-01   2.76144E-01
  opls_825  H825     1.0080     0.000    A    2.50000E-01   1.25520E-01
  opls_826  H826     1.0080     0.000    A    2.50000E-01   1.25520E-01
  opls_830  H830     1.0080     0.000    A    2.50000E-01   1.25520E-01
  opls_821  H821     1.0080     0.000    A    2.50000E-01   1.25520E-01
  opls_820  H820     1.0080     0.000    A    2.50000E-01   1.25520E-01
  opls_837  H837     1.0080     0.000    A    2.50000E-01   1.25520E-01
  opls_829  H829     1.0080     0.000    A    2.50000E-01   1.25520E-01
  opls_831  H831     1.0080     0.000    A    2.50000E-01   1.25520E-01
  opls_816  H816     1.0080     0.000    A    2.50000E-01   1.25520E-01
  opls_800  C800    12.0110     0.000    A    3.50000E-01   2.76144E-01
  opls_813  C813    12.0110     0.000    A    3.45000E-01   3.47272E-01
  opls_805  C805    12.0110     0.000    A    3.50000E-01   2.76144E-01
  opls_814  C814    12.0110     0.000    A    3.45000E-01   3.47272E-01
  opls_811  C811    12.0110     0.000    A    3.50000E-01   2.76144E-01
  opls_806  C806    12.0110     0.000    A    3.55000E-01   2.92880E-01
  opls_823  H823     1.0080     0.000    A    2.50000E-01   1.25520E-01
  opls_815  C815    12.0110     0.000    A    3.45000E-01   3.47272E-01
  opls_835  H835     1.0080     0.000    A    2.50000E-01   1.25520E-01
  opls_819  H819     1.0080     0.000    A    2.50000E-01   1.25520E-01
  opls_804  C804    12.0110     0.000    A    3.50000E-01   2.76144E-01
  opls_833  H833     1.0080     0.000    A    2.50000E-01   1.25520E-01
  opls_812  C812    12.0110     0.000    A    3.50000E-01   2.76144E-01
  opls_817  H817     1.0080     0.000    A    2.50000E-01   1.25520E-01
  opls_807  C807    12.0110     0.000    A    3.50000E-01   2.76144E-01
[ moleculetype ]
; Name               nrexcl
UNK                   3
[ atoms ]
;   nr       type  resnr residue  atom   cgnr     charge       mass  
     1   opls_800      1    UNK   C00      1     -0.055    12.0110 
     2   opls_801      1    UNK   O01      1    -0.3585    15.9990 
     3   opls_802      1    UNK   C02      1      0.086    12.0110 
     4   opls_803      1    UNK   C03      1    -0.1872    12.0110 
     5   opls_804      1    UNK   C04      1    -0.0702    12.0110 
     6   opls_805      1    UNK   C05      1    -0.1471    12.0110 
     7   opls_806      1    UNK   C06      1     0.3786    12.0110 
     8   opls_807      1    UNK   C07      1    -0.2984    12.0110 
     9   opls_808      1    UNK   O08      1    -0.4629    15.9990 
    10   opls_809      1    UNK   C09      1     -0.095    12.0110 
    11   opls_810      1    UNK   C0A      1    -0.2379    12.0110 
    12   opls_811      1    UNK   C0B      1    -0.1723    12.0110 
    13   opls_812      1    UNK   C0C      1    -0.1284    12.0110 
    14   opls_813      1    UNK   C0D      1    -0.1427    12.0110 
    15   opls_814      1    UNK   C0E      1    -0.1796    12.0110 
    16   opls_815      1    UNK   C0F      1    -0.2237    12.0110 
    17   opls_816      1    UNK   H0G      1      0.083     1.0080 
    18   opls_817      1    UNK   H0H      1      0.083     1.0080 
    19   opls_818      1    UNK   H0I      1      0.083     1.0080 
    20   opls_819      1    UNK   H0J      1     0.0988     1.0080 
    21   opls_820      1    UNK   H0K      1     0.1142     1.0080 
    22   opls_821      1    UNK   H0M      1     0.1142     1.0080 
    23   opls_822      1    UNK   H0N      1     0.1022     1.0080 
    24   opls_823      1    UNK   H0O      1     0.1236     1.0080 
    25   opls_824      1    UNK   H0P      1     0.1192     1.0080 
    26   opls_825      1    UNK   H0Q      1     0.1192     1.0080 
    27   opls_826      1    UNK   H0R      1     0.1192     1.0080 
    28   opls_827      1    UNK   H0S      1     0.1147     1.0080 
    29   opls_828      1    UNK   H0T      1     0.0849     1.0080 
    30   opls_829      1    UNK   H0U      1     0.0849     1.0080 
    31   opls_830      1    UNK   H0V      1     0.0849     1.0080 
    32   opls_831      1    UNK   H0W      1     0.0921     1.0080 
    33   opls_832      1    UNK   H0X      2     0.0921     1.0080 
    34   opls_833      1    UNK   H0Y      2     0.0921     1.0080 
    35   opls_834      1    UNK   H0Z      2     0.0921     1.0080 
    36   opls_835      1    UNK   H10      2     0.1308     1.0080 
    37   opls_836      1    UNK   H11      2     0.1308     1.0080 
    38   opls_837      1    UNK   H12      2     0.1358     1.0080 
[ bonds ]
    2     1     1      0.1410 267776.000
    3     2     1      0.1410 267776.000
    4     3     1      0.1529 224262.400
    5     4     1      0.1529 224262.400
    6     5     1      0.1529 224262.400
    7     6     1      0.1522 265265.600
    8     7     1      0.1522 265265.600
    9     7     1      0.1229 476976.000
   10     6     1      0.1529 224262.400
   11    10     1      0.1529 224262.400
   12    10     1      0.1529 224262.400
   13    12     1      0.1529 224262.400
   14     5     1      0.1510 234304.000
   15    14     1      0.1520 217568.000
   16     3     1      0.1510 234304.000
   17     1     1      0.1090 284512.000
   18     1     1      0.1090 284512.000
   19     1     1      0.1090 284512.000
   20     3     1      0.1090 284512.000
   21     4     1      0.1090 284512.000
   22     4     1      0.1090 284512.000
   23     5     1      0.1090 284512.000
   24     6     1      0.1090 284512.000
   25     8     1      0.1090 284512.000
   26     8     1      0.1090 284512.000
   27     8     1      0.1090 284512.000
   28    10     1      0.1090 284512.000
   29    11     1      0.1090 284512.000
   30    11     1      0.1090 284512.000
   31    11     1      0.1090 284512.000
   32    12     1      0.1090 284512.000
   33    12     1      0.1090 284512.000
   34    13     1      0.1090 284512.000
   35    13     1      0.1090 284512.000
   36    15     1      0.1088 284512.000
   37    15     1      0.1088 284512.000
   38    16     1      0.1088 284512.000
   14    13     1      0.1510 234304.000
   16    14     1      0.1520 217568.000
   16    15     1      0.1520 217568.000

[ angles ]
;  ai    aj    ak funct            c0            c1            c2            c3 
    1     2     3     1    109.500    502.080
    2     3     4     1    109.500    418.400
    3     4     5     1    112.700    488.273
    4     5     6     1    112.700    488.273
    5     6     7     1    111.100    527.184
    6     7     8     1    116.000    585.760
    6     7     9     1    120.400    669.440
    5     6    10     1    112.700    488.273
    6    10    11     1    112.700    488.273
    6    10    12     1    112.700    488.273
   10    12    13     1    112.700    488.273
    4     5    14     1    112.700    488.273
    5    14    15     1    117.200    313.800
    2     3    16     1    109.500    418.400
    2     1    17     1    109.500    292.880
    2     1    18     1    109.500    292.880
    2     1    19     1    109.500    292.880
    2     3    20     1    109.500    292.880
    3     4    21     1    110.700    313.800
    3     4    22     1    110.700    313.800
    4     5    23     1    110.700    313.800
    5     6    24     1    110.700    313.800
    7     8    25     1    109.500    292.880
    7     8    26     1    109.500    292.880
    7     8    27     1    109.500    292.880
    6    10    28     1    110.700    313.800
   10    11    29     1    110.700    313.800
   10    11    30     1    110.700    313.800
   10    11    31     1    110.700    313.800
   10    12    32     1    110.700    313.800
   10    12    33     1    110.700    313.800
   12    13    34     1    110.700    313.800
   12    13    35     1    110.700    313.800
   14    15    36     1    117.200    313.800
   14    15    37     1    117.200    313.800
    3    16    38     1    114.300    292.880
   11    10    12     1    112.700    488.273
   14     5    23     1    110.700    313.800
    8     7     9     1    120.400    669.440
    3    16    14     1    117.200    313.800
    7     6    24     1    109.500    292.880
   21     4    22     1    107.800    276.144
   13    14    15     1    117.200    313.800
   16    15    36     1    117.200    313.800
    6     5    14     1    112.700    488.273
   14    13    35     1    110.700    313.800
   14    16    38     1    117.200    313.800
   25     8    27     1    107.800    276.144
    5    14    16     1    117.200    313.800
   25     8    26     1    107.800    276.144
   10     6    24     1    110.700    313.800
   15    16    38     1    117.200    313.800
   12    10    28     1    110.700    313.800
   30    11    31     1    107.800    276.144
   14    13    34     1    110.700    313.800
    5     4    22     1    110.700    313.800
   36    15    37     1    114.300    292.880
   12    13    14     1    112.700    488.273
   13    14    16     1    117.200    313.800
    3    16    15     1    117.200    313.800
   29    11    31     1    107.800    276.144
   11    10    28     1    110.700    313.800
   14    16    15     1     83.000    251.040
   16    15    37     1    117.200    313.800
    7     6    10     1    111.100    527.184
   15    14    16     1     83.000    251.040
   17     1    19     1    107.800    276.144
   32    12    33     1    107.800    276.144
   17     1    18     1    107.800    276.144
   14    15    16     1     83.000    251.040
    6     5    23     1    110.700    313.800
   13    12    32     1    110.700    313.800
    4     3    16     1    112.700    488.273
    5     4    21     1    110.700    313.800
   18     1    19     1    107.800    276.144
    4     3    20     1    110.700    313.800
   13    12    33     1    110.700    313.800
   16     3    20     1    110.700    313.800
   34    13    35     1    107.800    276.144
   29    11    30     1    107.800    276.144
   26     8    27     1    107.800    276.144
    5    14    13     1    114.300    292.880

[ dihedrals ]
; IMPROPER DIHEDRAL ANGLES 
;  ai    aj    ak    al funct            c0            c1            c2            c3            c4            c5
     9     7     6     8    4        180.000     43.932     2  

[ dihedrals ]
; PROPER DIHEDRAL ANGLES
;  ai    aj    ak    al funct            c0            c1            c2            c3            c4            c5
    7    6    5    4        3      -4.960   6.286   1.310  -2.636  -0.000   0.000
    8    7    6    5        3       0.818  -7.906   0.602   6.485  -0.000   0.000
   10    6    7    8        3       0.818  -7.906   0.602   6.485  -0.000   0.000
   10    6    7    9        3       0.000   0.000   0.000  -0.000  -0.000   0.000
   12   10    6    7        3      -4.960   6.286   1.310  -2.636  -0.000   0.000
   11   10    6    7        3      -4.960   6.286   1.310  -2.636  -0.000   0.000
    6    5    4    3        3       2.301  -1.464   0.837  -1.674  -0.000   0.000
   12   10    6    5        3       2.301  -1.464   0.837  -1.674  -0.000   0.000
   11   10    6    5        3       2.301  -1.464   0.837  -1.674  -0.000   0.000
   13   12   10    6        3       2.301  -1.464   0.837  -1.674  -0.000   0.000
   10    6    5    4        3       2.301  -1.464   0.837  -1.674  -0.000   0.000
   13   12   10   11        3       2.301  -1.464   0.837  -1.674  -0.000   0.000
    5    4    3    2        3       2.874   0.582   2.092  -5.548  -0.000   0.000
   12   13   14    5        3       2.301  -1.464   0.837  -1.674  -0.000   0.000
    4    3    2    1        3       1.715   2.845   1.046  -5.607  -0.000   0.000
   13   14    5    4        3       2.301  -1.464   0.837  -1.674  -0.000   0.000
   13   14    5    6        3       2.301  -1.464   0.837  -1.674  -0.000   0.000
    5   14   16    3        3       0.000   0.000   0.000  -0.000  -0.000   0.000
   13   14   16    3        3       0.000   0.000   0.000  -0.000  -0.000   0.000
   14    5    6    7        3      -4.960   6.286   1.310  -2.636  -0.000   0.000
   14   13   12   10        3       2.301  -1.464   0.837  -1.674  -0.000   0.000
   14    5    4    3        3       2.301  -1.464   0.837  -1.674  -0.000   0.000
   16    3    4    5        3       2.301  -1.464   0.837  -1.674  -0.000   0.000
   14    5    6   10        3       2.301  -1.464   0.837  -1.674  -0.000   0.000
   16    3    2    1        3       1.715   2.845   1.046  -5.607  -0.000   0.000
   15   14    5    6        3       0.000   0.000   0.000  -0.000  -0.000   0.000
   16   14    5    6        3       0.000   0.000   0.000  -0.000  -0.000   0.000
   15   16    3    4        3       0.000   0.000   0.000  -0.000  -0.000   0.000
   15   14    5    4        3       0.000   0.000   0.000  -0.000  -0.000   0.000
   14   16    3    4        3       0.000   0.000   0.000  -0.000  -0.000   0.000
   15   14   13   12        3       0.000   0.000   0.000  -0.000  -0.000   0.000
   16   14    5    4        3       0.000   0.000   0.000  -0.000  -0.000   0.000
   16   14   13   12        3       0.000   0.000   0.000  -0.000  -0.000   0.000
   15   16    3    2        3       0.000   0.000   0.000  -0.000  -0.000   0.000
   14   16    3    2        3       0.000   0.000   0.000  -0.000  -0.000   0.000
   25    8    7    6        3       0.575   1.726   0.000  -2.301  -0.000   0.000
   27    8    7    6        3       0.575   1.726   0.000  -2.301  -0.000   0.000
   26    8    7    6        3       0.575   1.726   0.000  -2.301  -0.000   0.000
   24    6    7    8        3       0.575   1.726   0.000  -2.301  -0.000   0.000
   26    8    7    9        3       0.000   0.000   0.000  -0.000  -0.000   0.000
   25    8    7    9        3       0.000   0.000   0.000  -0.000  -0.000   0.000
   24    6    7    9        3       0.000   0.000   0.000  -0.000  -0.000   0.000
   27    8    7    9        3       0.000   0.000   0.000  -0.000  -0.000   0.000
   23    5    6    7        3      -0.209  -0.628   0.000   0.837  -0.000   0.000
   28   10    6    7        3      -0.209  -0.628   0.000   0.837  -0.000   0.000
   20    3    4    5        3       0.628   1.883   0.000  -2.510  -0.000   0.000
   24    6    5    4        3       0.628   1.883   0.000  -2.510  -0.000   0.000
   31   11   10    6        3       0.628   1.883   0.000  -2.510  -0.000   0.000
   31   11   10   12        3       0.628   1.883   0.000  -2.510  -0.000   0.000
   32   12   10    6        3       0.628   1.883   0.000  -2.510  -0.000   0.000
   34   13   12   10        3       0.628   1.883   0.000  -2.510  -0.000   0.000
   35   13   12   10        3       0.628   1.883   0.000  -2.510  -0.000   0.000
   24    6   10   12        3       0.628   1.883   0.000  -2.510  -0.000   0.000
   33   12   10    6        3       0.628   1.883   0.000  -2.510  -0.000   0.000
   23    5    4    3        3       0.628   1.883   0.000  -2.510  -0.000   0.000
   28   10    6    5        3       0.628   1.883   0.000  -2.510  -0.000   0.000
   24    6   10   11        3       0.628   1.883   0.000  -2.510  -0.000   0.000
   21    4    5    6        3       0.628   1.883   0.000  -2.510  -0.000   0.000
   30   11   10    6        3       0.628   1.883   0.000  -2.510  -0.000   0.000
   33   12   10   11        3       0.628   1.883   0.000  -2.510  -0.000   0.000
   32   12   10   11        3       0.628   1.883   0.000  -2.510  -0.000   0.000
   30   11   10   12        3       0.628   1.883   0.000  -2.510  -0.000   0.000
   22    4    5    6        3       0.628   1.883   0.000  -2.510  -0.000   0.000
   28   10   12   13        3       0.628   1.883   0.000  -2.510  -0.000   0.000
   29   11   10    6        3       0.628   1.883   0.000  -2.510  -0.000   0.000
   29   11   10   12        3       0.628   1.883   0.000  -2.510  -0.000   0.000
   23    5    6   10        3       0.628   1.883   0.000  -2.510  -0.000   0.000
   21    4    3   16        3       0.628   1.883   0.000  -2.510  -0.000   0.000
   32   12   13   14        3       0.628   1.883   0.000  -2.510  -0.000   0.000
   22    4    5   14        3       0.628   1.883   0.000  -2.510  -0.000   0.000
   22    4    3   16        3       0.628   1.883   0.000  -2.510  -0.000   0.000
   24    6    5   14        3       0.628   1.883   0.000  -2.510  -0.000   0.000
   21    4    5   14        3       0.628   1.883   0.000  -2.510  -0.000   0.000
   33   12   13   14        3       0.628   1.883   0.000  -2.510  -0.000   0.000
   32   12   10   28        3       0.628   1.883   0.000  -2.510  -0.000   0.000
   34   13   12   32        3       0.628   1.883   0.000  -2.510  -0.000   0.000
   24    6    5   23        3       0.628   1.883   0.000  -2.510  -0.000   0.000
   22    4    3   20        3       0.628   1.883   0.000  -2.510  -0.000   0.000
   30   11   10   28        3       0.628   1.883   0.000  -2.510  -0.000   0.000
   28   10    6   24        3       0.628   1.883   0.000  -2.510  -0.000   0.000
   23    5    4   21        3       0.628   1.883   0.000  -2.510  -0.000   0.000
   21    4    3   20        3       0.628   1.883   0.000  -2.510  -0.000   0.000
   35   13   12   32        3       0.628   1.883   0.000  -2.510  -0.000   0.000
   29   11   10   28        3       0.628   1.883   0.000  -2.510  -0.000   0.000
   31   11   10   28        3       0.628   1.883   0.000  -2.510  -0.000   0.000
   23    5    4   22        3       0.628   1.883   0.000  -2.510  -0.000   0.000
   33   12   10   28        3       0.628   1.883   0.000  -2.510  -0.000   0.000
   34   13   12   33        3       0.628   1.883   0.000  -2.510  -0.000   0.000
   35   13   12   33        3       0.628   1.883   0.000  -2.510  -0.000   0.000
   21    4    3    2        3       0.979   2.937   0.000  -3.916  -0.000   0.000
   22    4    3    2        3       0.979   2.937   0.000  -3.916  -0.000   0.000
   35   13   14    5        3       0.628   1.883   0.000  -2.510  -0.000   0.000
   34   13   14    5        3       0.628   1.883   0.000  -2.510  -0.000   0.000
   23    5   14   13        3       0.628   1.883   0.000  -2.510  -0.000   0.000
   20    3   16   14        3       0.628   1.883   0.000  -2.510  -0.000   0.000
   35   13   14   15        3       0.628   1.883   0.000  -2.510  -0.000   0.000
   34   13   14   15        3       0.628   1.883   0.000  -2.510  -0.000   0.000
   20    3   16   15        3       0.628   1.883   0.000  -2.510  -0.000   0.000
   34   13   14   16        3       0.628   1.883   0.000  -2.510  -0.000   0.000
   23    5   14   16        3       0.628   1.883   0.000  -2.510  -0.000   0.000
   35   13   14   16        3       0.628   1.883   0.000  -2.510  -0.000   0.000
   23    5   14   15        3       0.628   1.883   0.000  -2.510  -0.000   0.000
   18    1    2    3        3       1.590   4.770   0.000  -6.360  -0.000   0.000
   19    1    2    3        3       1.590   4.770   0.000  -6.360  -0.000   0.000
   17    1    2    3        3       1.590   4.770   0.000  -6.360  -0.000   0.000
   20    3    2    1        3       1.590   4.770   0.000  -6.360  -0.000   0.000
   38   16    3    4        3       0.628   1.883   0.000  -2.510  -0.000   0.000
   38   16    3   20        3       0.628   1.883   0.000  -2.510  -0.000   0.000
   38   16    3    2        3       0.979   2.937   0.000  -3.916  -0.000   0.000
   36   15   14    5        3       0.000   0.000   0.000  -0.000  -0.000   0.000
   37   15   14   13        3       0.000   0.000   0.000  -0.000  -0.000   0.000
   37   15   16    3        3       0.000   0.000   0.000  -0.000  -0.000   0.000
   37   15   14    5        3       0.000   0.000   0.000  -0.000  -0.000   0.000
   36   15   14   13        3       0.000   0.000   0.000  -0.000  -0.000   0.000
   38   16   14   13        3       0.000   0.000   0.000  -0.000  -0.000   0.000
   38   16   14    5        3       0.000   0.000   0.000  -0.000  -0.000   0.000
   36   15   16    3        3       0.000   0.000   0.000  -0.000  -0.000   0.000
   36   15   16   14        3       0.000   0.000   0.000  -0.000  -0.000   0.000
   38   16   15   14        3       0.000   0.000   0.000  -0.000  -0.000   0.000
   36   15   14   16        3       0.000   0.000   0.000  -0.000  -0.000   0.000
   37   15   16   14        3       0.000   0.000   0.000  -0.000  -0.000   0.000
   37   15   14   16        3       0.000   0.000   0.000  -0.000  -0.000   0.000
   38   16   14   15        3       0.000   0.000   0.000  -0.000  -0.000   0.000
   38   16   15   37        3       0.000   0.000   0.000  -0.000  -0.000   0.000
   38   16   15   36        3       0.000   0.000   0.000  -0.000  -0.000   0.000
    9    7    6    5        3       0.000   0.000   0.000  -0.000  -0.000   0.000

[ pairs ]
     1     4    1
     2     5    1
     3     6    1
     4     7    1
     5     8    1
     5     9    1
     4    10    1
     5    11    1
     3    13    1
     2    14    1
     5    12    1
     4    13    1
     2    15    1
     1    16    1
     8    10    1
     7    11    1
     9    10    1
     7    12    1
     6    13    1
     4    15    1
     3    17    1
     7    14    1
     6    15    1
     3    18    1
     1    20    1
     6    16    1
     3    19    1
     2    21    1
    11    13    1
    10    14    1
     2    22    1
     5    20    1
     3    23    1
    12    15    1
     6    21    1
    12    16    1
     6    22    1
     4    24    1
     7    23    1
     6    25    1
     8    24    1
     6    26    1
    10    23    1
     9    24    1
     6    27    1
     5    28    1
    14    20    1
     9    25    1
    15    20    1
    14    21    1
    11    24    1
     9    26    1
     7    28    1
     6    29    1
    14    22    1
    13    23    1
    12    24    1
     9    27    1
     6    30    1
    16    21    1
     6    31    1
    16    22    1
    15    23    1
    14    24    1
     6    32    1
    16    23    1
     6    33    1
     5    34    1
     3    36    1
     5    35    1
     3    37    1
     2    38    1
    20    21    1
    13    28    1
    12    29    1
     5    36    1
    20    22    1
    12    30    1
     5    37    1
     4    38    1
    12    31    1
    11    32    1
     5    38    1
    21    23    1
    11    33    1
    10    34    1
    22    23    1
    10    35    1
    14    32    1
    23    24    1
    14    33    1
    15    34    1
    13    36    1
    16    34    1
    15    35    1
    13    37    1
    16    35    1
    13    38    1
    24    28    1
    28    29    1
    28    30    1
    20    38    1
    28    31    1
    28    32    1
    28    33    1
    32    34    1
    33    34    1
    32    35    1
    33    35    1
    36    38    1
    37    38    1

