LIGPARGEN GENERATED GRO FILE
   38
    1UNK    C00    1   0.100   0.100   0.000
    1UNK    O01    2  -0.043   0.100   0.000
    1UNK    C02    3  -0.096   0.100   0.131
    1UNK    C03    4  -0.224   0.014   0.139
    1UNK    C04    5  -0.276   0.068   0.271
    1UNK    C05    6  -0.396   0.008   0.341
    1UNK    C06    7  -0.527  -0.008   0.264
    1UNK    C07    8  -0.564   0.088   0.154
    1UNK    O08    9  -0.603  -0.100   0.293
    1UNK    C09   10  -0.416   0.083   0.475
    1UNK    C0A   11  -0.299   0.061   0.573
    1UNK    C0B   12  -0.435   0.234   0.449
    1UNK    C0C   13  -0.317   0.299   0.375
    1UNK    C0D   14  -0.272   0.219   0.256
    1UNK    C0E   15  -0.267   0.298   0.124
    1UNK    C0F   16  -0.142   0.238   0.178
    1UNK    H0G   17   0.135   0.046  -0.089
    1UNK    H0H   18   0.143   0.049   0.088
    1UNK    H0I   19   0.136   0.203  -0.004
    1UNK    H0J   20  -0.024   0.059   0.204
    1UNK    H0K   21  -0.202  -0.093   0.140
    1UNK    H0M   22  -0.291   0.034   0.054
    1UNK    H0N   23  -0.195   0.045   0.341
    1UNK    H0O   24  -0.368  -0.096   0.364
    1UNK    H0P   25  -0.524   0.187   0.171
    1UNK    H0Q   26  -0.673   0.097   0.151
    1UNK    H0R   27  -0.528   0.049   0.058
    1UNK    H0S   28  -0.506   0.044   0.524
    1UNK    H0T   29  -0.208   0.116   0.542
    1UNK    H0U   30  -0.272  -0.044   0.580
    1UNK    H0V   31  -0.324   0.098   0.672
    1UNK    H0W   32  -0.452   0.286   0.544
    1UNK    H0X   33  -0.527   0.248   0.391
    1UNK    H0Y   34  -0.233   0.314   0.444
    1UNK    H0Z   35  -0.350   0.399   0.345
    1UNK    H10   36  -0.272   0.406   0.126
    1UNK    H11   37  -0.311   0.256   0.034
    1UNK    H12   38  -0.064   0.300   0.220
   1.00000   1.00000   1.00000

