LIGPARGEN GENERATED GRO FILE
   35
    1UNK    C00    1   0.100   0.100   0.000
    1UNK    O01    2  -0.042   0.100   0.000
    1UNK    C02    3  -0.101   0.100   0.131
    1UNK    C03    4  -0.065   0.227   0.208
    1UNK    C04    5  -0.254   0.092   0.114
    1UNK    C05    6  -0.302  -0.035   0.041
    1UNK    C06    7  -0.268  -0.163   0.119
    1UNK    C07    8  -0.379  -0.260   0.084
    1UNK    C08    9  -0.503  -0.172   0.089
    1UNK    C09   10  -0.457  -0.041   0.023
    1UNK    C0A   11  -0.503  -0.029  -0.127
    1UNK    C0B   12  -0.527   0.121  -0.100
    1UNK    C0C   13  -0.548   0.083   0.048
    1UNK    H0D   14   0.134   0.076  -0.101
    1UNK    H0E   15   0.140   0.025   0.069
    1UNK    H0F   16   0.138   0.199   0.026
    1UNK    H0G   17  -0.065   0.013   0.186
    1UNK    H0H   18  -0.080   0.316   0.146
    1UNK    H0I   19   0.041   0.227   0.236
    1UNK    H0J   20  -0.123   0.237   0.299
    1UNK    H0K   21  -0.286   0.179   0.057
    1UNK    H0M   22  -0.302   0.098   0.212
    1UNK    H0N   23  -0.254  -0.041  -0.057
    1UNK    H0O   24  -0.270  -0.144   0.227
    1UNK    H0P   25  -0.169  -0.202   0.093
    1UNK    H0Q   26  -0.385  -0.344   0.153
    1UNK    H0R   27  -0.365  -0.299  -0.018
    1UNK    H0S   28  -0.531  -0.153   0.194
    1UNK    H0T   29  -0.588  -0.218   0.039
    1UNK    H0U   30  -0.596  -0.083  -0.151
    1UNK    H0V   31  -0.429  -0.053  -0.204
    1UNK    H0W   32  -0.612   0.165  -0.151
    1UNK    H0X   33  -0.438   0.183  -0.119
    1UNK    H0Y   34  -0.653   0.058   0.071
    1UNK    H0Z   35  -0.515   0.157   0.121
   1.00000   1.00000   1.00000

