LIGPARGEN GENERATED GRO FILE
   41
    1UNK    C00    1   0.100   0.100   0.000
    1UNK    C01    2  -0.054   0.100   0.000
    1UNK    C02    3  -0.099   0.100   0.147
    1UNK    C03    4  -0.111   0.218  -0.086
    1UNK    C04    5  -0.063   0.203  -0.233
    1UNK    C05    6  -0.266   0.241  -0.088
    1UNK    C06    7  -0.343   0.118  -0.140
    1UNK    C07    8  -0.332   0.290   0.043
    1UNK    C08    9  -0.270   0.415   0.106
    1UNK    C09   10  -0.328   0.454   0.245
    1UNK    C0A   11  -0.294   0.348   0.351
    1UNK    C0B   12  -0.264   0.587   0.289
    1UNK    C0C   13  -0.481   0.472   0.239
    1UNK    H0D   14   0.139   0.023   0.068
    1UNK    H0E   15   0.140   0.197   0.032
    1UNK    H0F   16   0.140   0.077  -0.099
    1UNK    H0G   17  -0.086   0.005  -0.044
    1UNK    H0H   18  -0.090   0.200   0.191
    1UNK    H0I   19  -0.037   0.032   0.207
    1UNK    H0J   20  -0.201   0.064   0.156
    1UNK    H0K   21  -0.064   0.310  -0.050
    1UNK    H0M   22  -0.094   0.107  -0.275
    1UNK    H0N   23   0.046   0.209  -0.240
    1UNK    H0O   24  -0.103   0.283  -0.296
    1UNK    H0P   25  -0.284   0.321  -0.160
    1UNK    H0Q   26  -0.318   0.028  -0.084
    1UNK    H0R   27  -0.322   0.100  -0.246
    1UNK    H0S   28  -0.451   0.134  -0.132
    1UNK    H0T   29  -0.338   0.208   0.115
    1UNK    H0U   30  -0.437   0.313   0.019
    1UNK    H0V   31  -0.285   0.499   0.036
    1UNK    H0W   32  -0.162   0.403   0.117
    1UNK    H0X   33  -0.185   0.336   0.362
    1UNK    H0Y   34  -0.336   0.250   0.327
    1UNK    H0Z   35  -0.333   0.376   0.450
    1UNK    H10   36  -0.156   0.578   0.298
    1UNK    H11   37  -0.303   0.620   0.386
    1UNK    H12   38  -0.285   0.667   0.217
    1UNK    H13   39  -0.532   0.377   0.217
    1UNK    H14   40  -0.509   0.544   0.162
    1UNK    H15   41  -0.520   0.507   0.335
   1.00000   1.00000   1.00000

