LIGPARGEN GENERATED GRO FILE
   47
    1UNK    C00    1   0.100   0.100   0.000
    1UNK    C01    2  -0.052   0.100   0.000
    1UNK    C02    3  -0.106   0.100   0.143
    1UNK    C03    4  -0.260   0.106   0.153
    1UNK    C04    5  -0.335  -0.006   0.081
    1UNK    C05    6  -0.309  -0.146   0.135
    1UNK    C06    7  -0.300   0.111   0.301
    1UNK    O07    8  -0.233   0.054   0.388
    1UNK    C08    9  -0.429   0.180   0.340
    1UNK    C09   10  -0.435   0.329   0.304
    1UNK    C0A   11  -0.570   0.385   0.349
    1UNK    C0B   12  -0.317   0.408   0.365
    1UNK    C0C   13  -0.322   0.557   0.329
    1UNK    O0D   14  -0.211   0.625   0.388
    1UNK    C0E   15  -0.207   0.764   0.353
    1UNK    C0F   16  -0.329   0.840   0.406
    1UNK    C0G   17  -0.080   0.823   0.412
    1UNK    H0H   18   0.138   0.095  -0.102
    1UNK    H0I   19   0.139   0.014   0.055
    1UNK    H0J   20   0.139   0.191   0.047
    1UNK    H0K   21  -0.087   0.011  -0.054
    1UNK    H0M   22  -0.089   0.188  -0.054
    1UNK    H0N   23  -0.065   0.187   0.196
    1UNK    H0O   24  -0.068   0.012   0.196
    1UNK    H0P   25  -0.290   0.201   0.107
    1UNK    H0Q   26  -0.310  -0.004  -0.026
    1UNK    H0R   27  -0.443   0.013   0.086
    1UNK    H0S   28  -0.203  -0.165   0.150
    1UNK    H0T   29  -0.347  -0.221   0.065
    1UNK    H0U   30  -0.361  -0.161   0.231
    1UNK    H0V   31  -0.442   0.168   0.448
    1UNK    H0W   32  -0.511   0.126   0.292
    1UNK    H0X   33  -0.430   0.340   0.195
    1UNK    H0Y   34  -0.576   0.391   0.458
    1UNK    H0Z   35  -0.652   0.322   0.313
    1UNK    H10   36  -0.588   0.485   0.308
    1UNK    H11   37  -0.221   0.367   0.330
    1UNK    H12   38  -0.315   0.397   0.474
    1UNK    H13   39  -0.414   0.599   0.369
    1UNK    H14   40  -0.320   0.569   0.220
    1UNK    H15   41  -0.203   0.773   0.243
    1UNK    H16   42  -0.346   0.817   0.512
    1UNK    H17   43  -0.420   0.812   0.352
    1UNK    H18   44  -0.317   0.948   0.394
    1UNK    H19   45  -0.078   0.811   0.521
    1UNK    H1A   46  -0.070   0.929   0.388
    1UNK    H1B   47   0.008   0.770   0.373
   1.00000   1.00000   1.00000

