LIGPARGEN GENERATED GRO FILE
   45
    1UNK    C00    1   0.100   0.100   0.000
    1UNK    C01    2  -0.052   0.100   0.000
    1UNK    C02    3  -0.123   0.100   0.139
    1UNK    C03    4  -0.094   0.225   0.224
    1UNK    C04    5   0.050   0.258   0.259
    1UNK    C05    6  -0.276   0.080   0.109
    1UNK    C06    7  -0.382   0.074   0.224
    1UNK    C07    8  -0.351  -0.044   0.318
    1UNK    C08    9  -0.404   0.203   0.305
    1UNK    C09   10  -0.433   0.326   0.218
    1UNK    C0A   11  -0.419   0.454   0.300
    1UNK    C0B   12  -0.572   0.315   0.155
    1UNK    C0C   13  -0.587   0.194   0.062
    1UNK    C0D   14  -0.728   0.189   0.002
    1UNK    S0E   15  -0.548   0.039   0.146
    1UNK    O0F   16  -0.532  -0.063   0.044
    1UNK    O0G   17  -0.646   0.022   0.252
    1UNK    H0H   18   0.137   0.068  -0.098
    1UNK    H0I   19   0.141   0.032   0.075
    1UNK    H0J   20   0.141   0.200   0.016
    1UNK    H0K   21  -0.083   0.010  -0.054
    1UNK    H0M   22  -0.087   0.185  -0.060
    1UNK    H0N   23  -0.087   0.012   0.194
    1UNK    H0O   24  -0.141   0.209   0.321
    1UNK    H0P   25  -0.140   0.313   0.178
    1UNK    H0Q   26   0.108   0.168   0.279
    1UNK    H0R   27   0.052   0.320   0.350
    1UNK    H0S   28   0.097   0.317   0.181
    1UNK    H0T   29  -0.283  -0.016   0.055
    1UNK    H0U   30  -0.305   0.155   0.035
    1UNK    H0V   31  -0.254  -0.031   0.366
    1UNK    H0W   32  -0.350  -0.139   0.263
    1UNK    H0X   33  -0.426  -0.053   0.397
    1UNK    H0Y   34  -0.320   0.222   0.372
    1UNK    H0Z   35  -0.488   0.189   0.375
    1UNK    H10   36  -0.359   0.334   0.137
    1UNK    H11   37  -0.491   0.457   0.383
    1UNK    H12   38  -0.436   0.542   0.237
    1UNK    H13   39  -0.318   0.462   0.342
    1UNK    H14   40  -0.592   0.407   0.097
    1UNK    H15   41  -0.648   0.311   0.234
    1UNK    H16   42  -0.515   0.202  -0.021
    1UNK    H17   43  -0.804   0.182   0.081
    1UNK    H18   44  -0.740   0.101  -0.062
    1UNK    H19   45  -0.748   0.278  -0.057
   1.00000   1.00000   1.00000

