LIGPARGEN GENERATED GRO FILE
   27
    1UNK    C00    1   0.100   0.100   0.000
    1UNK    C01    2  -0.052   0.100   0.000
    1UNK    C02    3  -0.111   0.100   0.141
    1UNK    C03    4  -0.072   0.215   0.236
    1UNK    C04    5  -0.068   0.148   0.376
    1UNK    C05    6   0.034   0.246   0.355
    1UNK    C06    7   0.164   0.254   0.278
    1UNK    C07    8   0.215   0.388   0.227
    1UNK    C08    9   0.114   0.309   0.147
    1UNK    C09   10   0.161   0.239   0.022
    1UNK    C0A   11  -0.033   0.338   0.159
    1UNK    H0B   12   0.135   0.063  -0.097
    1UNK    H0C   13   0.137   0.029   0.075
    1UNK    H0D   14  -0.087   0.009  -0.050
    1UNK    H0E   15  -0.091   0.182  -0.061
    1UNK    H0F   16  -0.090   0.002   0.185
    1UNK    H0G   17  -0.220   0.104   0.131
    1UNK    H0H   18  -0.032   0.046   0.385
    1UNK    H0I   19  -0.149   0.168   0.444
    1UNK    H0J   20   0.017   0.334   0.419
    1UNK    H0K   21   0.235   0.173   0.284
    1UNK    H0M   22   0.317   0.392   0.191
    1UNK    H0N   23   0.181   0.479   0.275
    1UNK    H0O   24   0.270   0.226   0.025
    1UNK    H0P   25   0.140   0.302  -0.065
    1UNK    H0Q   26  -0.083   0.350   0.062
    1UNK    H0R   27  -0.054   0.431   0.214
   1.00000   1.00000   1.00000

