LIGPARGEN GENERATED GRO FILE
   38
    1UNK    C00    1   0.100   0.100   0.000
    1UNK    S01    2  -0.081   0.100   0.000
    1UNK    C02    3  -0.108   0.100   0.180
    1UNK    C03    4  -0.258   0.100   0.209
    1UNK    C04    5  -0.284   0.100   0.360
    1UNK    C05    6  -0.433   0.100   0.390
    1UNK    C06    7  -0.456   0.100   0.540
    1UNK    O07    8  -0.458  -0.006   0.604
    1UNK    C08    9  -0.475   0.234   0.608
    1UNK    C09   10  -0.620   0.280   0.603
    1UNK    C0A   11  -0.714   0.187   0.680
    1UNK    C0B   12  -0.859   0.237   0.672
    1UNK    C0C   13  -0.954   0.145   0.749
    1UNK    C0D   14  -1.098   0.192   0.743
    1UNK    F0E   15  -1.113   0.306   0.672
    1UNK    F0F   16  -1.177   0.098   0.687
    1UNK    F0G   17  -1.145   0.215   0.868
    1UNK    H0H   18   0.136   0.100  -0.103
    1UNK    H0I   19   0.138   0.011   0.050
    1UNK    H0J   20   0.138   0.190   0.050
    1UNK    H0K   21  -0.061   0.189   0.223
    1UNK    H0M   22  -0.061   0.011   0.223
    1UNK    H0N   23  -0.305   0.011   0.165
    1UNK    H0O   24  -0.305   0.188   0.165
    1UNK    H0P   25  -0.237   0.188   0.405
    1UNK    H0Q   26  -0.237   0.012   0.406
    1UNK    H0R   27  -0.482   0.011   0.348
    1UNK    H0S   28  -0.483   0.187   0.346
    1UNK    H0T   29  -0.410   0.307   0.559
    1UNK    H0U   30  -0.440   0.225   0.712
    1UNK    H0V   31  -0.653   0.288   0.499
    1UNK    H0W   32  -0.626   0.381   0.646
    1UNK    H0X   33  -0.683   0.181   0.784
    1UNK    H0Y   34  -0.710   0.086   0.638
    1UNK    H0Z   35  -0.890   0.243   0.568
    1UNK    H10   36  -0.864   0.339   0.714
    1UNK    H11   37  -0.922   0.138   0.854
    1UNK    H12   38  -0.947   0.044   0.707
   1.00000   1.00000   1.00000

