LIGPARGEN GENERATED GRO FILE
   42
    1UNK    C00    1   0.100   0.100   0.000
    1UNK    C01    2  -0.052   0.100   0.000
    1UNK    C02    3  -0.107   0.100   0.140
    1UNK    O03    4  -0.041   0.104   0.243
    1UNK    O04    5  -0.243   0.094   0.135
    1UNK    C05    6  -0.310   0.085   0.262
    1UNK    C06    7  -0.310  -0.060   0.315
    1UNK    C07    8  -0.381  -0.070   0.450
    1UNK    C08    9  -0.532  -0.053   0.439
    1UNK    C09   10  -0.599  -0.151   0.340
    1UNK    C0A   11  -0.745  -0.103   0.320
    1UNK    C0B   12  -0.608  -0.292   0.403
    1UNK    C0C   13  -0.523  -0.148   0.203
    1UNK    C0D   14  -0.581  -0.241   0.095
    1UNK    C0E   15  -0.369  -0.160   0.212
    1UNK    C0F   16  -0.315  -0.301   0.237
    1UNK    H0G   17   0.138   0.100  -0.102
    1UNK    H0H   18   0.139   0.011   0.051
    1UNK    H0I   19   0.139   0.188   0.052
    1UNK    H0J   20  -0.088   0.011  -0.052
    1UNK    H0K   21  -0.089   0.189  -0.052
    1UNK    H0M   22  -0.412   0.122   0.246
    1UNK    H0N   23  -0.264   0.154   0.334
    1UNK    H0O   24  -0.205  -0.088   0.331
    1UNK    H0P   25  -0.341   0.007   0.518
    1UNK    H0Q   26  -0.358  -0.166   0.497
    1UNK    H0R   27  -0.554   0.050   0.409
    1UNK    H0S   28  -0.576  -0.065   0.539
    1UNK    H0T   29  -0.797  -0.095   0.416
    1UNK    H0U   30  -0.803  -0.173   0.258
    1UNK    H0V   31  -0.749  -0.005   0.272
    1UNK    H0W   32  -0.673  -0.290   0.491
    1UNK    H0X   33  -0.511  -0.328   0.438
    1UNK    H0Y   34  -0.650  -0.365   0.334
    1UNK    H0Z   35  -0.541  -0.047   0.162
    1UNK    H10   36  -0.577  -0.346   0.125
    1UNK    H11   37  -0.524  -0.231   0.002
    1UNK    H12   38  -0.684  -0.216   0.072
    1UNK    H13   39  -0.331  -0.133   0.112
    1UNK    H14   40  -0.330  -0.335   0.339
    1UNK    H15   41  -0.207  -0.303   0.219
    1UNK    H16   42  -0.360  -0.375   0.169
   1.00000   1.00000   1.00000

