
;
; GENERATED BY LigParGen Server
; Jorgensen Lab @ Yale University 
;
[ atomtypes ]
  opls_818  H818     1.0080     0.000    A    2.50000E-01   1.25520E-01
  opls_814  C814    12.0110     0.000    A    3.50000E-01   2.76144E-01
  opls_824  H824     1.0080     0.000    A    2.50000E-01   1.25520E-01
  opls_811  C811    12.0110     0.000    A    3.50000E-01   2.76144E-01
  opls_805  C805    12.0110     0.000    A    3.50000E-01   2.76144E-01
  opls_836  H836     1.0080     0.000    A    2.50000E-01   1.25520E-01
  opls_834  H834     1.0080     0.000    A    2.50000E-01   1.25520E-01
  opls_828  H828     1.0080     0.000    A    2.50000E-01   1.25520E-01
  opls_812  C812    12.0110     0.000    A    3.50000E-01   2.76144E-01
  opls_803  O803    15.9990     0.000    A    2.96000E-01   8.78640E-01
  opls_806  C806    12.0110     0.000    A    3.50000E-01   2.76144E-01
  opls_827  H827     1.0080     0.000    A    2.50000E-01   1.25520E-01
  opls_809  C809    12.0110     0.000    A    3.50000E-01   2.76144E-01
  opls_838  H838     1.0080     0.000    A    2.50000E-01   1.25520E-01
  opls_822  H822     1.0080     0.000    A    2.50000E-01   1.25520E-01
  opls_807  C807    12.0110     0.000    A    3.50000E-01   2.76144E-01
  opls_825  H825     1.0080     0.000    A    2.50000E-01   1.25520E-01
  opls_830  H830     1.0080     0.000    A    2.50000E-01   1.25520E-01
  opls_821  H821     1.0080     0.000    A    2.50000E-01   1.25520E-01
  opls_820  H820     1.0080     0.000    A    2.50000E-01   1.25520E-01
  opls_837  H837     1.0080     0.000    A    2.50000E-01   1.25520E-01
  opls_829  H829     1.0080     0.000    A    2.50000E-01   1.25520E-01
  opls_831  H831     1.0080     0.000    A    2.50000E-01   1.25520E-01
  opls_832  H832     1.0080     0.000    A    2.50000E-01   1.25520E-01
  opls_816  H816     1.0080     0.000    A    2.50000E-01   1.25520E-01
  opls_800  C800    12.0110     0.000    A    3.50000E-01   2.76144E-01
  opls_815  C815    12.0110     0.000    A    3.50000E-01   2.76144E-01
  opls_802  C802    12.0110     0.000    A    3.55000E-01   2.92880E-01
  opls_823  H823     1.0080     0.000    A    2.50000E-01   1.25520E-01
  opls_813  C813    12.0110     0.000    A    3.50000E-01   2.76144E-01
  opls_826  H826     1.0080     0.000    A    2.50000E-01   1.25520E-01
  opls_835  H835     1.0080     0.000    A    2.50000E-01   1.25520E-01
  opls_841  H841     1.0080     0.000    A    2.50000E-01   1.25520E-01
  opls_819  H819     1.0080     0.000    A    2.50000E-01   1.25520E-01
  opls_810  C810    12.0110     0.000    A    3.50000E-01   2.76144E-01
  opls_833  H833     1.0080     0.000    A    2.50000E-01   1.25520E-01
  opls_839  H839     1.0080     0.000    A    2.50000E-01   1.25520E-01
  opls_801  C801    12.0110     0.000    A    3.50000E-01   2.76144E-01
  opls_808  C808    12.0110     0.000    A    3.50000E-01   2.76144E-01
  opls_817  H817     1.0080     0.000    A    2.50000E-01   1.25520E-01
  opls_804  O804    15.9990     0.000    A    2.90000E-01   5.85760E-01
  opls_840  H840     1.0080     0.000    A    2.50000E-01   1.25520E-01
[ moleculetype ]
; Name               nrexcl
UNK                   3
[ atoms ]
;   nr       type  resnr residue  atom   cgnr     charge       mass  
     1   opls_800      1    UNK   C00      1     -0.236    12.0110 
     2   opls_801      1    UNK   C01      1    -0.1919    12.0110 
     3   opls_802      1    UNK   C02      1     0.4373    12.0110 
     4   opls_803      1    UNK   O03      1    -0.4488    15.9990 
     5   opls_804      1    UNK   O04      1    -0.3639    15.9990 
     6   opls_805      1    UNK   C05      1     0.0053    12.0110 
     7   opls_806      1    UNK   C06      1    -0.1375    12.0110 
     8   opls_807      1    UNK   C07      1    -0.1666    12.0110 
     9   opls_808      1    UNK   C08      1    -0.1688    12.0110 
    10   opls_809      1    UNK   C09      1    -0.0357    12.0110 
    11   opls_810      1    UNK   C0A      1     -0.235    12.0110 
    12   opls_811      1    UNK   C0B      1     -0.226    12.0110 
    13   opls_812      1    UNK   C0C      1    -0.0917    12.0110 
    14   opls_813      1    UNK   C0D      1    -0.2315    12.0110 
    15   opls_814      1    UNK   C0E      1    -0.0982    12.0110 
    16   opls_815      1    UNK   C0F      1    -0.2327    12.0110 
    17   opls_816      1    UNK   H0G      1     0.0955     1.0080 
    18   opls_817      1    UNK   H0H      1     0.0955     1.0080 
    19   opls_818      1    UNK   H0I      1     0.0955     1.0080 
    20   opls_819      1    UNK   H0J      1     0.1303     1.0080 
    21   opls_820      1    UNK   H0K      1     0.1303     1.0080 
    22   opls_821      1    UNK   H0M      1     0.1164     1.0080 
    23   opls_822      1    UNK   H0N      1     0.1164     1.0080 
    24   opls_823      1    UNK   H0O      1     0.1154     1.0080 
    25   opls_824      1    UNK   H0P      1     0.0938     1.0080 
    26   opls_825      1    UNK   H0Q      1     0.0938     1.0080 
    27   opls_826      1    UNK   H0R      1     0.0868     1.0080 
    28   opls_827      1    UNK   H0S      1     0.0868     1.0080 
    29   opls_828      1    UNK   H0T      1     0.0812     1.0080 
    30   opls_829      1    UNK   H0U      1     0.0812     1.0080 
    31   opls_830      1    UNK   H0V      1     0.0812     1.0080 
    32   opls_831      1    UNK   H0W      1     0.0808     1.0080 
    33   opls_832      1    UNK   H0X      2     0.0808     1.0080 
    34   opls_833      1    UNK   H0Y      2     0.0808     1.0080 
    35   opls_834      1    UNK   H0Z      2      0.089     1.0080 
    36   opls_835      1    UNK   H10      2     0.0815     1.0080 
    37   opls_836      1    UNK   H11      2     0.0815     1.0080 
    38   opls_837      1    UNK   H12      2     0.0815     1.0080 
    39   opls_838      1    UNK   H13      2     0.1018     1.0080 
    40   opls_839      1    UNK   H14      2     0.0813     1.0080 
    41   opls_840      1    UNK   H15      2     0.0813     1.0080 
    42   opls_841      1    UNK   H16      2     0.0813     1.0080 
[ bonds ]
    2     1     1      0.1529 224262.400
    3     2     1      0.1522 265265.600
    4     3     1      0.1229 476976.000
    5     3     1      0.1327 179075.200
    6     5     1      0.1410 267776.000
    7     6     1      0.1529 224262.400
    8     7     1      0.1529 224262.400
    9     8     1      0.1529 224262.400
   10     9     1      0.1529 224262.400
   11    10     1      0.1529 224262.400
   12    10     1      0.1529 224262.400
   13    10     1      0.1529 224262.400
   14    13     1      0.1529 224262.400
   15     7     1      0.1529 224262.400
   16    15     1      0.1529 224262.400
   17     1     1      0.1090 284512.000
   18     1     1      0.1090 284512.000
   19     1     1      0.1090 284512.000
   20     2     1      0.1090 284512.000
   21     2     1      0.1090 284512.000
   22     6     1      0.1090 284512.000
   23     6     1      0.1090 284512.000
   24     7     1      0.1090 284512.000
   25     8     1      0.1090 284512.000
   26     8     1      0.1090 284512.000
   27     9     1      0.1090 284512.000
   28     9     1      0.1090 284512.000
   29    11     1      0.1090 284512.000
   30    11     1      0.1090 284512.000
   31    11     1      0.1090 284512.000
   32    12     1      0.1090 284512.000
   33    12     1      0.1090 284512.000
   34    12     1      0.1090 284512.000
   35    13     1      0.1090 284512.000
   36    14     1      0.1090 284512.000
   37    14     1      0.1090 284512.000
   38    14     1      0.1090 284512.000
   39    15     1      0.1090 284512.000
   40    16     1      0.1090 284512.000
   41    16     1      0.1090 284512.000
   42    16     1      0.1090 284512.000
   15    13     1      0.1529 224262.400

[ angles ]
;  ai    aj    ak funct            c0            c1            c2            c3 
    1     2     3     1    111.100    527.184
    2     3     4     1    120.400    669.440
    2     3     5     1    111.400    677.808
    3     5     6     1    116.900    694.544
    5     6     7     1    109.500    418.400
    6     7     8     1    112.700    488.273
    7     8     9     1    112.700    488.273
    8     9    10     1    112.700    488.273
    9    10    11     1    112.700    488.273
    9    10    12     1    112.700    488.273
    9    10    13     1    112.700    488.273
   10    13    14     1    112.700    488.273
    6     7    15     1    112.700    488.273
    7    15    16     1    112.700    488.273
    2     1    17     1    110.700    313.800
    2     1    18     1    110.700    313.800
    2     1    19     1    110.700    313.800
    1     2    20     1    110.700    313.800
    1     2    21     1    110.700    313.800
    5     6    22     1    109.500    292.880
    5     6    23     1    109.500    292.880
    6     7    24     1    110.700    313.800
    7     8    25     1    110.700    313.800
    7     8    26     1    110.700    313.800
    8     9    27     1    110.700    313.800
    8     9    28     1    110.700    313.800
   10    11    29     1    110.700    313.800
   10    11    30     1    110.700    313.800
   10    11    31     1    110.700    313.800
   10    12    32     1    110.700    313.800
   10    12    33     1    110.700    313.800
   10    12    34     1    110.700    313.800
   10    13    35     1    110.700    313.800
   13    14    36     1    110.700    313.800
   13    14    37     1    110.700    313.800
   13    14    38     1    110.700    313.800
    7    15    39     1    110.700    313.800
   15    16    40     1    110.700    313.800
   15    16    41     1    110.700    313.800
   15    16    42     1    110.700    313.800
   11    10    12     1    112.700    488.273
   32    12    34     1    107.800    276.144
   12    10    13     1    112.700    488.273
   17     1    19     1    107.800    276.144
    3     2    20     1    109.500    292.880
    9     8    25     1    110.700    313.800
   10     9    28     1    110.700    313.800
    7     6    22     1    110.700    313.800
   33    12    34     1    107.800    276.144
    8     7    15     1    112.700    488.273
   10    13    15     1    112.700    488.273
   14    13    35     1    110.700    313.800
   37    14    38     1    107.800    276.144
   27     9    28     1    107.800    276.144
    7     6    23     1    110.700    313.800
   36    14    37     1    107.800    276.144
    7    15    13     1    112.700    488.273
   14    13    15     1    112.700    488.273
    4     3     5     1    123.400    694.544
   11    10    13     1    112.700    488.273
   18     1    19     1    107.800    276.144
   41    16    42     1    107.800    276.144
   16    15    39     1    110.700    313.800
   29    11    31     1    107.800    276.144
   22     6    23     1    107.800    276.144
   40    16    41     1    107.800    276.144
   40    16    42     1    107.800    276.144
   36    14    38     1    107.800    276.144
   25     8    26     1    107.800    276.144
   30    11    31     1    107.800    276.144
   20     2    21     1    107.800    276.144
   15     7    24     1    110.700    313.800
   17     1    18     1    107.800    276.144
   32    12    33     1    107.800    276.144
    9     8    26     1    110.700    313.800
   15    13    35     1    110.700    313.800
   29    11    30     1    107.800    276.144
    8     7    24     1    110.700    313.800
    3     2    21     1    109.500    292.880
   10     9    27     1    110.700    313.800
   13    15    39     1    110.700    313.800
   13    15    16     1    112.700    488.273

[ dihedrals ]
; IMPROPER DIHEDRAL ANGLES 
;  ai    aj    ak    al funct            c0            c1            c2            c3            c4            c5
     5     3     2     4    4        180.000     43.932     2  

[ dihedrals ]
; PROPER DIHEDRAL ANGLES
;  ai    aj    ak    al funct            c0            c1            c2            c3            c4            c5
   16   15   13   14        3       2.301  -1.464   0.837  -1.674  -0.000   0.000
   16   15    7    6        3       2.301  -1.464   0.837  -1.674  -0.000   0.000
   15   13   10   12        3       2.301  -1.464   0.837  -1.674  -0.000   0.000
   16   15   13   10        3       2.301  -1.464   0.837  -1.674  -0.000   0.000
   12   10    9    8        3       2.301  -1.464   0.837  -1.674  -0.000   0.000
   15    7    8    9        3       2.301  -1.464   0.837  -1.674  -0.000   0.000
   14   13   10   11        3       2.301  -1.464   0.837  -1.674  -0.000   0.000
   16   15    7    8        3       2.301  -1.464   0.837  -1.674  -0.000   0.000
   13   15    7    8        3       2.301  -1.464   0.837  -1.674  -0.000   0.000
   14   13   15    7        3       2.301  -1.464   0.837  -1.674  -0.000   0.000
   14   13   10   12        3       2.301  -1.464   0.837  -1.674  -0.000   0.000
   15   13   10   11        3       2.301  -1.464   0.837  -1.674  -0.000   0.000
   15   13   10    9        3       2.301  -1.464   0.837  -1.674  -0.000   0.000
   13   15    7    6        3       2.301  -1.464   0.837  -1.674  -0.000   0.000
   14   13   10    9        3       2.301  -1.464   0.837  -1.674  -0.000   0.000
   11   10    9    8        3       2.301  -1.464   0.837  -1.674  -0.000   0.000
   10    9    8    7        3       2.301  -1.464   0.837  -1.674  -0.000   0.000
    9    8    7    6        3       2.301  -1.464   0.837  -1.674  -0.000   0.000
   13   10    9    8        3       2.301  -1.464   0.837  -1.674  -0.000   0.000
   10   13   15    7        3       2.301  -1.464   0.837  -1.674  -0.000   0.000
    8    7    6    5        3       2.874   0.582   2.092  -5.548  -0.000   0.000
   15    7    6    5        3       2.874   0.582   2.092  -5.548  -0.000   0.000
    7    6    5    3        3      -2.197   5.201   0.527  -3.531  -0.000   0.000
    6    5    3    2        3      31.206  -9.768  -21.439  -0.000  -0.000   0.000
    6    5    3    4        3      21.439   0.000  -21.439  -0.000  -0.000   0.000
   21    2    3    4        3       0.000   0.000   0.000  -0.000  -0.000   0.000
   20    2    3    4        3       0.000   0.000   0.000  -0.000  -0.000   0.000
   21    2    3    5        3       0.276   0.828   0.000  -1.105  -0.000   0.000
   20    2    3    5        3       0.276   0.828   0.000  -1.105  -0.000   0.000
   17    1    2    3        3      -0.209  -0.628   0.000   0.837  -0.000   0.000
   18    1    2    3        3      -0.209  -0.628   0.000   0.837  -0.000   0.000
   19    1    2    3        3      -0.209  -0.628   0.000   0.837  -0.000   0.000
   40   16   15   13        3       0.628   1.883   0.000  -2.510  -0.000   0.000
   41   16   15    7        3       0.628   1.883   0.000  -2.510  -0.000   0.000
   32   12   10   11        3       0.628   1.883   0.000  -2.510  -0.000   0.000
   30   11   10   12        3       0.628   1.883   0.000  -2.510  -0.000   0.000
   38   14   13   15        3       0.628   1.883   0.000  -2.510  -0.000   0.000
   29   11   10   12        3       0.628   1.883   0.000  -2.510  -0.000   0.000
   27    9   10   13        3       0.628   1.883   0.000  -2.510  -0.000   0.000
   28    9   10   12        3       0.628   1.883   0.000  -2.510  -0.000   0.000
   22    6    7    8        3       0.628   1.883   0.000  -2.510  -0.000   0.000
   39   15   13   14        3       0.628   1.883   0.000  -2.510  -0.000   0.000
   42   16   15    7        3       0.628   1.883   0.000  -2.510  -0.000   0.000
   24    7    8    9        3       0.628   1.883   0.000  -2.510  -0.000   0.000
   23    6    7   15        3       0.628   1.883   0.000  -2.510  -0.000   0.000
   42   16   15   13        3       0.628   1.883   0.000  -2.510  -0.000   0.000
   38   14   13   10        3       0.628   1.883   0.000  -2.510  -0.000   0.000
   27    9   10   11        3       0.628   1.883   0.000  -2.510  -0.000   0.000
   39   15    7    6        3       0.628   1.883   0.000  -2.510  -0.000   0.000
   41   16   15   13        3       0.628   1.883   0.000  -2.510  -0.000   0.000
   27    9   10   12        3       0.628   1.883   0.000  -2.510  -0.000   0.000
   33   12   10    9        3       0.628   1.883   0.000  -2.510  -0.000   0.000
   37   14   13   15        3       0.628   1.883   0.000  -2.510  -0.000   0.000
   22    6    7   15        3       0.628   1.883   0.000  -2.510  -0.000   0.000
   28    9   10   13        3       0.628   1.883   0.000  -2.510  -0.000   0.000
   29   11   10   13        3       0.628   1.883   0.000  -2.510  -0.000   0.000
   34   12   10    9        3       0.628   1.883   0.000  -2.510  -0.000   0.000
   33   12   10   11        3       0.628   1.883   0.000  -2.510  -0.000   0.000
   37   14   13   10        3       0.628   1.883   0.000  -2.510  -0.000   0.000
   39   15    7    8        3       0.628   1.883   0.000  -2.510  -0.000   0.000
   36   14   13   15        3       0.628   1.883   0.000  -2.510  -0.000   0.000
   31   11   10    9        3       0.628   1.883   0.000  -2.510  -0.000   0.000
   28    9    8    7        3       0.628   1.883   0.000  -2.510  -0.000   0.000
   25    8    9   10        3       0.628   1.883   0.000  -2.510  -0.000   0.000
   26    8    7   15        3       0.628   1.883   0.000  -2.510  -0.000   0.000
   39   15   13   10        3       0.628   1.883   0.000  -2.510  -0.000   0.000
   26    8    7    6        3       0.628   1.883   0.000  -2.510  -0.000   0.000
   24    7   15   16        3       0.628   1.883   0.000  -2.510  -0.000   0.000
   34   12   10   13        3       0.628   1.883   0.000  -2.510  -0.000   0.000
   28    9   10   11        3       0.628   1.883   0.000  -2.510  -0.000   0.000
   31   11   10   12        3       0.628   1.883   0.000  -2.510  -0.000   0.000
   30   11   10   13        3       0.628   1.883   0.000  -2.510  -0.000   0.000
   33   12   10   13        3       0.628   1.883   0.000  -2.510  -0.000   0.000
   40   16   15    7        3       0.628   1.883   0.000  -2.510  -0.000   0.000
   36   14   13   10        3       0.628   1.883   0.000  -2.510  -0.000   0.000
   30   11   10    9        3       0.628   1.883   0.000  -2.510  -0.000   0.000
   29   11   10    9        3       0.628   1.883   0.000  -2.510  -0.000   0.000
   32   12   10    9        3       0.628   1.883   0.000  -2.510  -0.000   0.000
   24    7   15   13        3       0.628   1.883   0.000  -2.510  -0.000   0.000
   23    6    7    8        3       0.628   1.883   0.000  -2.510  -0.000   0.000
   25    8    7    6        3       0.628   1.883   0.000  -2.510  -0.000   0.000
   35   13   10    9        3       0.628   1.883   0.000  -2.510  -0.000   0.000
   35   13   10   12        3       0.628   1.883   0.000  -2.510  -0.000   0.000
   32   12   10   13        3       0.628   1.883   0.000  -2.510  -0.000   0.000
   35   13   10   11        3       0.628   1.883   0.000  -2.510  -0.000   0.000
   34   12   10   11        3       0.628   1.883   0.000  -2.510  -0.000   0.000
   25    8    7   15        3       0.628   1.883   0.000  -2.510  -0.000   0.000
   27    9    8    7        3       0.628   1.883   0.000  -2.510  -0.000   0.000
   31   11   10   13        3       0.628   1.883   0.000  -2.510  -0.000   0.000
   35   13   15   16        3       0.628   1.883   0.000  -2.510  -0.000   0.000
   26    8    9   10        3       0.628   1.883   0.000  -2.510  -0.000   0.000
   35   13   15    7        3       0.628   1.883   0.000  -2.510  -0.000   0.000
   36   14   13   35        3       0.628   1.883   0.000  -2.510  -0.000   0.000
   20    2    1   19        3       0.628   1.883   0.000  -2.510  -0.000   0.000
   21    2    1   19        3       0.628   1.883   0.000  -2.510  -0.000   0.000
   38   14   13   35        3       0.628   1.883   0.000  -2.510  -0.000   0.000
   25    8    7   24        3       0.628   1.883   0.000  -2.510  -0.000   0.000
   37   14   13   35        3       0.628   1.883   0.000  -2.510  -0.000   0.000
   27    9    8   25        3       0.628   1.883   0.000  -2.510  -0.000   0.000
   40   16   15   39        3       0.628   1.883   0.000  -2.510  -0.000   0.000
   42   16   15   39        3       0.628   1.883   0.000  -2.510  -0.000   0.000
   24    7    6   23        3       0.628   1.883   0.000  -2.510  -0.000   0.000
   28    9    8   26        3       0.628   1.883   0.000  -2.510  -0.000   0.000
   39   15   13   35        3       0.628   1.883   0.000  -2.510  -0.000   0.000
   26    8    7   24        3       0.628   1.883   0.000  -2.510  -0.000   0.000
   20    2    1   17        3       0.628   1.883   0.000  -2.510  -0.000   0.000
   39   15    7   24        3       0.628   1.883   0.000  -2.510  -0.000   0.000
   21    2    1   17        3       0.628   1.883   0.000  -2.510  -0.000   0.000
   20    2    1   18        3       0.628   1.883   0.000  -2.510  -0.000   0.000
   41   16   15   39        3       0.628   1.883   0.000  -2.510  -0.000   0.000
   24    7    6   22        3       0.628   1.883   0.000  -2.510  -0.000   0.000
   28    9    8   25        3       0.628   1.883   0.000  -2.510  -0.000   0.000
   21    2    1   18        3       0.628   1.883   0.000  -2.510  -0.000   0.000
   27    9    8   26        3       0.628   1.883   0.000  -2.510  -0.000   0.000
   24    7    6    5        3       0.979   2.937   0.000  -3.916  -0.000   0.000
   22    6    5    3        3       0.414   1.243   0.000  -1.657  -0.000   0.000
   23    6    5    3        3       0.414   1.243   0.000  -1.657  -0.000   0.000
    4    3    2    1        3       0.000   0.000   0.000  -0.000  -0.000   0.000
    5    3    2    1        3      -1.157  -3.471   0.000   4.628  -0.000   0.000

[ pairs ]
     1     4    1
     1     5    1
     2     6    1
     4     6    1
     3     7    1
     5     8    1
     6     9    1
     7    10    1
     8    11    1
     6    13    1
     8    12    1
     5    15    1
     3    17    1
     8    13    1
     7    14    1
     3    18    1
     6    16    1
     3    19    1
     9    14    1
     9    15    1
     8    16    1
     4    20    1
    11    14    1
     5    20    1
     4    21    1
     3    22    1
    12    14    1
    11    15    1
    10    16    1
     5    21    1
     3    23    1
    12    15    1
     5    24    1
    14    16    1
     8    22    1
     8    23    1
     6    25    1
     6    26    1
     9    24    1
     7    27    1
    10    25    1
     7    28    1
    10    26    1
    17    20    1
    15    22    1
    13    24    1
    18    20    1
    17    21    1
    15    23    1
    11    27    1
     9    29    1
    19    20    1
    18    21    1
    12    27    1
    11    28    1
     9    30    1
    19    21    1
    16    24    1
    15    25    1
    13    27    1
    12    28    1
     9    31    1
    15    26    1
    13    28    1
    12    29    1
     9    32    1
    13    29    1
    12    30    1
     9    33    1
     7    35    1
    13    30    1
    12    31    1
    11    32    1
     9    34    1
    13    31    1
    11    33    1
     9    35    1
    13    32    1
    11    34    1
     6    39    1
    22    24    1
    13    33    1
    11    35    1
    10    36    1
    23    24    1
    13    34    1
    12    35    1
    10    37    1
     8    39    1
     7    40    1
    10    38    1
     7    41    1
    24    25    1
    10    39    1
     7    42    1
    24    26    1
    16    35    1
    15    36    1
    25    27    1
    15    37    1
    26    27    1
    25    28    1
    15    38    1
    14    39    1
    13    40    1
    26    28    1
    13    41    1
    13    42    1
    24    39    1
    35    36    1
    35    37    1
    35    38    1
    35    39    1
    39    40    1
    39    41    1
    39    42    1

