
;
; GENERATED BY LigParGen Server
; Jorgensen Lab @ Yale University 
;
[ atomtypes ]
  opls_818  H818     1.0080     0.000    A    2.50000E-01   1.25520E-01
  opls_824  H824     1.0080     0.000    A    2.50000E-01   1.25520E-01
  opls_804  C804    12.0110     0.000    A    3.50000E-01   2.76144E-01
  opls_843  H843     1.0080     0.000    A    2.50000E-01   1.25520E-01
  opls_836  H836     1.0080     0.000    A    2.50000E-01   1.25520E-01
  opls_834  H834     1.0080     0.000    A    2.50000E-01   1.25520E-01
  opls_828  H828     1.0080     0.000    A    2.50000E-01   1.25520E-01
  opls_814  C814    12.0110     0.000    A    3.55000E-01   2.92880E-01
  opls_806  O806    15.9990     0.000    A    2.90000E-01   5.85760E-01
  opls_802  C802    12.0110     0.000    A    3.50000E-01   2.76144E-01
  opls_827  H827     1.0080     0.000    A    2.50000E-01   1.25520E-01
  opls_801  C801    12.0110     0.000    A    3.50000E-01   2.76144E-01
  opls_838  H838     1.0080     0.000    A    2.50000E-01   1.25520E-01
  opls_822  H822     1.0080     0.000    A    2.50000E-01   1.25520E-01
  opls_803  C803    12.0110     0.000    A    3.50000E-01   2.76144E-01
  opls_825  H825     1.0080     0.000    A    2.50000E-01   1.25520E-01
  opls_830  H830     1.0080     0.000    A    2.50000E-01   1.25520E-01
  opls_810  O810    15.9990     0.000    A    2.96000E-01   8.78640E-01
  opls_821  H821     1.0080     0.000    A    2.50000E-01   1.25520E-01
  opls_842  H842     1.0080     0.000    A    2.50000E-01   1.25520E-01
  opls_820  H820     1.0080     0.000    A    2.50000E-01   1.25520E-01
  opls_809  C809    12.0110     0.000    A    3.55000E-01   2.92880E-01
  opls_837  H837     1.0080     0.000    A    2.50000E-01   1.25520E-01
  opls_829  H829     1.0080     0.000    A    2.50000E-01   1.25520E-01
  opls_831  H831     1.0080     0.000    A    2.50000E-01   1.25520E-01
  opls_832  H832     1.0080     0.000    A    2.50000E-01   1.25520E-01
  opls_800  C800    12.0110     0.000    A    3.50000E-01   2.76144E-01
  opls_805  C805    12.0110     0.000    A    3.50000E-01   2.76144E-01
  opls_811  C811    12.0110     0.000    A    3.50000E-01   2.76144E-01
  opls_823  H823     1.0080     0.000    A    2.50000E-01   1.25520E-01
  opls_813  C813    12.0110     0.000    A    3.50000E-01   2.76144E-01
  opls_826  H826     1.0080     0.000    A    2.50000E-01   1.25520E-01
  opls_835  H835     1.0080     0.000    A    2.50000E-01   1.25520E-01
  opls_841  H841     1.0080     0.000    A    2.50000E-01   1.25520E-01
  opls_819  H819     1.0080     0.000    A    2.50000E-01   1.25520E-01
  opls_816  C816    12.0110     0.000    A    3.50000E-01   2.76144E-01
  opls_833  H833     1.0080     0.000    A    2.50000E-01   1.25520E-01
  opls_839  H839     1.0080     0.000    A    2.50000E-01   1.25520E-01
  opls_817  C817    12.0110     0.000    A    3.50000E-01   2.76144E-01
  opls_812  C812    12.0110     0.000    A    3.50000E-01   2.76144E-01
  opls_808  C808    12.0110     0.000    A    3.50000E-01   2.76144E-01
  opls_815  O815    15.9990     0.000    A    2.96000E-01   8.78640E-01
  opls_840  H840     1.0080     0.000    A    2.50000E-01   1.25520E-01
  opls_844  H844     1.0080     0.000    A    2.50000E-01   1.25520E-01
  opls_845  H845     1.0080     0.000    A    2.50000E-01   1.25520E-01
  opls_807  C807    12.0110     0.000    A    3.50000E-01   2.76144E-01
[ moleculetype ]
; Name               nrexcl
UNK                   3
[ atoms ]
;   nr       type  resnr residue  atom   cgnr     charge       mass  
     1   opls_800      1    UNK   C00      1    -0.2418    12.0110 
     2   opls_801      1    UNK   C01      1    -0.1732    12.0110 
     3   opls_802      1    UNK   C02      1    -0.2002    12.0110 
     4   opls_803      1    UNK   C03      1     0.1622    12.0110 
     5   opls_804      1    UNK   C04      1    -0.2007    12.0110 
     6   opls_805      1    UNK   C05      1    -0.2381    12.0110 
     7   opls_806      1    UNK   O06      1    -0.4037    15.9990 
     8   opls_807      1    UNK   C07      1    -0.0407    12.0110 
     9   opls_808      1    UNK   C08      1    -0.1773    12.0110 
    10   opls_809      1    UNK   C09      1     0.3238    12.0110 
    11   opls_810      1    UNK   O0A      1    -0.4571    15.9990 
    12   opls_811      1    UNK   C0B      1    -0.1747    12.0110 
    13   opls_812      1    UNK   C0C      1    -0.1734    12.0110 
    14   opls_813      1    UNK   C0D      1    -0.1903    12.0110 
    15   opls_814      1    UNK   C0E      1     0.3205    12.0110 
    16   opls_815      1    UNK   O0F      1    -0.4453    15.9990 
    17   opls_816      1    UNK   C0G      1    -0.1698    12.0110 
    18   opls_817      1    UNK   C0H      1    -0.2453    12.0110 
    19   opls_818      1    UNK   H0I      1     0.0847     1.0080 
    20   opls_819      1    UNK   H0J      1     0.0847     1.0080 
    21   opls_820      1    UNK   H0K      1     0.0847     1.0080 
    22   opls_821      1    UNK   H0M      1     0.0918     1.0080 
    23   opls_822      1    UNK   H0N      1     0.0918     1.0080 
    24   opls_823      1    UNK   H0O      1     0.1007     1.0080 
    25   opls_824      1    UNK   H0P      1     0.1007     1.0080 
    26   opls_825      1    UNK   H0Q      1      0.103     1.0080 
    27   opls_826      1    UNK   H0R      1      0.103     1.0080 
    28   opls_827      1    UNK   H0S      1     0.0843     1.0080 
    29   opls_828      1    UNK   H0T      1     0.0843     1.0080 
    30   opls_829      1    UNK   H0U      1     0.0843     1.0080 
    31   opls_830      1    UNK   H0V      1     0.0824     1.0080 
    32   opls_831      1    UNK   H0W      1     0.0824     1.0080 
    33   opls_832      1    UNK   H0X      2     0.0824     1.0080 
    34   opls_833      1    UNK   H0Y      2     0.1315     1.0080 
    35   opls_834      1    UNK   H0Z      2     0.1303     1.0080 
    36   opls_835      1    UNK   H10      2     0.1082     1.0080 
    37   opls_836      1    UNK   H11      2     0.1082     1.0080 
    38   opls_837      1    UNK   H12      2     0.1019     1.0080 
    39   opls_838      1    UNK   H13      2     0.1019     1.0080 
    40   opls_839      1    UNK   H14      2     0.1327     1.0080 
    41   opls_840      1    UNK   H15      2     0.1066     1.0080 
    42   opls_841      1    UNK   H16      2     0.0971     1.0080 
    43   opls_842      1    UNK   H17      2     0.0971     1.0080 
    44   opls_843      1    UNK   H18      2     0.0879     1.0080 
    45   opls_844      1    UNK   H19      2     0.0879     1.0080 
    46   opls_845      1    UNK   H1A      2     0.0879     1.0080 
[ bonds ]
    2     1     1      0.1529 224262.400
    3     2     1      0.1529 224262.400
    4     3     1      0.1529 224262.400
    5     4     1      0.1529 224262.400
    6     5     1      0.1529 224262.400
    7     4     1      0.1410 267776.000
    8     7     1      0.1410 267776.000
    9     4     1      0.1529 224262.400
   10     9     1      0.1522 265265.600
   11    10     1      0.1229 476976.000
   12     9     1      0.1529 224262.400
   13    12     1      0.1529 224262.400
   14    13     1      0.1529 224262.400
   15    14     1      0.1522 265265.600
   16    15     1      0.1229 476976.000
   17    14     1      0.1529 224262.400
   18    17     1      0.1529 224262.400
   19     1     1      0.1090 284512.000
   20     1     1      0.1090 284512.000
   21     1     1      0.1090 284512.000
   22     2     1      0.1090 284512.000
   23     2     1      0.1090 284512.000
   24     3     1      0.1090 284512.000
   25     3     1      0.1090 284512.000
   26     5     1      0.1090 284512.000
   27     5     1      0.1090 284512.000
   28     6     1      0.1090 284512.000
   29     6     1      0.1090 284512.000
   30     6     1      0.1090 284512.000
   31     8     1      0.1090 284512.000
   32     8     1      0.1090 284512.000
   33     8     1      0.1090 284512.000
   34     9     1      0.1090 284512.000
   35    10     1      0.1090 284512.000
   36    12     1      0.1090 284512.000
   37    12     1      0.1090 284512.000
   38    13     1      0.1090 284512.000
   39    13     1      0.1090 284512.000
   40    14     1      0.1090 284512.000
   41    15     1      0.1090 284512.000
   42    17     1      0.1090 284512.000
   43    17     1      0.1090 284512.000
   44    18     1      0.1090 284512.000
   45    18     1      0.1090 284512.000
   46    18     1      0.1090 284512.000

[ angles ]
;  ai    aj    ak funct            c0            c1            c2            c3 
    1     2     3     1    112.700    488.273
    2     3     4     1    112.700    488.273
    3     4     5     1    112.700    488.273
    4     5     6     1    112.700    488.273
    3     4     7     1    109.500    418.400
    4     7     8     1    109.500    502.080
    3     4     9     1    112.700    488.273
    4     9    10     1    111.100    527.184
    9    10    11     1    120.400    669.440
    4     9    12     1    112.700    488.273
    9    12    13     1    112.700    488.273
   12    13    14     1    112.700    488.273
   13    14    15     1    111.100    527.184
   14    15    16     1    120.400    669.440
   13    14    17     1    112.700    488.273
   14    17    18     1    112.700    488.273
    2     1    19     1    110.700    313.800
    2     1    20     1    110.700    313.800
    2     1    21     1    110.700    313.800
    1     2    22     1    110.700    313.800
    1     2    23     1    110.700    313.800
    2     3    24     1    110.700    313.800
    2     3    25     1    110.700    313.800
    4     5    26     1    110.700    313.800
    4     5    27     1    110.700    313.800
    5     6    28     1    110.700    313.800
    5     6    29     1    110.700    313.800
    5     6    30     1    110.700    313.800
    7     8    31     1    109.500    292.880
    7     8    32     1    109.500    292.880
    7     8    33     1    109.500    292.880
    4     9    34     1    110.700    313.800
    9    10    35     1    115.000    292.880
    9    12    36     1    110.700    313.800
    9    12    37     1    110.700    313.800
   12    13    38     1    110.700    313.800
   12    13    39     1    110.700    313.800
   13    14    40     1    110.700    313.800
   14    15    41     1    115.000    292.880
   14    17    42     1    110.700    313.800
   14    17    43     1    110.700    313.800
   17    18    44     1    110.700    313.800
   17    18    45     1    110.700    313.800
   17    18    46     1    110.700    313.800
   16    15    41     1    123.000    292.880
   28     6    29     1    107.800    276.144
   32     8    33     1    107.800    276.144
   13    12    37     1    110.700    313.800
   22     2    23     1    107.800    276.144
    5     4     7     1    109.500    418.400
   15    14    40     1    109.500    292.880
    5     4     9     1    112.700    488.273
   14    13    39     1    110.700    313.800
   45    18    46     1    107.800    276.144
   38    13    39     1    107.800    276.144
   10     9    34     1    109.500    292.880
    7     4     9     1    109.500    418.400
   31     8    33     1    107.800    276.144
    3     2    22     1    110.700    313.800
    3     2    23     1    110.700    313.800
   18    17    43     1    110.700    313.800
    6     5    27     1    110.700    313.800
   13    12    36     1    110.700    313.800
   26     5    27     1    107.800    276.144
   28     6    30     1    107.800    276.144
   19     1    21     1    107.800    276.144
    4     3    25     1    110.700    313.800
   44    18    46     1    107.800    276.144
   44    18    45     1    107.800    276.144
   14    13    38     1    110.700    313.800
   29     6    30     1    107.800    276.144
    4     3    24     1    110.700    313.800
   17    14    40     1    110.700    313.800
    6     5    26     1    110.700    313.800
   24     3    25     1    107.800    276.144
   19     1    20     1    107.800    276.144
   31     8    32     1    107.800    276.144
   12     9    34     1    110.700    313.800
   36    12    37     1    107.800    276.144
   18    17    42     1    110.700    313.800
   15    14    17     1    111.100    527.184
   20     1    21     1    107.800    276.144
   42    17    43     1    107.800    276.144
   10     9    12     1    111.100    527.184
   11    10    35     1    123.000    292.880

[ dihedrals ]
; IMPROPER DIHEDRAL ANGLES 
;  ai    aj    ak    al funct            c0            c1            c2            c3            c4            c5
    41    15    14    16    4        180.000     43.932     2  
    35    10     9    11    4        180.000     43.932     2  

[ dihedrals ]
; PROPER DIHEDRAL ANGLES
;  ai    aj    ak    al funct            c0            c1            c2            c3            c4            c5
   10    9    4    3        3      -4.960   6.286   1.310  -2.636  -0.000   0.000
   10    9    4    5        3      -4.960   6.286   1.310  -2.636  -0.000   0.000
   15   14   13   12        3      -4.960   6.286   1.310  -2.636  -0.000   0.000
   10    9    4    7        3      -12.929  12.929   0.000  -0.000  -0.000   0.000
   12    9   10   11        3       0.000   0.000   0.000  -0.000  -0.000   0.000
   17   14   15   16        3       0.000   0.000   0.000  -0.000  -0.000   0.000
   18   17   14   15        3      -4.960   6.286   1.310  -2.636  -0.000   0.000
   13   12    9   10        3      -4.960   6.286   1.310  -2.636  -0.000   0.000
    9    4    5    6        3       2.301  -1.464   0.837  -1.674  -0.000   0.000
   17   14   13   12        3       2.301  -1.464   0.837  -1.674  -0.000   0.000
    9    4    3    2        3       2.301  -1.464   0.837  -1.674  -0.000   0.000
   12    9    4    3        3       2.301  -1.464   0.837  -1.674  -0.000   0.000
   12    9    4    5        3       2.301  -1.464   0.837  -1.674  -0.000   0.000
    4    3    2    1        3       2.301  -1.464   0.837  -1.674  -0.000   0.000
    5    4    3    2        3       2.301  -1.464   0.837  -1.674  -0.000   0.000
    6    5    4    3        3       2.301  -1.464   0.837  -1.674  -0.000   0.000
   18   17   14   13        3       2.301  -1.464   0.837  -1.674  -0.000   0.000
   14   13   12    9        3       2.301  -1.464   0.837  -1.674  -0.000   0.000
   13   12    9    4        3       2.301  -1.464   0.837  -1.674  -0.000   0.000
   12    9    4    7        3       2.874   0.582   2.092  -5.548  -0.000   0.000
    9    4    7    8        3       1.715   2.845   1.046  -5.607  -0.000   0.000
    8    7    4    3        3       1.715   2.845   1.046  -5.607  -0.000   0.000
    8    7    4    5        3       1.715   2.845   1.046  -5.607  -0.000   0.000
   35   10    9    4        3       0.000   0.000   0.000  -0.000  -0.000   0.000
   41   15   14   17        3       0.000   0.000   0.000  -0.000  -0.000   0.000
   35   10    9   12        3       0.000   0.000   0.000  -0.000  -0.000   0.000
   41   15   14   13        3       0.000   0.000   0.000  -0.000  -0.000   0.000
   41   15   14   40        3       0.753   2.259   0.000  -3.012  -0.000   0.000
   35   10    9   34        3       0.753   2.259   0.000  -3.012  -0.000   0.000
   34    9   10   11        3       0.000   0.000   0.000  -0.000  -0.000   0.000
   40   14   15   16        3       0.000   0.000   0.000  -0.000  -0.000   0.000
   38   13   14   15        3      -0.209  -0.628   0.000   0.837  -0.000   0.000
   42   17   14   15        3      -0.209  -0.628   0.000   0.837  -0.000   0.000
   43   17   14   15        3      -0.209  -0.628   0.000   0.837  -0.000   0.000
   36   12    9   10        3      -0.209  -0.628   0.000   0.837  -0.000   0.000
   37   12    9   10        3      -0.209  -0.628   0.000   0.837  -0.000   0.000
   39   13   14   15        3      -0.209  -0.628   0.000   0.837  -0.000   0.000
   26    5    4    3        3       0.628   1.883   0.000  -2.510  -0.000   0.000
   39   13   12    9        3       0.628   1.883   0.000  -2.510  -0.000   0.000
   30    6    5    4        3       0.628   1.883   0.000  -2.510  -0.000   0.000
   43   17   14   13        3       0.628   1.883   0.000  -2.510  -0.000   0.000
   34    9    4    5        3       0.628   1.883   0.000  -2.510  -0.000   0.000
   37   12   13   14        3       0.628   1.883   0.000  -2.510  -0.000   0.000
   46   18   17   14        3       0.628   1.883   0.000  -2.510  -0.000   0.000
   24    3    4    5        3       0.628   1.883   0.000  -2.510  -0.000   0.000
   25    3    2    1        3       0.628   1.883   0.000  -2.510  -0.000   0.000
   27    5    4    9        3       0.628   1.883   0.000  -2.510  -0.000   0.000
   22    2    3    4        3       0.628   1.883   0.000  -2.510  -0.000   0.000
   27    5    4    3        3       0.628   1.883   0.000  -2.510  -0.000   0.000
   24    3    4    9        3       0.628   1.883   0.000  -2.510  -0.000   0.000
   36   12    9    4        3       0.628   1.883   0.000  -2.510  -0.000   0.000
   26    5    4    9        3       0.628   1.883   0.000  -2.510  -0.000   0.000
   20    1    2    3        3       0.628   1.883   0.000  -2.510  -0.000   0.000
   24    3    2    1        3       0.628   1.883   0.000  -2.510  -0.000   0.000
   34    9   12   13        3       0.628   1.883   0.000  -2.510  -0.000   0.000
   39   13   14   17        3       0.628   1.883   0.000  -2.510  -0.000   0.000
   36   12   13   14        3       0.628   1.883   0.000  -2.510  -0.000   0.000
   34    9    4    3        3       0.628   1.883   0.000  -2.510  -0.000   0.000
   38   13   14   17        3       0.628   1.883   0.000  -2.510  -0.000   0.000
   40   14   13   12        3       0.628   1.883   0.000  -2.510  -0.000   0.000
   21    1    2    3        3       0.628   1.883   0.000  -2.510  -0.000   0.000
   42   17   14   13        3       0.628   1.883   0.000  -2.510  -0.000   0.000
   45   18   17   14        3       0.628   1.883   0.000  -2.510  -0.000   0.000
   29    6    5    4        3       0.628   1.883   0.000  -2.510  -0.000   0.000
   44   18   17   14        3       0.628   1.883   0.000  -2.510  -0.000   0.000
   28    6    5    4        3       0.628   1.883   0.000  -2.510  -0.000   0.000
   19    1    2    3        3       0.628   1.883   0.000  -2.510  -0.000   0.000
   25    3    4    5        3       0.628   1.883   0.000  -2.510  -0.000   0.000
   40   14   17   18        3       0.628   1.883   0.000  -2.510  -0.000   0.000
   37   12    9    4        3       0.628   1.883   0.000  -2.510  -0.000   0.000
   23    2    3    4        3       0.628   1.883   0.000  -2.510  -0.000   0.000
   25    3    4    9        3       0.628   1.883   0.000  -2.510  -0.000   0.000
   38   13   12    9        3       0.628   1.883   0.000  -2.510  -0.000   0.000
   23    2    1   21        3       0.628   1.883   0.000  -2.510  -0.000   0.000
   23    2    1   19        3       0.628   1.883   0.000  -2.510  -0.000   0.000
   45   18   17   42        3       0.628   1.883   0.000  -2.510  -0.000   0.000
   22    2    1   20        3       0.628   1.883   0.000  -2.510  -0.000   0.000
   24    3    2   22        3       0.628   1.883   0.000  -2.510  -0.000   0.000
   23    2    1   20        3       0.628   1.883   0.000  -2.510  -0.000   0.000
   22    2    1   21        3       0.628   1.883   0.000  -2.510  -0.000   0.000
   39   13   12   37        3       0.628   1.883   0.000  -2.510  -0.000   0.000
   30    6    5   27        3       0.628   1.883   0.000  -2.510  -0.000   0.000
   29    6    5   26        3       0.628   1.883   0.000  -2.510  -0.000   0.000
   28    6    5   27        3       0.628   1.883   0.000  -2.510  -0.000   0.000
   30    6    5   26        3       0.628   1.883   0.000  -2.510  -0.000   0.000
   40   14   13   39        3       0.628   1.883   0.000  -2.510  -0.000   0.000
   38   13   12   37        3       0.628   1.883   0.000  -2.510  -0.000   0.000
   45   18   17   43        3       0.628   1.883   0.000  -2.510  -0.000   0.000
   43   17   14   40        3       0.628   1.883   0.000  -2.510  -0.000   0.000
   46   18   17   42        3       0.628   1.883   0.000  -2.510  -0.000   0.000
   42   17   14   40        3       0.628   1.883   0.000  -2.510  -0.000   0.000
   25    3    2   22        3       0.628   1.883   0.000  -2.510  -0.000   0.000
   39   13   12   36        3       0.628   1.883   0.000  -2.510  -0.000   0.000
   46   18   17   43        3       0.628   1.883   0.000  -2.510  -0.000   0.000
   28    6    5   26        3       0.628   1.883   0.000  -2.510  -0.000   0.000
   36   12    9   34        3       0.628   1.883   0.000  -2.510  -0.000   0.000
   40   14   13   38        3       0.628   1.883   0.000  -2.510  -0.000   0.000
   38   13   12   36        3       0.628   1.883   0.000  -2.510  -0.000   0.000
   44   18   17   43        3       0.628   1.883   0.000  -2.510  -0.000   0.000
   29    6    5   27        3       0.628   1.883   0.000  -2.510  -0.000   0.000
   22    2    1   19        3       0.628   1.883   0.000  -2.510  -0.000   0.000
   44   18   17   42        3       0.628   1.883   0.000  -2.510  -0.000   0.000
   37   12    9   34        3       0.628   1.883   0.000  -2.510  -0.000   0.000
   25    3    2   23        3       0.628   1.883   0.000  -2.510  -0.000   0.000
   24    3    2   23        3       0.628   1.883   0.000  -2.510  -0.000   0.000
   27    5    4    7        3       0.979   2.937   0.000  -3.916  -0.000   0.000
   25    3    4    7        3       0.979   2.937   0.000  -3.916  -0.000   0.000
   34    9    4    7        3       0.979   2.937   0.000  -3.916  -0.000   0.000
   26    5    4    7        3       0.979   2.937   0.000  -3.916  -0.000   0.000
   24    3    4    7        3       0.979   2.937   0.000  -3.916  -0.000   0.000
   32    8    7    4        3       1.590   4.770   0.000  -6.360  -0.000   0.000
   33    8    7    4        3       1.590   4.770   0.000  -6.360  -0.000   0.000
   31    8    7    4        3       1.590   4.770   0.000  -6.360  -0.000   0.000
   16   15   14   13        3       0.000   0.000   0.000  -0.000  -0.000   0.000
   11   10    9    4        3       0.000   0.000   0.000  -0.000  -0.000   0.000
    7    4    5    6        3       2.874   0.582   2.092  -5.548  -0.000   0.000
    7    4    3    2        3       2.874   0.582   2.092  -5.548  -0.000   0.000

[ pairs ]
     1     4    1
     2     5    1
     3     6    1
     2     7    1
     3     8    1
     2     9    1
     6     7    1
     5     8    1
     3    10    1
     6     9    1
     5    10    1
     4    11    1
     3    12    1
     8     9    1
     7    10    1
     5    12    1
     4    13    1
     7    12    1
     3    19    1
    11    12    1
    10    13    1
     9    14    1
     3    20    1
     3    21    1
     1    24    1
     4    22    1
     1    25    1
    12    15    1
     4    23    1
    13    16    1
    12    17    1
     5    24    1
     3    26    1
     5    25    1
     3    27    1
    13    18    1
     7    24    1
     7    25    1
     4    28    1
    16    17    1
    15    18    1
     9    24    1
     7    26    1
     4    29    1
     9    25    1
     7    27    1
     4    30    1
     9    26    1
     4    31    1
     9    27    1
     4    32    1
     4    33    1
     3    34    1
     5    34    1
     4    35    1
     4    36    1
    19    22    1
     7    34    1
     4    37    1
    20    22    1
    19    23    1
    21    22    1
    20    23    1
    21    23    1
    11    34    1
    22    24    1
    10    36    1
    23    24    1
    22    25    1
    13    34    1
    12    35    1
    10    37    1
     9    38    1
    23    25    1
     9    39    1
    14    36    1
    14    37    1
    12    40    1
    15    38    1
    26    28    1
    15    39    1
    13    41    1
    27    28    1
    26    29    1
    17    38    1
    13    42    1
    27    29    1
    26    30    1
    17    39    1
    16    40    1
    13    43    1
    27    30    1
    15    42    1
    18    40    1
    17    41    1
    15    43    1
    14    44    1
    14    45    1
    14    46    1
    34    35    1
    34    36    1
    34    37    1
    36    38    1
    37    38    1
    36    39    1
    37    39    1
    38    40    1
    39    40    1
    40    41    1
    40    42    1
    40    43    1
    42    44    1
    43    44    1
    42    45    1
    43    45    1
    42    46    1
    43    46    1

