LIGPARGEN GENERATED GRO FILE
   46
    1UNK    C00    1   0.100   0.100   0.000
    1UNK    C01    2  -0.052   0.100   0.000
    1UNK    C02    3  -0.110   0.100   0.143
    1UNK    C03    4  -0.266   0.111   0.151
    1UNK    C04    5  -0.337  -0.009   0.080
    1UNK    C05    6  -0.296  -0.150   0.121
    1UNK    O06    7  -0.314   0.121   0.287
    1UNK    C07    8  -0.251   0.047   0.390
    1UNK    C08    9  -0.314   0.246   0.085
    1UNK    C09   10  -0.466   0.257   0.093
    1UNK    O0A   11  -0.536   0.275  -0.006
    1UNK    C0B   12  -0.252   0.371   0.152
    1UNK    C0C   13  -0.300   0.507   0.097
    1UNK    C0D   14  -0.228   0.625   0.165
    1UNK    C0E   15  -0.079   0.617   0.137
    1UNK    O0F   16   0.005   0.601   0.224
    1UNK    C0G   17  -0.283   0.759   0.114
    1UNK    C0H   18  -0.216   0.880   0.178
    1UNK    H0I   19   0.138   0.093  -0.103
    1UNK    H0J   20   0.140   0.015   0.056
    1UNK    H0K   21   0.139   0.192   0.044
    1UNK    H0M   22  -0.087   0.012  -0.055
    1UNK    H0N   23  -0.085   0.188  -0.056
    1UNK    H0O   24  -0.064   0.181   0.201
    1UNK    H0P   25  -0.076   0.009   0.193
    1UNK    H0Q   26  -0.321  -0.000  -0.028
    1UNK    H0R   27  -0.445  -0.002   0.097
    1UNK    H0S   28  -0.189  -0.167   0.111
    1UNK    H0T   29  -0.348  -0.223   0.057
    1UNK    H0U   30  -0.327  -0.173   0.224
    1UNK    H0V   31  -0.314   0.054   0.479
    1UNK    H0W   32  -0.153   0.089   0.414
    1UNK    H0X   33  -0.241  -0.059   0.365
    1UNK    H0Y   34  -0.289   0.247  -0.022
    1UNK    H0Z   35  -0.509   0.252   0.194
    1UNK    H10   36  -0.144   0.367   0.138
    1UNK    H11   37  -0.271   0.369   0.260
    1UNK    H12   38  -0.408   0.517   0.113
    1UNK    H13   39  -0.283   0.509  -0.012
    1UNK    H14   40  -0.242   0.618   0.273
    1UNK    H15   41  -0.050   0.627   0.030
    1UNK    H16   42  -0.391   0.764   0.135
    1UNK    H17   43  -0.271   0.766   0.005
    1UNK    H18   44  -0.224   0.876   0.287
    1UNK    H19   45  -0.263   0.972   0.144
    1UNK    H1A   46  -0.110   0.885   0.152
   1.00000   1.00000   1.00000

