LIGPARGEN GENERATED GRO FILE
   29
    1UNK    C00    1   0.100   0.100   0.000
    1UNK    C01    2  -0.052   0.100   0.000
    1UNK    C02    3  -0.106   0.100   0.143
    1UNK    C03    4  -0.260   0.106   0.154
    1UNK    C04    5  -0.336  -0.008   0.084
    1UNK    C05    6  -0.304  -0.148   0.138
    1UNK    C06    7  -0.382  -0.256   0.065
    1UNK    F07    8  -0.515  -0.234   0.079
    1UNK    F08    9  -0.355  -0.251  -0.068
    1UNK    C09   10  -0.298   0.112   0.301
    1UNK    O0A   11  -0.233   0.061   0.391
    1UNK    O0B   12  -0.414   0.182   0.318
    1UNK    C0C   13  -0.455   0.190   0.455
    1UNK    H0D   14   0.138   0.095  -0.102
    1UNK    H0E   15   0.139   0.014   0.055
    1UNK    H0F   16   0.139   0.191   0.047
    1UNK    H0G   17  -0.087   0.011  -0.054
    1UNK    H0H   18  -0.088   0.188  -0.054
    1UNK    H0I   19  -0.064   0.187   0.196
    1UNK    H0J   20  -0.068   0.012   0.196
    1UNK    H0K   21  -0.291   0.201   0.108
    1UNK    H0M   22  -0.316  -0.004  -0.024
    1UNK    H0N   23  -0.444   0.010   0.095
    1UNK    H0O   24  -0.329  -0.153   0.244
    1UNK    H0P   25  -0.197  -0.169   0.127
    1UNK    H0Q   26  -0.359  -0.356   0.103
    1UNK    H0R   27  -0.551   0.242   0.458
    1UNK    H0S   28  -0.383   0.249   0.512
    1UNK    H0T   29  -0.468   0.090   0.498
   1.00000   1.00000   1.00000

