LIGPARGEN GENERATED GRO FILE
   34
    1UNK    C00    1   0.100   0.100   0.000
    1UNK    C01    2  -0.052   0.100   0.000
    1UNK    C02    3  -0.108   0.100   0.142
    1UNK    C03    4  -0.261   0.100   0.143
    1UNK    C04    5  -0.315   0.089   0.285
    1UNK    O05    6  -0.256   0.144   0.378
    1UNK    C06    7  -0.448   0.012   0.308
    1UNK    C07    8  -0.488   0.027   0.456
    1UNK    C08    9  -0.557   0.083   0.224
    1UNK    C09   10  -0.432  -0.138   0.266
    1UNK    C0A   11  -0.319  -0.209   0.342
    1UNK    C0B   12  -0.560  -0.221   0.281
    1UNK    H0C   13   0.138   0.100  -0.103
    1UNK    H0D   14   0.139   0.011   0.051
    1UNK    H0E   15   0.139   0.189   0.051
    1UNK    H0F   16  -0.088   0.012  -0.054
    1UNK    H0G   17  -0.088   0.188  -0.054
    1UNK    H0H   18  -0.071   0.188   0.196
    1UNK    H0I   19  -0.071   0.012   0.196
    1UNK    H0J   20  -0.296   0.017   0.082
    1UNK    H0K   21  -0.300   0.192   0.099
    1UNK    H0M   22  -0.501   0.132   0.484
    1UNK    H0N   23  -0.411  -0.014   0.523
    1UNK    H0O   24  -0.583  -0.024   0.479
    1UNK    H0P   25  -0.559   0.191   0.247
    1UNK    H0Q   26  -0.657   0.044   0.244
    1UNK    H0R   27  -0.538   0.074   0.117
    1UNK    H0S   28  -0.406  -0.142   0.160
    1UNK    H0T   29  -0.341  -0.218   0.449
    1UNK    H0U   30  -0.224  -0.156   0.331
    1UNK    H0V   31  -0.304  -0.310   0.302
    1UNK    H0W   32  -0.593  -0.229   0.385
    1UNK    H0X   33  -0.543  -0.323   0.244
    1UNK    H0Y   34  -0.643  -0.180   0.222
   1.00000   1.00000   1.00000

