LIGPARGEN GENERATED GRO FILE
   31
    1UNK    C00    1   0.100   0.100   0.000
    1UNK    C01    2  -0.052   0.100   0.000
    1UNK    C02    3  -0.108   0.100   0.142
    1UNK    C03    4  -0.260   0.100   0.142
    1UNK    O04    5  -0.326   0.048   0.051
    1UNK    C05    6  -0.327   0.163   0.262
    1UNK    C06    7  -0.479   0.157   0.250
    1UNK    S07    8  -0.555   0.231   0.393
    1UNK    O08    9  -0.514   0.154   0.509
    1UNK    O09   10  -0.531   0.374   0.385
    1UNK    C0A   11  -0.730   0.202   0.366
    1UNK    C0B   12  -0.813   0.260   0.480
    1UNK    C0C   13  -0.961   0.236   0.460
    1UNK    H0D   14   0.138   0.100  -0.103
    1UNK    H0E   15   0.139   0.011   0.050
    1UNK    H0F   16   0.139   0.189   0.051
    1UNK    H0G   17  -0.088   0.012  -0.055
    1UNK    H0H   18  -0.088   0.188  -0.054
    1UNK    H0I   19  -0.073   0.189   0.195
    1UNK    H0J   20  -0.075   0.012   0.197
    1UNK    H0K   21  -0.294   0.267   0.269
    1UNK    H0M   22  -0.294   0.109   0.351
    1UNK    H0N   23  -0.514   0.053   0.244
    1UNK    H0O   24  -0.514   0.211   0.162
    1UNK    H0P   25  -0.744   0.094   0.359
    1UNK    H0Q   26  -0.757   0.249   0.271
    1UNK    H0R   27  -0.794   0.368   0.489
    1UNK    H0S   28  -0.782   0.215   0.575
    1UNK    H0T   29  -0.996   0.283   0.367
    1UNK    H0U   30  -1.018   0.279   0.543
    1UNK    H0V   31  -0.984   0.129   0.455
   1.00000   1.00000   1.00000

