
;
; GENERATED BY LigParGen Server
; Jorgensen Lab @ Yale University 
;
[ atomtypes ]
  opls_818  H818     1.0080     0.000    A    2.50000E-01   1.25520E-01
  opls_824  H824     1.0080     0.000    A    2.50000E-01   1.25520E-01
  opls_807  S807    32.0600     0.000    A    3.55000E-01   1.04600E+00
  opls_805  C805    12.0110     0.000    A    3.50000E-01   2.76144E-01
  opls_808  O808    15.9990     0.000    A    2.96000E-01   7.11280E-01
  opls_804  O804    15.9990     0.000    A    2.96000E-01   8.78640E-01
  opls_828  H828     1.0080     0.000    A    2.50000E-01   1.25520E-01
  opls_813  H813     1.0080     0.000    A    2.50000E-01   1.25520E-01
  opls_812  C812    12.0110     0.000    A    3.50000E-01   2.76144E-01
  opls_802  C802    12.0110     0.000    A    3.50000E-01   2.76144E-01
  opls_815  H815     1.0080     0.000    A    2.50000E-01   1.25520E-01
  opls_801  C801    12.0110     0.000    A    3.50000E-01   2.76144E-01
  opls_806  C806    12.0110     0.000    A    3.50000E-01   2.76144E-01
  opls_822  H822     1.0080     0.000    A    2.50000E-01   1.25520E-01
  opls_825  H825     1.0080     0.000    A    2.50000E-01   1.25520E-01
  opls_814  H814     1.0080     0.000    A    2.50000E-01   1.25520E-01
  opls_821  H821     1.0080     0.000    A    2.50000E-01   1.25520E-01
  opls_820  H820     1.0080     0.000    A    2.50000E-01   1.25520E-01
  opls_829  H829     1.0080     0.000    A    2.50000E-01   1.25520E-01
  opls_816  H816     1.0080     0.000    A    2.50000E-01   1.25520E-01
  opls_800  C800    12.0110     0.000    A    3.50000E-01   2.76144E-01
  opls_811  C811    12.0110     0.000    A    3.50000E-01   2.76144E-01
  opls_823  H823     1.0080     0.000    A    2.50000E-01   1.25520E-01
  opls_826  H826     1.0080     0.000    A    2.50000E-01   1.25520E-01
  opls_819  H819     1.0080     0.000    A    2.50000E-01   1.25520E-01
  opls_810  C810    12.0110     0.000    A    3.50000E-01   2.76144E-01
  opls_827  H827     1.0080     0.000    A    2.50000E-01   1.25520E-01
  opls_809  O809    15.9990     0.000    A    2.96000E-01   7.11280E-01
  opls_803  C803    12.0110     0.000    A    3.55000E-01   2.92880E-01
  opls_817  H817     1.0080     0.000    A    2.50000E-01   1.25520E-01
  opls_830  H830     1.0080     0.000    A    2.50000E-01   1.25520E-01
[ moleculetype ]
; Name               nrexcl
UNK                   3
[ atoms ]
;   nr       type  resnr residue  atom   cgnr     charge       mass  
     1   opls_800      1    UNK   C00      1    -0.2404    12.0110 
     2   opls_801      1    UNK   C01      1    -0.1724    12.0110 
     3   opls_802      1    UNK   C02      1    -0.2288    12.0110 
     4   opls_803      1    UNK   C03      1     0.3719    12.0110 
     5   opls_804      1    UNK   O04      1    -0.4441    15.9990 
     6   opls_805      1    UNK   C05      1    -0.2064    12.0110 
     7   opls_806      1    UNK   C06      1    -0.5021    12.0110 
     8   opls_807      1    UNK   S07      1      1.289    32.0600 
     9   opls_808      1    UNK   O08      1    -0.5692    15.9990 
    10   opls_809      1    UNK   O09      1    -0.5692    15.9990 
    11   opls_810      1    UNK   C0A      1    -0.4905    12.0110 
    12   opls_811      1    UNK   C0B      1    -0.1471    12.0110 
    13   opls_812      1    UNK   C0C      1    -0.2275    12.0110 
    14   opls_813      1    UNK   H0D      1     0.0843     1.0080 
    15   opls_814      1    UNK   H0E      1     0.0843     1.0080 
    16   opls_815      1    UNK   H0F      1     0.0843     1.0080 
    17   opls_816      1    UNK   H0G      1     0.1044     1.0080 
    18   opls_817      1    UNK   H0H      1     0.1044     1.0080 
    19   opls_818      1    UNK   H0I      1     0.1208     1.0080 
    20   opls_819      1    UNK   H0J      1     0.1208     1.0080 
    21   opls_820      1    UNK   H0K      1     0.1434     1.0080 
    22   opls_821      1    UNK   H0M      1     0.1434     1.0080 
    23   opls_822      1    UNK   H0N      1     0.1711     1.0080 
    24   opls_823      1    UNK   H0O      1     0.1711     1.0080 
    25   opls_824      1    UNK   H0P      1     0.1587     1.0080 
    26   opls_825      1    UNK   H0Q      1     0.1587     1.0080 
    27   opls_826      1    UNK   H0R      1     0.1114     1.0080 
    28   opls_827      1    UNK   H0S      1     0.1114     1.0080 
    29   opls_828      1    UNK   H0T      1     0.0881     1.0080 
    30   opls_829      1    UNK   H0U      1     0.0881     1.0080 
    31   opls_830      1    UNK   H0V      1     0.0881     1.0080 
[ bonds ]
    2     1     1      0.1529 224262.400
    3     2     1      0.1529 224262.400
    4     3     1      0.1522 265265.600
    5     4     1      0.1229 476976.000
    6     4     1      0.1522 265265.600
    7     6     1      0.1529 224262.400
    8     7     1      0.1770 284512.000
    9     8     1      0.1440 585760.000
   10     8     1      0.1440 585760.000
   11     8     1      0.1770 284512.000
   12    11     1      0.1529 224262.400
   13    12     1      0.1529 224262.400
   14     1     1      0.1090 284512.000
   15     1     1      0.1090 284512.000
   16     1     1      0.1090 284512.000
   17     2     1      0.1090 284512.000
   18     2     1      0.1090 284512.000
   19     3     1      0.1090 284512.000
   20     3     1      0.1090 284512.000
   21     6     1      0.1090 284512.000
   22     6     1      0.1090 284512.000
   23     7     1      0.1090 284512.000
   24     7     1      0.1090 284512.000
   25    11     1      0.1090 284512.000
   26    11     1      0.1090 284512.000
   27    12     1      0.1090 284512.000
   28    12     1      0.1090 284512.000
   29    13     1      0.1090 284512.000
   30    13     1      0.1090 284512.000
   31    13     1      0.1090 284512.000

[ angles ]
;  ai    aj    ak funct            c0            c1            c2            c3 
    1     2     3     1    112.700    488.273
    2     3     4     1    111.100    527.184
    3     4     5     1    120.400    669.440
    3     4     6     1    116.000    585.760
    4     6     7     1    111.100    527.184
    6     7     8     1    108.600    418.400
    7     8     9     1    108.900    619.232
    7     8    10     1    108.900    619.232
    7     8    11     1    102.000    518.816
    8    11    12     1    108.600    418.400
   11    12    13     1    112.700    488.273
    2     1    14     1    110.700    313.800
    2     1    15     1    110.700    313.800
    2     1    16     1    110.700    313.800
    1     2    17     1    110.700    313.800
    1     2    18     1    110.700    313.800
    2     3    19     1    110.700    313.800
    2     3    20     1    110.700    313.800
    4     6    21     1    109.500    292.880
    4     6    22     1    109.500    292.880
    6     7    23     1    110.700    313.800
    6     7    24     1    110.700    313.800
    8    11    25     1    109.500    292.880
    8    11    26     1    109.500    292.880
   11    12    27     1    110.700    313.800
   11    12    28     1    110.700    313.800
   12    13    29     1    110.700    313.800
   12    13    30     1    110.700    313.800
   12    13    31     1    110.700    313.800
   23     7    24     1    107.800    276.144
    5     4     6     1    120.400    669.440
    8     7    24     1    109.500    292.880
   10     8    11     1    108.900    619.232
   29    13    30     1    107.800    276.144
    3     2    18     1    110.700    313.800
    7     6    22     1    110.700    313.800
   21     6    22     1    107.800    276.144
   29    13    31     1    107.800    276.144
    3     2    17     1    110.700    313.800
   13    12    28     1    110.700    313.800
    4     3    19     1    109.500    292.880
   27    12    28     1    107.800    276.144
    8     7    23     1    109.500    292.880
   15     1    16     1    107.800    276.144
   14     1    15     1    107.800    276.144
   30    13    31     1    107.800    276.144
   17     2    18     1    107.800    276.144
    9     8    11     1    108.900    619.232
   19     3    20     1    107.800    276.144
   12    11    25     1    110.700    313.800
   25    11    26     1    107.800    276.144
    4     3    20     1    109.500    292.880
   12    11    26     1    110.700    313.800
   14     1    16     1    107.800    276.144
    9     8    10     1    119.000    870.272
    7     6    21     1    110.700    313.800
   13    12    27     1    110.700    313.800

[ dihedrals ]
; IMPROPER DIHEDRAL ANGLES 
;  ai    aj    ak    al funct            c0            c1            c2            c3            c4            c5
     6     4     3     5    4        180.000     43.932     2  

[ dihedrals ]
; PROPER DIHEDRAL ANGLES
;  ai    aj    ak    al funct            c0            c1            c2            c3            c4            c5
    4    3    2    1        3      -4.960   6.286   1.310  -2.636  -0.000   0.000
    6    4    3    2        3       0.818  -7.906   0.602   6.485  -0.000   0.000
    7    6    4    3        3       0.818  -7.906   0.602   6.485  -0.000   0.000
    7    6    4    5        3       0.000   0.000   0.000  -0.000  -0.000   0.000
   13   12   11    8        3       2.784   0.278   0.828  -3.891  -0.000   0.000
   12   11    8    7        3       0.000   0.000   0.000  -0.000  -0.000   0.000
   12   11    8    9        3       0.000   0.000   0.000  -0.000  -0.000   0.000
   12   11    8   10        3       0.000   0.000   0.000  -0.000  -0.000   0.000
   11    8    7    6        3       0.000   0.000   0.000  -0.000  -0.000   0.000
   19    3    4    6        3       0.575   1.726   0.000  -2.301  -0.000   0.000
   21    6    4    3        3       0.575   1.726   0.000  -2.301  -0.000   0.000
   22    6    4    3        3       0.575   1.726   0.000  -2.301  -0.000   0.000
   20    3    4    6        3       0.575   1.726   0.000  -2.301  -0.000   0.000
   22    6    4    5        3       0.000   0.000   0.000  -0.000  -0.000   0.000
   20    3    4    5        3       0.000   0.000   0.000  -0.000  -0.000   0.000
   19    3    4    5        3       0.000   0.000   0.000  -0.000  -0.000   0.000
   21    6    4    5        3       0.000   0.000   0.000  -0.000  -0.000   0.000
   17    2    3    4        3      -0.209  -0.628   0.000   0.837  -0.000   0.000
   18    2    3    4        3      -0.209  -0.628   0.000   0.837  -0.000   0.000
   23    7    6    4        3      -0.209  -0.628   0.000   0.837  -0.000   0.000
   24    7    6    4        3      -0.209  -0.628   0.000   0.837  -0.000   0.000
   26   11   12   13        3       0.628   1.883   0.000  -2.510  -0.000   0.000
   25   11   12   13        3       0.628   1.883   0.000  -2.510  -0.000   0.000
   30   13   12   11        3       0.628   1.883   0.000  -2.510  -0.000   0.000
   14    1    2    3        3       0.628   1.883   0.000  -2.510  -0.000   0.000
   19    3    2    1        3       0.628   1.883   0.000  -2.510  -0.000   0.000
   16    1    2    3        3       0.628   1.883   0.000  -2.510  -0.000   0.000
   15    1    2    3        3       0.628   1.883   0.000  -2.510  -0.000   0.000
   31   13   12   11        3       0.628   1.883   0.000  -2.510  -0.000   0.000
   29   13   12   11        3       0.628   1.883   0.000  -2.510  -0.000   0.000
   20    3    2    1        3       0.628   1.883   0.000  -2.510  -0.000   0.000
   18    2    1   14        3       0.628   1.883   0.000  -2.510  -0.000   0.000
   28   12   11   25        3       0.628   1.883   0.000  -2.510  -0.000   0.000
   23    7    6   21        3       0.628   1.883   0.000  -2.510  -0.000   0.000
   20    3    2   18        3       0.628   1.883   0.000  -2.510  -0.000   0.000
   30   13   12   28        3       0.628   1.883   0.000  -2.510  -0.000   0.000
   30   13   12   27        3       0.628   1.883   0.000  -2.510  -0.000   0.000
   17    2    1   14        3       0.628   1.883   0.000  -2.510  -0.000   0.000
   24    7    6   21        3       0.628   1.883   0.000  -2.510  -0.000   0.000
   17    2    1   15        3       0.628   1.883   0.000  -2.510  -0.000   0.000
   29   13   12   27        3       0.628   1.883   0.000  -2.510  -0.000   0.000
   17    2    1   16        3       0.628   1.883   0.000  -2.510  -0.000   0.000
   18    2    1   16        3       0.628   1.883   0.000  -2.510  -0.000   0.000
   27   12   11   25        3       0.628   1.883   0.000  -2.510  -0.000   0.000
   19    3    2   17        3       0.628   1.883   0.000  -2.510  -0.000   0.000
   29   13   12   28        3       0.628   1.883   0.000  -2.510  -0.000   0.000
   19    3    2   18        3       0.628   1.883   0.000  -2.510  -0.000   0.000
   18    2    1   15        3       0.628   1.883   0.000  -2.510  -0.000   0.000
   24    7    6   22        3       0.628   1.883   0.000  -2.510  -0.000   0.000
   27   12   11   26        3       0.628   1.883   0.000  -2.510  -0.000   0.000
   31   13   12   28        3       0.628   1.883   0.000  -2.510  -0.000   0.000
   23    7    6   22        3       0.628   1.883   0.000  -2.510  -0.000   0.000
   20    3    2   17        3       0.628   1.883   0.000  -2.510  -0.000   0.000
   28   12   11   26        3       0.628   1.883   0.000  -2.510  -0.000   0.000
   31   13   12   27        3       0.628   1.883   0.000  -2.510  -0.000   0.000
   21    6    7    8        3       0.946   2.837   0.000  -3.782  -0.000   0.000
   27   12   11    8        3       0.946   2.837   0.000  -3.782  -0.000   0.000
   22    6    7    8        3       0.946   2.837   0.000  -3.782  -0.000   0.000
   28   12   11    8        3       0.946   2.837   0.000  -3.782  -0.000   0.000
   24    7    8   11        3       0.732   2.197   0.000  -2.929  -0.000   0.000
   26   11    8    7        3       0.732   2.197   0.000  -2.929  -0.000   0.000
   23    7    8   11        3       0.732   2.197   0.000  -2.929  -0.000   0.000
   25   11    8    7        3       0.732   2.197   0.000  -2.929  -0.000   0.000
   25   11    8    9        3       0.732   2.197   0.000  -2.929  -0.000   0.000
   26   11    8   10        3       0.732   2.197   0.000  -2.929  -0.000   0.000
   23    7    8    9        3       0.732   2.197   0.000  -2.929  -0.000   0.000
   25   11    8   10        3       0.732   2.197   0.000  -2.929  -0.000   0.000
   24    7    8   10        3       0.732   2.197   0.000  -2.929  -0.000   0.000
   23    7    8   10        3       0.732   2.197   0.000  -2.929  -0.000   0.000
   26   11    8    9        3       0.732   2.197   0.000  -2.929  -0.000   0.000
   24    7    8    9        3       0.732   2.197   0.000  -2.929  -0.000   0.000
    5    4    3    2        3       0.000   0.000   0.000  -0.000  -0.000   0.000
    9    8    7    6        3       0.000   0.000   0.000  -0.000  -0.000   0.000
   10    8    7    6        3       0.000   0.000   0.000  -0.000  -0.000   0.000
    8    7    6    4        3      -16.259   9.088   7.171  -0.000  -0.000   0.000

[ pairs ]
     1     4    1
     2     5    1
     2     6    1
     3     7    1
     5     7    1
     4     8    1
     6     9    1
     6    10    1
     6    11    1
     3    14    1
     3    15    1
     7    12    1
     3    16    1
     1    19    1
     9    12    1
     8    13    1
     4    17    1
     1    20    1
    10    12    1
     4    18    1
     5    19    1
     3    21    1
     6    19    1
     5    20    1
     3    22    1
     6    20    1
     5    21    1
     5    22    1
     4    23    1
     4    24    1
     8    21    1
     8    22    1
    14    17    1
    15    17    1
    14    18    1
     9    23    1
     7    25    1
    16    17    1
    15    18    1
    10    23    1
     9    24    1
     7    26    1
    16    18    1
    11    23    1
    10    24    1
     9    25    1
    11    24    1
    10    25    1
     9    26    1
     8    27    1
    17    19    1
    10    26    1
     8    28    1
    18    19    1
    17    20    1
    18    20    1
    13    25    1
    13    26    1
    11    29    1
    11    30    1
    11    31    1
    21    23    1
    22    23    1
    21    24    1
    22    24    1
    25    27    1
    26    27    1
    25    28    1
    26    28    1
    27    29    1
    28    29    1
    27    30    1
    28    30    1
    27    31    1
    28    31    1

