LIGPARGEN GENERATED GRO FILE
   34
    1UNK    C00    1   0.100   0.100   0.000
    1UNK    C01    2  -0.053   0.100   0.000
    1UNK    C02    3  -0.104   0.100   0.145
    1UNK    C03    4  -0.102   0.232  -0.065
    1UNK    C04    5  -0.109  -0.018  -0.086
    1UNK    C05    6  -0.072  -0.167  -0.052
    1UNK    C06    7  -0.136  -0.217   0.079
    1UNK    C07    8  -0.288  -0.223   0.073
    1UNK    C08    9  -0.340  -0.302  -0.048
    1UNK    C09   10  -0.272  -0.261  -0.179
    1UNK    C0A   11  -0.118  -0.259  -0.169
    1UNK    C0B   12  -0.080  -0.405  -0.151
    1UNK    N0C   13  -0.048  -0.526  -0.135
    1UNK    H0D   14   0.139   0.186   0.055
    1UNK    H0E   15   0.140   0.105  -0.102
    1UNK    H0F   16   0.141   0.010   0.048
    1UNK    H0G   17  -0.102   0.201   0.189
    1UNK    H0H   18  -0.043   0.037   0.210
    1UNK    H0I   19  -0.209   0.066   0.151
    1UNK    H0J   20  -0.059   0.319  -0.014
    1UNK    H0K   21  -0.211   0.242  -0.058
    1UNK    H0M   22  -0.073   0.238  -0.170
    1UNK    H0N   23  -0.075  -0.000  -0.189
    1UNK    H0O   24  -0.218  -0.007  -0.089
    1UNK    H0P   25   0.036  -0.175  -0.043
    1UNK    H0Q   26  -0.105  -0.157   0.164
    1UNK    H0R   27  -0.098  -0.318   0.101
    1UNK    H0S   28  -0.330  -0.122   0.069
    1UNK    H0T   29  -0.327  -0.269   0.165
    1UNK    H0U   30  -0.448  -0.290  -0.056
    1UNK    H0V   31  -0.322  -0.409  -0.029
    1UNK    H0W   32  -0.309  -0.163  -0.210
    1UNK    H0X   33  -0.304  -0.331  -0.258
    1UNK    H0Y   34  -0.075  -0.224  -0.264
   1.00000   1.00000   1.00000

