LIGPARGEN GENERATED GRO FILE
   27
    1UNK    C00    1   0.100   0.100   0.000
    1UNK    S01    2  -0.078   0.100   0.000
    1UNK    O02    3  -0.121   0.100   0.139
    1UNK    O03    4  -0.121   0.203  -0.092
    1UNK    C04    5  -0.118  -0.059  -0.071
    1UNK    C05    6  -0.269  -0.079  -0.080
    1UNK    C06    7  -0.310  -0.214  -0.139
    1UNK    C07    8  -0.259  -0.332  -0.057
    1UNK    C08    9  -0.305  -0.343   0.091
    1UNK    C09   10  -0.312  -0.496   0.069
    1UNK    C0A   11  -0.333  -0.466  -0.081
    1UNK    H0B   12   0.134   0.194   0.043
    1UNK    H0C   13   0.135   0.091  -0.103
    1UNK    H0D   14   0.135   0.016   0.060
    1UNK    H0E   15  -0.071  -0.134  -0.006
    1UNK    H0F   16  -0.072  -0.063  -0.170
    1UNK    H0G   17  -0.312   0.001  -0.141
    1UNK    H0H   18  -0.313  -0.068   0.020
    1UNK    H0I   19  -0.272  -0.222  -0.242
    1UNK    H0J   20  -0.419  -0.216  -0.145
    1UNK    H0K   21  -0.150  -0.344  -0.068
    1UNK    H0M   22  -0.403  -0.298   0.112
    1UNK    H0N   23  -0.233  -0.310   0.165
    1UNK    H0O   24  -0.393  -0.548   0.119
    1UNK    H0P   25  -0.217  -0.548   0.091
    1UNK    H0Q   26  -0.438  -0.457  -0.109
    1UNK    H0R   27  -0.284  -0.536  -0.150
   1.00000   1.00000   1.00000

