
;
; GENERATED BY LigParGen Server
; Jorgensen Lab @ Yale University 
;
[ atomtypes ]
  opls_810  H810     1.0080     0.000    A    2.50000E-01   1.25520E-01
  opls_802  C802    12.0110     0.000    A    3.50000E-01   2.76144E-01
  opls_818  H818     1.0080     0.000    A    2.50000E-01   1.25520E-01
  opls_800  C800    12.0110     0.000    A    3.50000E-01   2.76144E-01
  opls_801  C801    12.0110     0.000    A    3.50000E-01   2.76144E-01
  opls_814  H814     1.0080     0.000    A    2.50000E-01   1.25520E-01
  opls_817  H817     1.0080     0.000    A    2.50000E-01   1.25520E-01
  opls_803  C803    12.0110     0.000    A    3.50000E-01   2.76144E-01
  opls_812  H812     1.0080     0.000    A    2.50000E-01   1.25520E-01
  opls_804  C804    12.0110     0.000    A    3.30000E-01   2.76144E-01
  opls_806  C806    12.0110     0.000    A    3.50000E-01   2.76144E-01
  opls_811  H811     1.0080     0.000    A    2.50000E-01   1.25520E-01
  opls_809  H809     1.0080     0.000    A    2.50000E-01   1.25520E-01
  opls_808  F808    18.9984     0.000    A    2.90000E-01   2.51040E-01
  opls_819  H819     1.0080     0.000    A    2.50000E-01   1.25520E-01
  opls_820  H820     1.0080     0.000    A    2.50000E-01   1.25520E-01
  opls_813  H813     1.0080     0.000    A    2.50000E-01   1.25520E-01
  opls_805  N805    14.0070     0.000    A    3.20000E-01   7.11280E-01
  opls_807  C807    12.0110     0.000    A    3.50000E-01   2.76144E-01
  opls_816  H816     1.0080     0.000    A    2.50000E-01   1.25520E-01
  opls_815  H815     1.0080     0.000    A    2.50000E-01   1.25520E-01
[ moleculetype ]
; Name               nrexcl
UNK                   3
[ atoms ]
;   nr       type  resnr residue  atom   cgnr     charge       mass  
     1   opls_800      1    UNK   C00      1    -0.2395    12.0110 
     2   opls_801      1    UNK   C01      1    -0.1826    12.0110 
     3   opls_802      1    UNK   C02      1    -0.1738    12.0110 
     4   opls_803      1    UNK   C03      1     0.0003    12.0110 
     5   opls_804      1    UNK   C04      1     0.1602    12.0110 
     6   opls_805      1    UNK   N05      1     -0.388    14.0070 
     7   opls_806      1    UNK   C06      1    -0.2206    12.0110 
     8   opls_807      1    UNK   C07      1     0.0123    12.0110 
     9   opls_808      1    UNK   F08      1    -0.1834    18.9984 
    10   opls_809      1    UNK   H09      1     0.0842     1.0080 
    11   opls_810      1    UNK   H0A      1     0.0842     1.0080 
    12   opls_811      1    UNK   H0B      1     0.0842     1.0080 
    13   opls_812      1    UNK   H0C      1     0.0974     1.0080 
    14   opls_813      1    UNK   H0D      1     0.0974     1.0080 
    15   opls_814      1    UNK   H0E      1     0.1009     1.0080 
    16   opls_815      1    UNK   H0F      1     0.1009     1.0080 
    17   opls_816      1    UNK   H0G      1      0.149     1.0080 
    18   opls_817      1    UNK   H0H      1     0.1157     1.0080 
    19   opls_818      1    UNK   H0I      1     0.1157     1.0080 
    20   opls_819      1    UNK   H0J      1     0.0929     1.0080 
    21   opls_820      1    UNK   H0K      1     0.0929     1.0080 
[ bonds ]
    2     1     1      0.1529 224262.400
    3     2     1      0.1529 224262.400
    4     3     1      0.1529 224262.400
    5     4     1      0.1470 326352.000
    6     5     1      0.1157 543920.000
    7     4     1      0.1529 224262.400
    8     7     1      0.1529 224262.400
    9     8     1      0.1360 307105.600
   10     1     1      0.1090 284512.000
   11     1     1      0.1090 284512.000
   12     1     1      0.1090 284512.000
   13     2     1      0.1090 284512.000
   14     2     1      0.1090 284512.000
   15     3     1      0.1090 284512.000
   16     3     1      0.1090 284512.000
   17     4     1      0.1090 284512.000
   18     7     1      0.1090 284512.000
   19     7     1      0.1090 284512.000
   20     8     1      0.1090 284512.000
   21     8     1      0.1090 284512.000

[ angles ]
;  ai    aj    ak funct            c0            c1            c2            c3 
    1     2     3     1    112.700    488.273
    2     3     4     1    112.700    488.273
    3     4     5     1    112.700    488.273
    4     5     6     1    180.000   1255.200
    3     4     7     1    112.700    488.273
    4     7     8     1    112.700    488.273
    7     8     9     1    109.500    418.400
    2     1    10     1    110.700    313.800
    2     1    11     1    110.700    313.800
    2     1    12     1    110.700    313.800
    1     2    13     1    110.700    313.800
    1     2    14     1    110.700    313.800
    2     3    15     1    110.700    313.800
    2     3    16     1    110.700    313.800
    3     4    17     1    110.700    313.800
    4     7    18     1    110.700    313.800
    4     7    19     1    110.700    313.800
    7     8    20     1    110.700    313.800
    7     8    21     1    110.700    313.800
    3     2    14     1    110.700    313.800
    8     7    18     1    110.700    313.800
   13     2    14     1    107.800    276.144
    5     4     7     1    112.700    488.273
    9     8    20     1    107.000    334.720
   15     3    16     1    107.800    276.144
   11     1    12     1    107.800    276.144
    7     4    17     1    110.700    313.800
    8     7    19     1    110.700    313.800
   10     1    12     1    107.800    276.144
   10     1    11     1    107.800    276.144
    3     2    13     1    110.700    313.800
   20     8    21     1    107.800    276.144
    4     3    16     1    110.700    313.800
    9     8    21     1    107.000    334.720
    4     3    15     1    110.700    313.800
   18     7    19     1    107.800    276.144
    5     4    17     1    108.500    292.880

[ dihedrals ]
; IMPROPER DIHEDRAL ANGLES 
;  ai    aj    ak    al funct            c0            c1            c2            c3            c4            c5

[ dihedrals ]
; PROPER DIHEDRAL ANGLES
;  ai    aj    ak    al funct            c0            c1            c2            c3            c4            c5
    4    3    2    1        3       2.301  -1.464   0.837  -1.674  -0.000   0.000
    8    7    4    3        3       2.301  -1.464   0.837  -1.674  -0.000   0.000
    7    4    3    2        3       2.301  -1.464   0.837  -1.674  -0.000   0.000
    8    7    4    5        3      -2.720   0.000   2.720  -0.000  -0.000   0.000
    7    4    5    6        3       0.000   0.000   0.000  -0.000  -0.000   0.000
    5    4    3    2        3      -2.720   0.000   2.720  -0.000  -0.000   0.000
    9    8    7    4        3      -0.209   1.883   1.674  -3.347  -0.000   0.000
   15    3    4    7        3       0.628   1.883   0.000  -2.510  -0.000   0.000
   21    8    7    4        3       0.628   1.883   0.000  -2.510  -0.000   0.000
   19    7    4    3        3       0.628   1.883   0.000  -2.510  -0.000   0.000
   12    1    2    3        3       0.628   1.883   0.000  -2.510  -0.000   0.000
   14    2    3    4        3       0.628   1.883   0.000  -2.510  -0.000   0.000
   11    1    2    3        3       0.628   1.883   0.000  -2.510  -0.000   0.000
   13    2    3    4        3       0.628   1.883   0.000  -2.510  -0.000   0.000
   15    3    2    1        3       0.628   1.883   0.000  -2.510  -0.000   0.000
   17    4    7    8        3       0.628   1.883   0.000  -2.510  -0.000   0.000
   18    7    4    3        3       0.628   1.883   0.000  -2.510  -0.000   0.000
   16    3    2    1        3       0.628   1.883   0.000  -2.510  -0.000   0.000
   17    4    3    2        3       0.628   1.883   0.000  -2.510  -0.000   0.000
   16    3    4    7        3       0.628   1.883   0.000  -2.510  -0.000   0.000
   20    8    7    4        3       0.628   1.883   0.000  -2.510  -0.000   0.000
   10    1    2    3        3       0.628   1.883   0.000  -2.510  -0.000   0.000
   16    3    4    5        3       0.766   2.297   0.000  -3.063  -0.000   0.000
   15    3    4    5        3       0.766   2.297   0.000  -3.063  -0.000   0.000
   19    7    4    5        3       0.766   2.297   0.000  -3.063  -0.000   0.000
   18    7    4    5        3       0.766   2.297   0.000  -3.063  -0.000   0.000
   19    7    8    9        3       0.837   2.510   0.000  -3.347  -0.000   0.000
   18    7    8    9        3       0.837   2.510   0.000  -3.347  -0.000   0.000
   15    3    2   14        3       0.628   1.883   0.000  -2.510  -0.000   0.000
   15    3    2   13        3       0.628   1.883   0.000  -2.510  -0.000   0.000
   19    7    4   17        3       0.628   1.883   0.000  -2.510  -0.000   0.000
   18    7    4   17        3       0.628   1.883   0.000  -2.510  -0.000   0.000
   14    2    1   10        3       0.628   1.883   0.000  -2.510  -0.000   0.000
   17    4    3   15        3       0.628   1.883   0.000  -2.510  -0.000   0.000
   16    3    2   14        3       0.628   1.883   0.000  -2.510  -0.000   0.000
   13    2    1   10        3       0.628   1.883   0.000  -2.510  -0.000   0.000
   16    3    2   13        3       0.628   1.883   0.000  -2.510  -0.000   0.000
   14    2    1   12        3       0.628   1.883   0.000  -2.510  -0.000   0.000
   20    8    7   18        3       0.628   1.883   0.000  -2.510  -0.000   0.000
   21    8    7   18        3       0.628   1.883   0.000  -2.510  -0.000   0.000
   17    4    3   16        3       0.628   1.883   0.000  -2.510  -0.000   0.000
   13    2    1   11        3       0.628   1.883   0.000  -2.510  -0.000   0.000
   14    2    1   11        3       0.628   1.883   0.000  -2.510  -0.000   0.000
   13    2    1   12        3       0.628   1.883   0.000  -2.510  -0.000   0.000
   20    8    7   19        3       0.628   1.883   0.000  -2.510  -0.000   0.000
   21    8    7   19        3       0.628   1.883   0.000  -2.510  -0.000   0.000
   17    4    5    6        3       0.000   0.000   0.000  -0.000  -0.000   0.000
    6    5    4    3        3       0.000   0.000   0.000  -0.000  -0.000   0.000

[ pairs ]
     1     4    1
     2     5    1
     3     6    1
     2     7    1
     3     8    1
     6     7    1
     5     8    1
     4     9    1
     3    10    1
     3    11    1
     3    12    1
     1    15    1
     4    13    1
     1    16    1
     4    14    1
     2    17    1
     5    15    1
     5    16    1
     3    18    1
     7    15    1
     3    19    1
    10    13    1
     7    16    1
     6    17    1
     5    18    1
    11    13    1
    10    14    1
     5    19    1
     4    20    1
    12    13    1
    11    14    1
     8    17    1
     4    21    1
    12    14    1
     9    18    1
    13    15    1
     9    19    1
    14    15    1
    13    16    1
    14    16    1
    15    17    1
    16    17    1
    17    18    1
    17    19    1
    18    20    1
    19    20    1
    18    21    1
    19    21    1

