LIGPARGEN GENERATED GRO FILE
   21
    1UNK    C00    1   0.100   0.100   0.000
    1UNK    C01    2  -0.052   0.100   0.000
    1UNK    C02    3  -0.107   0.100   0.143
    1UNK    C03    4  -0.261   0.106   0.151
    1UNK    C04    5  -0.321  -0.011   0.085
    1UNK    N05    6  -0.369  -0.104   0.033
    1UNK    C06    7  -0.311   0.112   0.296
    1UNK    C07    8  -0.267   0.236   0.371
    1UNK    F08    9  -0.307   0.346   0.303
    1UNK    H09   10   0.138   0.100  -0.103
    1UNK    H0A   11   0.139   0.011   0.051
    1UNK    H0B   12   0.139   0.189   0.051
    1UNK    H0C   13  -0.087   0.012  -0.055
    1UNK    H0D   14  -0.088   0.189  -0.054
    1UNK    H0E   15  -0.064   0.187   0.195
    1UNK    H0F   16  -0.071   0.011   0.196
    1UNK    H0G   17  -0.295   0.197   0.098
    1UNK    H0H   18  -0.279   0.023   0.351
    1UNK    H0I   19  -0.421   0.111   0.295
    1UNK    H0J   20  -0.158   0.241   0.384
    1UNK    H0K   21  -0.312   0.239   0.471
   1.00000   1.00000   1.00000

