LIGPARGEN GENERATED GRO FILE
   35
    1UNK    C00    1   0.100   0.100   0.000
    1UNK    C01    2  -0.055   0.100   0.000
    1UNK    C02    3  -0.130   0.100   0.136
    1UNK    C03    4  -0.190  -0.034   0.190
    1UNK    C04    5  -0.103  -0.132   0.280
    1UNK    C05    6  -0.201  -0.214   0.367
    1UNK    C06    7  -0.164  -0.362   0.357
    1UNK    C07    8  -0.096  -0.375   0.221
    1UNK    C08    9  -0.004  -0.258   0.234
    1UNK    C09   10   0.059  -0.148   0.149
    1UNK    C0A   11   0.191  -0.131   0.081
    1UNK    C0B   12   0.169  -0.033  -0.037
    1UNK    C0C   13   0.041  -0.068   0.290
    1UNK    H0D   14   0.140   0.141   0.092
    1UNK    H0E   15   0.130   0.171  -0.080
    1UNK    H0F   16  -0.096   0.023  -0.067
    1UNK    H0G   17  -0.083   0.196  -0.047
    1UNK    H0H   18  -0.219   0.164   0.118
    1UNK    H0I   19  -0.075   0.157   0.212
    1UNK    H0J   20  -0.236  -0.090   0.107
    1UNK    H0K   21  -0.274  -0.001   0.253
    1UNK    H0M   22  -0.303  -0.206   0.325
    1UNK    H0N   23  -0.207  -0.178   0.470
    1UNK    H0O   24  -0.251  -0.429   0.367
    1UNK    H0P   25  -0.095  -0.387   0.438
    1UNK    H0Q   26  -0.167  -0.365   0.139
    1UNK    H0R   27  -0.043  -0.470   0.212
    1UNK    H0S   28   0.071  -0.293   0.307
    1UNK    H0T   29  -0.014  -0.136   0.068
    1UNK    H0U   30   0.227  -0.227   0.042
    1UNK    H0V   31   0.267  -0.092   0.149
    1UNK    H0W   32   0.110  -0.084  -0.115
    1UNK    H0X   33   0.267  -0.013  -0.082
    1UNK    H0Y   34   0.054   0.040   0.289
    1UNK    H0Z   35   0.102  -0.102   0.374
   1.00000   1.00000   1.00000

