LIGPARGEN GENERATED GRO FILE
   35
    1UNK    C00    1   0.100   0.100   0.000
    1UNK    C01    2  -0.052   0.100   0.000
    1UNK    C02    3  -0.105   0.100   0.142
    1UNK    O03    4  -0.184   0.016   0.184
    1UNK    O04    5  -0.106   0.219  -0.060
    1UNK    C05    6  -0.158   0.196  -0.184
    1UNK    O06    7  -0.135   0.095  -0.250
    1UNK    O07    8  -0.245   0.296  -0.218
    1UNK    C08    9  -0.332   0.272  -0.334
    1UNK    C09   10  -0.243   0.258  -0.459
    1UNK    C0A   11  -0.419   0.150  -0.301
    1UNK    O0B   12  -0.416   0.390  -0.349
    1UNK    C0C   13  -0.520   0.405  -0.448
    1UNK    C0D   14  -0.473   0.399  -0.594
    1UNK    C0E   15  -0.642   0.314  -0.427
    1UNK    C0F   16  -0.571   0.548  -0.426
    1UNK    O0G   17  -0.661   0.601  -0.492
    1UNK    H0H   18   0.138   0.010   0.050
    1UNK    H0I   19   0.140   0.188   0.052
    1UNK    H0J   20   0.139   0.101  -0.102
    1UNK    H0K   21  -0.088   0.008  -0.047
    1UNK    H0M   22  -0.068   0.181   0.206
    1UNK    H0N   23  -0.151   0.202  -0.444
    1UNK    H0O   24  -0.211   0.357  -0.494
    1UNK    H0P   25  -0.295   0.207  -0.540
    1UNK    H0Q   26  -0.365   0.069  -0.252
    1UNK    H0R   27  -0.464   0.107  -0.390
    1UNK    H0S   28  -0.498   0.179  -0.231
    1UNK    H0T   29  -0.455   0.296  -0.626
    1UNK    H0U   30  -0.381   0.457  -0.608
    1UNK    H0V   31  -0.548   0.439  -0.663
    1UNK    H0W   32  -0.623   0.212  -0.461
    1UNK    H0X   33  -0.728   0.348  -0.486
    1UNK    H0Y   34  -0.671   0.310  -0.322
    1UNK    H0Z   35  -0.522   0.605  -0.346
   1.00000   1.00000   1.00000

