LIGPARGEN GENERATED GRO FILE
   21
    1UNK    C00    1   0.100   0.100   0.000
    1UNK    C01    2  -0.051   0.100   0.000
    1UNK    O02    3  -0.113   0.100   0.107
    1UNK    N03    4  -0.114   0.108  -0.124
    1UNK    O04    5  -0.254   0.129  -0.110
    1UNK    C05    6  -0.325   0.015  -0.088
    1UNK    O06    7  -0.280  -0.098  -0.080
    1UNK    O07    8  -0.456   0.052  -0.077
    1UNK    C08    9  -0.545  -0.057  -0.062
    1UNK    F09   10  -0.551  -0.122  -0.181
    1UNK    C0A   11  -0.059   0.148  -0.246
    1UNK    C0B   12  -0.155   0.178  -0.359
    1UNK    O0C   13   0.062   0.156  -0.267
    1UNK    H0D   14   0.136   0.073   0.100
    1UNK    H0E   15   0.136   0.201  -0.023
    1UNK    H0F   16   0.140   0.027  -0.071
    1UNK    H0G   17  -0.644  -0.017  -0.041
    1UNK    H0H   18  -0.515  -0.125   0.018
    1UNK    H0I   19  -0.259   0.155  -0.338
    1UNK    H0J   20  -0.125   0.118  -0.446
    1UNK    H0K   21  -0.147   0.285  -0.384
   1.00000   1.00000   1.00000

