
;
; GENERATED BY LigParGen Server
; Jorgensen Lab @ Yale University 
;
[ atomtypes ]
  opls_803  N803    14.0070     0.000    A    3.25000E-01   7.11280E-01
  opls_805  C805    12.0110     0.000    A    3.55000E-01   2.92880E-01
  opls_818  H818     1.0080     0.000    A    2.50000E-01   1.25520E-01
  opls_812  O812    15.9990     0.000    A    2.96000E-01   8.78640E-01
  opls_808  C808    12.0110     0.000    A    3.50000E-01   2.76144E-01
  opls_800  C800    12.0110     0.000    A    3.50000E-01   2.76144E-01
  opls_814  H814     1.0080     0.000    A    2.50000E-01   1.25520E-01
  opls_802  O802    15.9990     0.000    A    2.96000E-01   8.78640E-01
  opls_807  O807    15.9990     0.000    A    2.90000E-01   5.85760E-01
  opls_811  C811    12.0110     0.000    A    3.50000E-01   2.76144E-01
  opls_804  O804    15.9990     0.000    A    2.90000E-01   5.85760E-01
  opls_810  C810    12.0110     0.000    A    3.55000E-01   2.92880E-01
  opls_809  F809    18.9984     0.000    A    2.90000E-01   2.51040E-01
  opls_820  H820     1.0080     0.000    A    2.50000E-01   1.25520E-01
  opls_806  O806    15.9990     0.000    A    2.96000E-01   8.78640E-01
  opls_817  H817     1.0080     0.000    A    2.50000E-01   1.25520E-01
  opls_813  H813     1.0080     0.000    A    2.50000E-01   1.25520E-01
  opls_801  C801    12.0110     0.000    A    3.55000E-01   2.92880E-01
  opls_819  H819     1.0080     0.000    A    2.50000E-01   1.25520E-01
  opls_816  H816     1.0080     0.000    A    2.50000E-01   1.25520E-01
  opls_815  H815     1.0080     0.000    A    2.50000E-01   1.25520E-01
[ moleculetype ]
; Name               nrexcl
UNK                   3
[ atoms ]
;   nr       type  resnr residue  atom   cgnr     charge       mass  
     1   opls_800      1    UNK   C00      1     -0.259    12.0110 
     2   opls_801      1    UNK   C01      1     0.5903    12.0110 
     3   opls_802      1    UNK   O02      1    -0.3853    15.9990 
     4   opls_803      1    UNK   N03      1    -0.7724    14.0070 
     5   opls_804      1    UNK   O04      1    -0.0207    15.9990 
     6   opls_805      1    UNK   C05      1     0.5708    12.0110 
     7   opls_806      1    UNK   O06      1    -0.4349    15.9990 
     8   opls_807      1    UNK   O07      1    -0.3407    15.9990 
     9   opls_808      1    UNK   C08      1      0.187    12.0110 
    10   opls_809      1    UNK   F09      1    -0.1646    18.9984 
    11   opls_810      1    UNK   C0A      1      0.616    12.0110 
    12   opls_811      1    UNK   C0B      1    -0.2691    12.0110 
    13   opls_812      1    UNK   O0C      1    -0.4001    15.9990 
    14   opls_813      1    UNK   H0D      1     0.1379     1.0080 
    15   opls_814      1    UNK   H0E      1     0.1379     1.0080 
    16   opls_815      1    UNK   H0F      1     0.1379     1.0080 
    17   opls_816      1    UNK   H0G      1     0.1345     1.0080 
    18   opls_817      1    UNK   H0H      1     0.1345     1.0080 
    19   opls_818      1    UNK   H0I      1     0.1333     1.0080 
    20   opls_819      1    UNK   H0J      1     0.1333     1.0080 
    21   opls_820      1    UNK   H0K      1     0.1333     1.0080 
[ bonds ]
    2     1     1      0.1522 265265.600
    3     2     1      0.1229 476976.000
    4     2     1      0.1335 410032.000
    5     4     1      0.1450 267776.000
    6     5     1      0.1327 179075.200
    7     6     1      0.1229 476976.000
    8     6     1      0.1327 179075.200
    9     8     1      0.1410 267776.000
   10     9     1      0.1360 307105.600
   11     4     1      0.1335 410032.000
   12    11     1      0.1522 265265.600
   13    11     1      0.1229 476976.000
   14     1     1      0.1090 284512.000
   15     1     1      0.1090 284512.000
   16     1     1      0.1090 284512.000
   17     9     1      0.1090 284512.000
   18     9     1      0.1090 284512.000
   19    12     1      0.1090 284512.000
   20    12     1      0.1090 284512.000
   21    12     1      0.1090 284512.000

[ angles ]
;  ai    aj    ak funct            c0            c1            c2            c3 
    1     2     3     1    120.400    669.440
    1     2     4     1    116.600    585.760
    2     4     5     1    108.600    585.760
    4     5     6     1    114.540    581.660
    5     6     7     1    123.400    694.544
    5     6     8     1    118.180    584.923
    6     8     9     1    116.900    694.544
    8     9    10     1    110.580    432.207
    2     4    11     1    126.400    585.760
    4    11    12     1    116.600    585.760
    4    11    13     1    122.900    669.440
    2     1    14     1    109.500    292.880
    2     1    15     1    109.500    292.880
    2     1    16     1    109.500    292.880
    8     9    17     1    109.500    292.880
    8     9    18     1    109.500    292.880
   11    12    19     1    109.500    292.880
   11    12    20     1    109.500    292.880
   11    12    21     1    109.500    292.880
   14     1    16     1    107.800    276.144
   17     9    18     1    107.800    276.144
   10     9    17     1    107.000    334.720
   19    12    20     1    107.800    276.144
   14     1    15     1    107.800    276.144
   15     1    16     1    107.800    276.144
    3     2     4     1    122.900    669.440
    7     6     8     1    123.400    694.544
   19    12    21     1    107.800    276.144
    5     4    11     1    108.600    585.760
   12    11    13     1    120.400    669.440
   20    12    21     1    107.800    276.144
   10     9    18     1    107.000    334.720

[ dihedrals ]
; IMPROPER DIHEDRAL ANGLES 
;  ai    aj    ak    al funct            c0            c1            c2            c3            c4            c5
    11     4     2     5    4        180.000     10.460     2  
     4     2     1     3    4        180.000     43.932     2  
    13    11     4    12    4        180.000     43.932     2  
     8     6     5     7    4        180.000     43.932     2  

[ dihedrals ]
; PROPER DIHEDRAL ANGLES
;  ai    aj    ak    al funct            c0            c1            c2            c3            c4            c5
   11    4    2    1        3      30.288  -4.812  -25.476  -0.000  -0.000   0.000
   11    4    2    3        3      25.476   0.000  -25.476  -0.000  -0.000   0.000
   11    4    5    6        3      18.828  -6.276  -12.552  -0.000  -0.000   0.000
    6    5    4    2        3      18.828  -6.276  -12.552  -0.000  -0.000   0.000
   12   11    4    2        3      30.288  -4.812  -25.476  -0.000  -0.000   0.000
   12   11    4    5        3      39.315  -2.943  -27.627  -8.745  -0.000   0.000
    9    8    6    7        3      21.439   0.000  -21.439  -0.000  -0.000   0.000
    9    8    6    5        3      31.206  -9.768  -21.439  -0.000  -0.000   0.000
   10    9    8    6        3       0.414   1.243   0.000  -1.657  -0.000   0.000
   21   12   11    4        3       0.000   0.000   0.000  -0.000  -0.000   0.000
   20   12   11    4        3       0.000   0.000   0.000  -0.000  -0.000   0.000
   16    1    2    4        3       0.000   0.000   0.000  -0.000  -0.000   0.000
   15    1    2    4        3       0.000   0.000   0.000  -0.000  -0.000   0.000
   14    1    2    4        3       0.000   0.000   0.000  -0.000  -0.000   0.000
   19   12   11    4        3       0.000   0.000   0.000  -0.000  -0.000   0.000
   16    1    2    3        3       0.000   0.000   0.000  -0.000  -0.000   0.000
   15    1    2    3        3       0.000   0.000   0.000  -0.000  -0.000   0.000
   14    1    2    3        3       0.000   0.000   0.000  -0.000  -0.000   0.000
   20   12   11   13        3       0.000   0.000   0.000  -0.000  -0.000   0.000
   19   12   11   13        3       0.000   0.000   0.000  -0.000  -0.000   0.000
   21   12   11   13        3       0.000   0.000   0.000  -0.000  -0.000   0.000
   17    9    8    6        3       0.414   1.243   0.000  -1.657  -0.000   0.000
   18    9    8    6        3       0.414   1.243   0.000  -1.657  -0.000   0.000
   13   11    4    2        3      25.476   0.000  -25.476  -0.000  -0.000   0.000
   13   11    4    5        3      27.627   0.000  -27.627  -0.000  -0.000   0.000
    7    6    5    4        3      21.439   0.000  -21.439  -0.000  -0.000   0.000
    8    6    5    4        3      31.206  -9.768  -21.439  -0.000  -0.000   0.000
    5    4    2    1        3      39.315  -2.943  -27.627  -8.745  -0.000   0.000
    5    4    2    3        3      27.627   0.000  -27.627  -0.000  -0.000   0.000

[ pairs ]
     1     5    1
     3     5    1
     2     6    1
     4     7    1
     4     8    1
     1    11    1
     5     9    1
     3    11    1
     2    12    1
     2    13    1
     7     9    1
     6    10    1
     6    11    1
     5    12    1
     3    14    1
     5    13    1
     4    14    1
     3    15    1
     4    15    1
     3    16    1
     4    16    1
     6    17    1
     4    19    1
     6    18    1
     4    20    1
     4    21    1
    13    19    1
    13    20    1
    13    21    1

