
;
; GENERATED BY LigParGen Server
; Jorgensen Lab @ Yale University 
;
[ atomtypes ]
  opls_818  H818     1.0080     0.000    A    2.50000E-01   1.25520E-01
  opls_805  C805    12.0110     0.000    A    3.45000E-01   3.47272E-01
  opls_824  H824     1.0080     0.000    A    2.50000E-01   1.25520E-01
  opls_811  S811    32.0600     0.000    A    3.55000E-01   1.04600E+00
  opls_828  H828     1.0080     0.000    A    2.50000E-01   1.25520E-01
  opls_807  C807    12.0110     0.000    A    3.45000E-01   3.47272E-01
  opls_803  O803    15.9990     0.000    A    2.96000E-01   8.78640E-01
  opls_806  C806    12.0110     0.000    A    3.50000E-01   2.76144E-01
  opls_815  H815     1.0080     0.000    A    2.50000E-01   1.25520E-01
  opls_801  C801    12.0110     0.000    A    3.50000E-01   2.76144E-01
  opls_822  H822     1.0080     0.000    A    2.50000E-01   1.25520E-01
  opls_808  C808    12.0110     0.000    A    3.45000E-01   3.47272E-01
  opls_825  H825     1.0080     0.000    A    2.50000E-01   1.25520E-01
  opls_810  O810    15.9990     0.000    A    2.96000E-01   8.78640E-01
  opls_821  H821     1.0080     0.000    A    2.50000E-01   1.25520E-01
  opls_820  H820     1.0080     0.000    A    2.50000E-01   1.25520E-01
  opls_809  C809    12.0110     0.000    A    3.55000E-01   2.92880E-01
  opls_816  H816     1.0080     0.000    A    2.50000E-01   1.25520E-01
  opls_800  C800    12.0110     0.000    A    3.50000E-01   2.76144E-01
  opls_823  H823     1.0080     0.000    A    2.50000E-01   1.25520E-01
  opls_802  C802    12.0110     0.000    A    3.55000E-01   2.92880E-01
  opls_826  H826     1.0080     0.000    A    2.50000E-01   1.25520E-01
  opls_813  O813    15.9990     0.000    A    2.96000E-01   7.11280E-01
  opls_819  H819     1.0080     0.000    A    2.50000E-01   1.25520E-01
  opls_827  H827     1.0080     0.000    A    2.50000E-01   1.25520E-01
  opls_812  C812    12.0110     0.000    A    3.50000E-01   2.76144E-01
  opls_817  H817     1.0080     0.000    A    2.50000E-01   1.25520E-01
  opls_804  O804    15.9990     0.000    A    2.90000E-01   5.85760E-01
  opls_814  O814    15.9990     0.000    A    2.96000E-01   7.11280E-01
[ moleculetype ]
; Name               nrexcl
UNK                   3
[ atoms ]
;   nr       type  resnr residue  atom   cgnr     charge       mass  
     1   opls_800      1    UNK   C00      1    -0.2364    12.0110 
     2   opls_801      1    UNK   C01      1    -0.1869    12.0110 
     3   opls_802      1    UNK   C02      1     0.4444    12.0110 
     4   opls_803      1    UNK   O03      1    -0.4368    15.9990 
     5   opls_804      1    UNK   O04      1    -0.3475    15.9990 
     6   opls_805      1    UNK   C05      1     0.1156    12.0110 
     7   opls_806      1    UNK   C06      1    -0.2331    12.0110 
     8   opls_807      1    UNK   C07      1    -0.1942    12.0110 
     9   opls_808      1    UNK   C08      1    -0.2526    12.0110 
    10   opls_809      1    UNK   C09      1     0.1056    12.0110 
    11   opls_810      1    UNK   O0A      1    -0.3342    15.9990 
    12   opls_811      1    UNK   S0B      1     1.2724    32.0600 
    13   opls_812      1    UNK   C0C      1    -0.5609    12.0110 
    14   opls_813      1    UNK   O0D      1    -0.5405    15.9990 
    15   opls_814      1    UNK   O0E      1    -0.5405    15.9990 
    16   opls_815      1    UNK   H0F      1     0.0976     1.0080 
    17   opls_816      1    UNK   H0G      1     0.0976     1.0080 
    18   opls_817      1    UNK   H0H      1     0.0976     1.0080 
    19   opls_818      1    UNK   H0I      1     0.1342     1.0080 
    20   opls_819      1    UNK   H0J      1     0.1342     1.0080 
    21   opls_820      1    UNK   H0K      1     0.1122     1.0080 
    22   opls_821      1    UNK   H0M      1     0.1122     1.0080 
    23   opls_822      1    UNK   H0N      1     0.1122     1.0080 
    24   opls_823      1    UNK   H0O      1      0.155     1.0080 
    25   opls_824      1    UNK   H0P      1      0.155     1.0080 
    26   opls_825      1    UNK   H0Q      1     0.1899     1.0080 
    27   opls_826      1    UNK   H0R      1      0.176     1.0080 
    28   opls_827      1    UNK   H0S      1      0.176     1.0080 
    29   opls_828      1    UNK   H0T      1      0.176     1.0080 
[ bonds ]
    2     1     1      0.1529 224262.400
    3     2     1      0.1522 265265.600
    4     3     1      0.1229 476976.000
    5     3     1      0.1327 179075.200
    6     5     1      0.1410 267776.000
    7     6     1      0.1510 234304.000
    8     6     1      0.1520 217568.000
    9     6     1      0.1520 217568.000
   10     9     1      0.1522 265265.600
   11    10     1      0.1229 476976.000
   12    10     1      0.1690 191618.832
   13    12     1      0.1770 284512.000
   14    12     1      0.1440 585760.000
   15    12     1      0.1440 585760.000
   16     1     1      0.1090 284512.000
   17     1     1      0.1090 284512.000
   18     1     1      0.1090 284512.000
   19     2     1      0.1090 284512.000
   20     2     1      0.1090 284512.000
   21     7     1      0.1090 284512.000
   22     7     1      0.1090 284512.000
   23     7     1      0.1090 284512.000
   24     8     1      0.1088 284512.000
   25     8     1      0.1088 284512.000
   26     9     1      0.1088 284512.000
   27    13     1      0.1090 284512.000
   28    13     1      0.1090 284512.000
   29    13     1      0.1090 284512.000
    9     8     1      0.1520 217568.000

[ angles ]
;  ai    aj    ak funct            c0            c1            c2            c3 
    1     2     3     1    111.100    527.184
    2     3     4     1    120.400    669.440
    2     3     5     1    111.400    677.808
    3     5     6     1    116.900    694.544
    5     6     7     1    109.500    418.400
    5     6     8     1    109.500    418.400
    5     6     9     1    109.500    418.400
    6     9    10     1    111.100    527.184
    9    10    11     1    120.400    669.440
    9    10    12     1    118.180    584.923
   10    12    13     1    104.360    658.311
   10    12    14     1    104.360    658.311
   10    12    15     1    104.360    658.311
    2     1    16     1    110.700    313.800
    2     1    17     1    110.700    313.800
    2     1    18     1    110.700    313.800
    1     2    19     1    110.700    313.800
    1     2    20     1    110.700    313.800
    6     7    21     1    110.700    313.800
    6     7    22     1    110.700    313.800
    6     7    23     1    110.700    313.800
    6     8    24     1    117.200    313.800
    6     8    25     1    117.200    313.800
    6     9    26     1    117.200    313.800
   12    13    27     1    109.500    292.880
   12    13    28     1    109.500    292.880
   12    13    29     1    109.500    292.880
   16     1    17     1    107.800    276.144
    3     2    20     1    109.500    292.880
    9     8    25     1    117.200    313.800
    8     9    26     1    117.200    313.800
   13    12    14     1    108.900    619.232
   27    13    28     1    107.800    276.144
    7     6     9     1    117.200    313.800
    6     9     8     1     83.000    251.040
    9     8    24     1    117.200    313.800
   13    12    15     1    108.900    619.232
   16     1    18     1    107.800    276.144
   10     9    26     1    109.500    292.880
    4     3     5     1    123.400    694.544
   14    12    15     1    119.000    870.272
    3     2    19     1    109.500    292.880
   21     7    22     1    107.800    276.144
    7     6     8     1    117.200    313.800
   19     2    20     1    107.800    276.144
   28    13    29     1    107.800    276.144
   17     1    18     1    107.800    276.144
   24     8    25     1    114.300    292.880
    6     8     9     1     83.000    251.040
   22     7    23     1    107.800    276.144
   21     7    23     1    107.800    276.144
    8     6     9     1     83.000    251.040
    8     9    10     1    111.100    527.184
   27    13    29     1    107.800    276.144
   11    10    12     1    118.180    584.923

[ dihedrals ]
; IMPROPER DIHEDRAL ANGLES 
;  ai    aj    ak    al funct            c0            c1            c2            c3            c4            c5
     5     3     2     4    4        180.000     43.932     2  
    12    10     9    11    4        180.000     43.932     2  

[ dihedrals ]
; PROPER DIHEDRAL ANGLES
;  ai    aj    ak    al funct            c0            c1            c2            c3            c4            c5
   10    9    6    7        3       0.000   0.000   0.000  -0.000  -0.000   0.000
   10    9    8    6        3       0.000   0.000   0.000  -0.000  -0.000   0.000
   10    9    6    8        3       0.000   0.000   0.000  -0.000  -0.000   0.000
   10    9    6    5        3       0.000   0.000   0.000  -0.000  -0.000   0.000
    7    6    5    3        3      -2.197   5.201   0.527  -3.531  -0.000   0.000
   13   12   10    9        3       0.000   0.000   0.000  -0.000  -0.000   0.000
   13   12   10   11        3       0.000   0.000   0.000  -0.000  -0.000   0.000
    8    6    5    3        3      -2.197   5.201   0.527  -3.531  -0.000   0.000
    9    6    5    3        3      -2.197   5.201   0.527  -3.531  -0.000   0.000
    6    5    3    2        3      31.206  -9.768  -21.439  -0.000  -0.000   0.000
    6    5    3    4        3      21.439   0.000  -21.439  -0.000  -0.000   0.000
   20    2    3    4        3       0.000   0.000   0.000  -0.000  -0.000   0.000
   19    2    3    4        3       0.000   0.000   0.000  -0.000  -0.000   0.000
   19    2    3    5        3       0.276   0.828   0.000  -1.105  -0.000   0.000
   20    2    3    5        3       0.276   0.828   0.000  -1.105  -0.000   0.000
   17    1    2    3        3      -0.209  -0.628   0.000   0.837  -0.000   0.000
   18    1    2    3        3      -0.209  -0.628   0.000   0.837  -0.000   0.000
   16    1    2    3        3      -0.209  -0.628   0.000   0.837  -0.000   0.000
   20    2    1   18        3       0.628   1.883   0.000  -2.510  -0.000   0.000
   19    2    1   16        3       0.628   1.883   0.000  -2.510  -0.000   0.000
   20    2    1   16        3       0.628   1.883   0.000  -2.510  -0.000   0.000
   19    2    1   18        3       0.628   1.883   0.000  -2.510  -0.000   0.000
   20    2    1   17        3       0.628   1.883   0.000  -2.510  -0.000   0.000
   19    2    1   17        3       0.628   1.883   0.000  -2.510  -0.000   0.000
   22    7    6    8        3       0.628   1.883   0.000  -2.510  -0.000   0.000
   21    7    6    8        3       0.628   1.883   0.000  -2.510  -0.000   0.000
   23    7    6    9        3       0.628   1.883   0.000  -2.510  -0.000   0.000
   21    7    6    9        3       0.628   1.883   0.000  -2.510  -0.000   0.000
   22    7    6    9        3       0.628   1.883   0.000  -2.510  -0.000   0.000
   23    7    6    8        3       0.628   1.883   0.000  -2.510  -0.000   0.000
   21    7    6    5        3       0.979   2.937   0.000  -3.916  -0.000   0.000
   22    7    6    5        3       0.979   2.937   0.000  -3.916  -0.000   0.000
   23    7    6    5        3       0.979   2.937   0.000  -3.916  -0.000   0.000
   29   13   12   10        3       0.732   2.197   0.000  -2.929  -0.000   0.000
   28   13   12   10        3       0.732   2.197   0.000  -2.929  -0.000   0.000
   27   13   12   10        3       0.732   2.197   0.000  -2.929  -0.000   0.000
   29   13   12   15        3       0.732   2.197   0.000  -2.929  -0.000   0.000
   29   13   12   14        3       0.732   2.197   0.000  -2.929  -0.000   0.000
   27   13   12   15        3       0.732   2.197   0.000  -2.929  -0.000   0.000
   27   13   12   14        3       0.732   2.197   0.000  -2.929  -0.000   0.000
   28   13   12   14        3       0.732   2.197   0.000  -2.929  -0.000   0.000
   28   13   12   15        3       0.732   2.197   0.000  -2.929  -0.000   0.000
   26    9   10   11        3       0.000   0.000   0.000  -0.000  -0.000   0.000
   26    9   10   12        3       0.000   0.000   0.000  -0.000  -0.000   0.000
   24    8    9   10        3       0.000   0.000   0.000  -0.000  -0.000   0.000
   25    8    9   10        3       0.000   0.000   0.000  -0.000  -0.000   0.000
   24    8    6    7        3       0.000   0.000   0.000  -0.000  -0.000   0.000
   26    9    6    7        3       0.000   0.000   0.000  -0.000  -0.000   0.000
   25    8    6    7        3       0.000   0.000   0.000  -0.000  -0.000   0.000
   26    9    8    6        3       0.000   0.000   0.000  -0.000  -0.000   0.000
   25    8    9    6        3       0.000   0.000   0.000  -0.000  -0.000   0.000
   24    8    6    9        3       0.000   0.000   0.000  -0.000  -0.000   0.000
   25    8    6    9        3       0.000   0.000   0.000  -0.000  -0.000   0.000
   26    9    6    8        3       0.000   0.000   0.000  -0.000  -0.000   0.000
   24    8    9    6        3       0.000   0.000   0.000  -0.000  -0.000   0.000
   26    9    8   25        3       0.000   0.000   0.000  -0.000  -0.000   0.000
   26    9    8   24        3       0.000   0.000   0.000  -0.000  -0.000   0.000
   25    8    6    5        3       0.000   0.000   0.000  -0.000  -0.000   0.000
   24    8    6    5        3       0.000   0.000   0.000  -0.000  -0.000   0.000
   26    9    6    5        3       0.000   0.000   0.000  -0.000  -0.000   0.000
    4    3    2    1        3       0.000   0.000   0.000  -0.000  -0.000   0.000
   11   10    9    8        3       0.000   0.000   0.000  -0.000  -0.000   0.000
   11   10    9    6        3       0.000   0.000   0.000  -0.000  -0.000   0.000
    5    3    2    1        3      -1.157  -3.471   0.000   4.628  -0.000   0.000
   14   12   10    9        3       0.000   0.000   0.000  -0.000  -0.000   0.000
   15   12   10    9        3       0.000   0.000   0.000  -0.000  -0.000   0.000
   14   12   10   11        3       0.000   0.000   0.000  -0.000  -0.000   0.000
   15   12   10   11        3       0.000   0.000   0.000  -0.000  -0.000   0.000
   12   10    9    6        3       8.786   0.000  -8.786  -0.000  -0.000   0.000
   12   10    9    8        3       8.786   0.000  -8.786  -0.000  -0.000   0.000

[ pairs ]
     1     4    1
     1     5    1
     2     6    1
     4     6    1
     3     7    1
     3     8    1
     3     9    1
     5    10    1
     7    10    1
     6    11    1
     6    12    1
     8    11    1
     3    16    1
     8    12    1
     3    17    1
     3    18    1
     9    13    1
     9    14    1
     4    19    1
    11    13    1
     9    15    1
     5    19    1
     4    20    1
    11    14    1
     5    20    1
    11    15    1
     5    21    1
     5    22    1
     5    23    1
     8    21    1
     5    24    1
     9    21    1
     8    22    1
     5    25    1
     9    22    1
     8    23    1
     7    24    1
     5    26    1
     9    23    1
     7    25    1
     7    26    1
    10    24    1
    16    19    1
    10    25    1
    17    19    1
    16    20    1
    18    19    1
    17    20    1
    11    26    1
    10    27    1
    18    20    1
    12    26    1
    10    28    1
    10    29    1
    14    27    1
    15    27    1
    14    28    1
    15    28    1
    14    29    1
    15    29    1
    24    26    1
    25    26    1

