LIGPARGEN GENERATED GRO FILE
   29
    1UNK    C00    1   0.100   0.100   0.000
    1UNK    C01    2  -0.052   0.100   0.000
    1UNK    C02    3  -0.108   0.100   0.140
    1UNK    O03    4  -0.042   0.100   0.243
    1UNK    O04    5  -0.245   0.100   0.134
    1UNK    C05    6  -0.318   0.092   0.259
    1UNK    C06    7  -0.322  -0.046   0.317
    1UNK    C07    8  -0.316   0.213   0.348
    1UNK    C08    9  -0.439   0.184   0.265
    1UNK    C09   10  -0.566   0.142   0.330
    1UNK    O0A   11  -0.571   0.088   0.440
    1UNK    S0B   12  -0.717   0.166   0.238
    1UNK    C0C   13  -0.793   0.006   0.245
    1UNK    O0D   14  -0.798   0.260   0.313
    1UNK    O0E   15  -0.680   0.192   0.100
    1UNK    H0F   16   0.138   0.100  -0.103
    1UNK    H0G   17   0.139   0.012   0.051
    1UNK    H0H   18   0.139   0.189   0.051
    1UNK    H0I   19  -0.088   0.010  -0.052
    1UNK    H0J   20  -0.088   0.189  -0.052
    1UNK    H0K   21  -0.221  -0.089   0.321
    1UNK    H0M   22  -0.384  -0.112   0.256
    1UNK    H0N   23  -0.361  -0.048   0.420
    1UNK    H0O   24  -0.254   0.296   0.320
    1UNK    H0P   25  -0.320   0.197   0.456
    1UNK    H0Q   26  -0.453   0.250   0.179
    1UNK    H0R   27  -0.814  -0.019   0.349
    1UNK    H0S   28  -0.725  -0.067   0.201
    1UNK    H0T   29  -0.886   0.010   0.188
   1.00000   1.00000   1.00000

