LIGPARGEN GENERATED GRO FILE
   31
    1UNK    C00    1   0.100   0.100   0.000
    1UNK    C01    2  -0.053   0.100   0.000
    1UNK    O02    3  -0.104   0.100   0.133
    1UNK    C03    4  -0.175   0.216   0.182
    1UNK    C04    5  -0.106   0.339   0.130
    1UNK    C05    6  -0.068   0.483   0.172
    1UNK    C06    7  -0.162   0.547   0.273
    1UNK    C07    8  -0.089   0.526   0.024
    1UNK    C08    9   0.014   0.434  -0.055
    1UNK    O09   10   0.134   0.434  -0.072
    1UNK    C0A   11  -0.109   0.348  -0.109
    1UNK    C0B   12  -0.155   0.406  -0.244
    1UNK    C0C   13  -0.106   0.192  -0.114
    1UNK    O0D   14  -0.160   0.132  -0.211
    1UNK    C0E   15  -0.185   0.407   0.011
    1UNK    H0F   16   0.138   0.013   0.055
    1UNK    H0G   17   0.143   0.188   0.049
    1UNK    H0H   18   0.140   0.096  -0.102
    1UNK    H0I   19  -0.079  -0.001  -0.035
    1UNK    H0J   20  -0.171   0.212   0.292
    1UNK    H0K   21  -0.280   0.209   0.152
    1UNK    H0M   22  -0.004   0.300   0.120
    1UNK    H0N   23   0.035   0.495   0.207
    1UNK    H0O   24  -0.267   0.522   0.253
    1UNK    H0P   25  -0.152   0.656   0.271
    1UNK    H0Q   26  -0.138   0.513   0.374
    1UNK    H0R   27  -0.113   0.626  -0.010
    1UNK    H0S   28  -0.090   0.371  -0.325
    1UNK    H0T   29  -0.153   0.515  -0.245
    1UNK    H0U   30  -0.258   0.374  -0.267
    1UNK    H0V   31  -0.292   0.423   0.014
   1.00000   1.00000   1.00000

