
;
; GENERATED BY LigParGen Server
; Jorgensen Lab @ Yale University 
;
[ atomtypes ]
  opls_818  H818     1.0080     0.000    A    2.50000E-01   1.25520E-01
  opls_804  C804    12.0110     0.000    A    3.45000E-01   3.47272E-01
  opls_824  H824     1.0080     0.000    A    2.50000E-01   1.25520E-01
  opls_810  C810    12.0110     0.000    A    3.45000E-01   3.47272E-01
  opls_828  H828     1.0080     0.000    A    2.50000E-01   1.25520E-01
  opls_808  C808    12.0110     0.000    A    3.75000E-01   4.39320E-01
  opls_807  C807    12.0110     0.000    A    3.45000E-01   3.47272E-01
  opls_806  C806    12.0110     0.000    A    3.50000E-01   2.76144E-01
  opls_815  H815     1.0080     0.000    A    2.50000E-01   1.25520E-01
  opls_801  C801    12.0110     0.000    A    3.50000E-01   2.76144E-01
  opls_822  H822     1.0080     0.000    A    2.50000E-01   1.25520E-01
  opls_803  C803    12.0110     0.000    A    3.50000E-01   2.76144E-01
  opls_825  H825     1.0080     0.000    A    2.50000E-01   1.25520E-01
  opls_830  H830     1.0080     0.000    A    2.50000E-01   1.25520E-01
  opls_809  O809    15.9990     0.000    A    2.96000E-01   8.78640E-01
  opls_821  H821     1.0080     0.000    A    2.50000E-01   1.25520E-01
  opls_820  H820     1.0080     0.000    A    2.50000E-01   1.25520E-01
  opls_812  C812    12.0110     0.000    A    3.55000E-01   2.92880E-01
  opls_829  H829     1.0080     0.000    A    2.50000E-01   1.25520E-01
  opls_805  C805    12.0110     0.000    A    3.45000E-01   3.47272E-01
  opls_816  H816     1.0080     0.000    A    2.50000E-01   1.25520E-01
  opls_800  C800    12.0110     0.000    A    3.50000E-01   2.76144E-01
  opls_814  C814    12.0110     0.000    A    3.45000E-01   3.47272E-01
  opls_811  C811    12.0110     0.000    A    3.50000E-01   2.76144E-01
  opls_823  H823     1.0080     0.000    A    2.50000E-01   1.25520E-01
  opls_826  H826     1.0080     0.000    A    2.50000E-01   1.25520E-01
  opls_813  O813    15.9990     0.000    A    2.96000E-01   8.78640E-01
  opls_819  H819     1.0080     0.000    A    2.50000E-01   1.25520E-01
  opls_827  H827     1.0080     0.000    A    2.50000E-01   1.25520E-01
  opls_802  O802    15.9990     0.000    A    2.90000E-01   5.85760E-01
  opls_817  H817     1.0080     0.000    A    2.50000E-01   1.25520E-01
[ moleculetype ]
; Name               nrexcl
UNK                   3
[ atoms ]
;   nr       type  resnr residue  atom   cgnr     charge       mass  
     1   opls_800      1    UNK   C00      1    -0.2672    12.0110 
     2   opls_801      1    UNK   C01      1     0.0319    12.0110 
     3   opls_802      1    UNK   O02      1    -0.3669    15.9990 
     4   opls_803      1    UNK   C03      1      0.041    12.0110 
     5   opls_804      1    UNK   C04      1    -0.2336    12.0110 
     6   opls_805      1    UNK   C05      1    -0.0875    12.0110 
     7   opls_806      1    UNK   C06      1    -0.2337    12.0110 
     8   opls_807      1    UNK   C07      1    -0.1959    12.0110 
     9   opls_808      1    UNK   C08      1     0.3478    12.0110 
    10   opls_809      1    UNK   O09      1    -0.3398    15.9990 
    11   opls_810      1    UNK   C0A      1    -0.1545    12.0110 
    12   opls_811      1    UNK   C0B      1    -0.2187    12.0110 
    13   opls_812      1    UNK   C0C      1     0.3712    12.0110 
    14   opls_813      1    UNK   O0D      1    -0.4303    15.9990 
    15   opls_814      1    UNK   C0E      1    -0.1225    12.0110 
    16   opls_815      1    UNK   H0F      1     0.1023     1.0080 
    17   opls_816      1    UNK   H0G      1     0.1023     1.0080 
    18   opls_817      1    UNK   H0H      1     0.1023     1.0080 
    19   opls_818      1    UNK   H0I      1     0.1387     1.0080 
    20   opls_819      1    UNK   H0J      1     0.1108     1.0080 
    21   opls_820      1    UNK   H0K      1     0.1108     1.0080 
    22   opls_821      1    UNK   H0M      1     0.1416     1.0080 
    23   opls_822      1    UNK   H0N      1     0.1236     1.0080 
    24   opls_823      1    UNK   H0O      1     0.0901     1.0080 
    25   opls_824      1    UNK   H0P      1     0.0901     1.0080 
    26   opls_825      1    UNK   H0Q      1     0.0901     1.0080 
    27   opls_826      1    UNK   H0R      1     0.1775     1.0080 
    28   opls_827      1    UNK   H0S      1     0.1018     1.0080 
    29   opls_828      1    UNK   H0T      1     0.1018     1.0080 
    30   opls_829      1    UNK   H0U      1     0.1018     1.0080 
    31   opls_830      1    UNK   H0V      1      0.173     1.0080 
[ bonds ]
    2     1     1      0.1529 224262.400
    3     2     1      0.1410 267776.000
    4     3     1      0.1410 267776.000
    5     4     1      0.1510 234304.000
    6     5     1      0.1520 217568.000
    7     6     1      0.1510 234304.000
    8     6     1      0.1520 217568.000
    9     8     1      0.1522 265265.600
   10     9     1      0.1229 476976.000
   11     9     1      0.1522 265265.600
   12    11     1      0.1510 234304.000
   13     2     1      0.1522 265265.600
   14    13     1      0.1229 476976.000
   15     5     1      0.1520 217568.000
   16     1     1      0.1090 284512.000
   17     1     1      0.1090 284512.000
   18     1     1      0.1090 284512.000
   19     2     1      0.1090 284512.000
   20     4     1      0.1090 284512.000
   21     4     1      0.1090 284512.000
   22     5     1      0.1088 284512.000
   23     6     1      0.1088 284512.000
   24     7     1      0.1090 284512.000
   25     7     1      0.1090 284512.000
   26     7     1      0.1090 284512.000
   27     8     1      0.1088 284512.000
   28    12     1      0.1090 284512.000
   29    12     1      0.1090 284512.000
   30    12     1      0.1090 284512.000
   31    15     1      0.1088 284512.000
   15     8     1      0.1520 217568.000
   13    11     1      0.1522 265265.600
   15    11     1      0.1520 217568.000

[ angles ]
;  ai    aj    ak funct            c0            c1            c2            c3 
    1     2     3     1    109.500    418.400
    2     3     4     1    109.500    502.080
    3     4     5     1    109.500    418.400
    4     5     6     1    117.200    313.800
    5     6     7     1    117.200    313.800
    5     6     8     1     83.000    251.040
    6     8     9     1     85.000    527.184
    8     9    10     1    134.000    669.440
    8     9    11     1    116.000    585.760
    9    11    12     1    111.100    527.184
    1     2    13     1    111.100    527.184
    2    13    14     1    120.400    669.440
    4     5    15     1    117.200    313.800
    2     1    16     1    110.700    313.800
    2     1    17     1    110.700    313.800
    2     1    18     1    110.700    313.800
    1     2    19     1    110.700    313.800
    3     4    20     1    109.500    292.880
    3     4    21     1    109.500    292.880
    4     5    22     1    114.300    292.880
    5     6    23     1    117.200    313.800
    6     7    24     1    110.700    313.800
    6     7    25     1    110.700    313.800
    6     7    26     1    110.700    313.800
    6     8    27     1    117.200    313.800
   11    12    28     1    110.700    313.800
   11    12    29     1    110.700    313.800
   11    12    30     1    110.700    313.800
    5    15    31     1    117.200    313.800
   16     1    17     1    107.800    276.144
   25     7    26     1    107.800    276.144
   12    11    15     1    117.200    313.800
   11    15    31     1    117.200    313.800
   28    12    30     1    107.800    276.144
    9    11    15     1     85.000    527.184
   28    12    29     1    107.800    276.144
   17     1    18     1    107.800    276.144
    2    13    11     1    116.000    585.760
    6     5    22     1    117.200    313.800
    8    15    31     1    117.200    313.800
   16     1    18     1    107.800    276.144
    7     6    23     1    114.300    292.880
   10     9    11     1    134.000    669.440
    5    15     8     1     83.000    251.040
   15     8    27     1    117.200    313.800
    8     6    23     1    117.200    313.800
    6     8    15     1     83.000    251.040
    9    11    13     1    111.100    527.184
   15     5    22     1    117.200    313.800
   13    11    15     1    111.100    527.184
    6     5    15     1     83.000    251.040
    9     8    27     1    110.000    313.800
   11    13    14     1    120.400    669.440
    5    15    11     1     83.000    251.040
    8    15    11     1     83.000    251.040
    3     2    19     1    109.500    292.880
    7     6     8     1    117.200    313.800
    9     8    15     1     85.000    527.184
    3     2    13     1    109.500    418.400
    5     4    20     1    110.700    313.800
   13     2    19     1    109.500    292.880
   12    11    13     1    111.100    527.184
    5     4    21     1    110.700    313.800
   24     7    26     1    107.800    276.144
   24     7    25     1    107.800    276.144
   20     4    21     1    107.800    276.144
   29    12    30     1    107.800    276.144

[ dihedrals ]
; IMPROPER DIHEDRAL ANGLES 
;  ai    aj    ak    al funct            c0            c1            c2            c3            c4            c5
    11     9     8    10    4        180.000     10.460     2  
    14    13     2    11    4        180.000     43.932     2  

[ dihedrals ]
; PROPER DIHEDRAL ANGLES
;  ai    aj    ak    al funct            c0            c1            c2            c3            c4            c5
    9   11   13    2        3       0.818  -7.906   0.602   6.485  -0.000   0.000
    9    8    6    7        3       0.000   0.000   0.000  -0.000  -0.000   0.000
    9    8   15    5        3       0.000   0.000   0.000  -0.000  -0.000   0.000
    9    8    6    5        3       0.000   0.000   0.000  -0.000  -0.000   0.000
    9   11   15    5        3       0.000   0.000   0.000  -0.000  -0.000   0.000
   13    2    3    4        3       1.715   2.845   1.046  -5.607  -0.000   0.000
   13   11    9    8        3       0.000   0.000   0.000  -0.000  -0.000   0.000
   13   11    9   10        3       0.000   0.000   0.000  -0.000  -0.000   0.000
   13   11   15    8        3       0.000   0.000   0.000  -0.000  -0.000   0.000
   13   11   15    5        3       0.000   0.000   0.000  -0.000  -0.000   0.000
   12   11    9    8        3       0.000   0.000   0.000  -0.000  -0.000   0.000
   12   11    9   10        3       0.000   0.000   0.000  -0.000  -0.000   0.000
   12   11   13    2        3       0.818  -7.906   0.602   6.485  -0.000   0.000
    7    6    5    4        3       0.000   0.000   0.000  -0.000  -0.000   0.000
   12   11   15    5        3       0.000   0.000   0.000  -0.000  -0.000   0.000
   12   11   15    8        3       0.000   0.000   0.000  -0.000  -0.000   0.000
    4    3    2    1        3       1.715   2.845   1.046  -5.607  -0.000   0.000
   11    9    8    6        3       0.000   0.000   0.000  -0.000  -0.000   0.000
   11   13    2    1        3       0.000   0.000   0.000  -0.000  -0.000   0.000
   11   13    2    3        3       6.276   0.000  -6.276  -0.000  -0.000   0.000
    5    4    3    2        3       1.715   2.845   1.046  -5.607  -0.000   0.000
   15    8    9   10        3       0.000   0.000   0.000  -0.000  -0.000   0.000
   15   11    9   10        3       0.000   0.000   0.000  -0.000  -0.000   0.000
   15   11   13    2        3       0.000   0.000   0.000  -0.000  -0.000   0.000
   15   11   13   14        3       0.000   0.000   0.000  -0.000  -0.000   0.000
    6    5    4    3        3       0.000   0.000   0.000  -0.000  -0.000   0.000
   15    5    4    3        3       0.000   0.000   0.000  -0.000  -0.000   0.000
   11   15    5    4        3       0.000   0.000   0.000  -0.000  -0.000   0.000
   15    5    6    7        3       0.000   0.000   0.000  -0.000  -0.000   0.000
   15    8    6    7        3       0.000   0.000   0.000  -0.000  -0.000   0.000
    8    6    5    4        3       0.000   0.000   0.000  -0.000  -0.000   0.000
    8   15    5    4        3       0.000   0.000   0.000  -0.000  -0.000   0.000
   11   15    8    6        3       0.000   0.000   0.000  -0.000  -0.000   0.000
   11   15    5    6        3       0.000   0.000   0.000  -0.000  -0.000   0.000
   19    2   13   11        3       0.575   1.726   0.000  -2.301  -0.000   0.000
   19    2   13   14        3       0.000   0.000   0.000  -0.000  -0.000   0.000
   17    1    2   13        3      -0.209  -0.628   0.000   0.837  -0.000   0.000
   18    1    2   13        3      -0.209  -0.628   0.000   0.837  -0.000   0.000
   16    1    2   13        3      -0.209  -0.628   0.000   0.837  -0.000   0.000
   19    2    1   16        3       0.628   1.883   0.000  -2.510  -0.000   0.000
   19    2    1   18        3       0.628   1.883   0.000  -2.510  -0.000   0.000
   19    2    1   17        3       0.628   1.883   0.000  -2.510  -0.000   0.000
   17    1    2    3        3       0.979   2.937   0.000  -3.916  -0.000   0.000
   16    1    2    3        3       0.979   2.937   0.000  -3.916  -0.000   0.000
   18    1    2    3        3       0.979   2.937   0.000  -3.916  -0.000   0.000
   29   12   11   13        3       0.628   1.883   0.000  -2.510  -0.000   0.000
   28   12   11   13        3       0.628   1.883   0.000  -2.510  -0.000   0.000
   30   12   11   13        3       0.628   1.883   0.000  -2.510  -0.000   0.000
   28   12   11    9        3       0.628   1.883   0.000  -2.510  -0.000   0.000
   29   12   11    9        3       0.628   1.883   0.000  -2.510  -0.000   0.000
   30   12   11    9        3       0.628   1.883   0.000  -2.510  -0.000   0.000
   30   12   11   15        3       0.628   1.883   0.000  -2.510  -0.000   0.000
   25    7    6    5        3       0.628   1.883   0.000  -2.510  -0.000   0.000
   26    7    6    8        3       0.628   1.883   0.000  -2.510  -0.000   0.000
   28   12   11   15        3       0.628   1.883   0.000  -2.510  -0.000   0.000
   20    4    5   15        3       0.628   1.883   0.000  -2.510  -0.000   0.000
   26    7    6    5        3       0.628   1.883   0.000  -2.510  -0.000   0.000
   24    7    6    5        3       0.628   1.883   0.000  -2.510  -0.000   0.000
   21    4    5    6        3       0.628   1.883   0.000  -2.510  -0.000   0.000
   20    4    5    6        3       0.628   1.883   0.000  -2.510  -0.000   0.000
   29   12   11   15        3       0.628   1.883   0.000  -2.510  -0.000   0.000
   21    4    5   15        3       0.628   1.883   0.000  -2.510  -0.000   0.000
   24    7    6    8        3       0.628   1.883   0.000  -2.510  -0.000   0.000
   25    7    6    8        3       0.628   1.883   0.000  -2.510  -0.000   0.000
   26    7    6   23        3       0.628   1.883   0.000  -2.510  -0.000   0.000
   25    7    6   23        3       0.628   1.883   0.000  -2.510  -0.000   0.000
   24    7    6   23        3       0.628   1.883   0.000  -2.510  -0.000   0.000
   19    2    3    4        3       1.590   4.770   0.000  -6.360  -0.000   0.000
   21    4    3    2        3       1.590   4.770   0.000  -6.360  -0.000   0.000
   20    4    3    2        3       1.590   4.770   0.000  -6.360  -0.000   0.000
   27    8    9   11        3       0.000   0.000   0.000  -0.000  -0.000   0.000
   27    8    9   10        3       0.000   0.000   0.000  -0.000  -0.000   0.000
   22    5    4   20        3       0.628   1.883   0.000  -2.510  -0.000   0.000
   22    5    4   21        3       0.628   1.883   0.000  -2.510  -0.000   0.000
   22    5    4    3        3       0.979   2.937   0.000  -3.916  -0.000   0.000
   31   15   11   13        3       0.000   0.000   0.000  -0.000  -0.000   0.000
   31   15    8    9        3       0.000   0.000   0.000  -0.000  -0.000   0.000
   23    6    8    9        3       0.000   0.000   0.000  -0.000  -0.000   0.000
   31   15   11    9        3       0.000   0.000   0.000  -0.000  -0.000   0.000
   31   15   11   12        3       0.000   0.000   0.000  -0.000  -0.000   0.000
   31   15    5    4        3       0.000   0.000   0.000  -0.000  -0.000   0.000
   22    5    6    7        3       0.000   0.000   0.000  -0.000  -0.000   0.000
   27    8    6    7        3       0.000   0.000   0.000  -0.000  -0.000   0.000
   23    6    5    4        3       0.000   0.000   0.000  -0.000  -0.000   0.000
   31   15    5    6        3       0.000   0.000   0.000  -0.000  -0.000   0.000
   23    6    8   15        3       0.000   0.000   0.000  -0.000  -0.000   0.000
   27    8    6    5        3       0.000   0.000   0.000  -0.000  -0.000   0.000
   31   15    8    6        3       0.000   0.000   0.000  -0.000  -0.000   0.000
   23    6    5   15        3       0.000   0.000   0.000  -0.000  -0.000   0.000
   27    8   15    5        3       0.000   0.000   0.000  -0.000  -0.000   0.000
   22    5    6    8        3       0.000   0.000   0.000  -0.000  -0.000   0.000
   27    8   15   11        3       0.000   0.000   0.000  -0.000  -0.000   0.000
   22    5   15   11        3       0.000   0.000   0.000  -0.000  -0.000   0.000
   22    5   15    8        3       0.000   0.000   0.000  -0.000  -0.000   0.000
   31   15    8   27        3       0.000   0.000   0.000  -0.000  -0.000   0.000
   27    8    6   23        3       0.000   0.000   0.000  -0.000  -0.000   0.000
   23    6    5   22        3       0.000   0.000   0.000  -0.000  -0.000   0.000
   31   15    5   22        3       0.000   0.000   0.000  -0.000  -0.000   0.000
   10    9    8    6        3       0.000   0.000   0.000  -0.000  -0.000   0.000
   14   13    2    1        3       0.000   0.000   0.000  -0.000  -0.000   0.000
   14   13    2    3        3       0.000   0.000   0.000  -0.000  -0.000   0.000
   14   13   11    9        3      29.288   0.000  -29.288  -0.000  -0.000   0.000
   14   13   11   12        3       0.000   0.000   0.000  -0.000  -0.000   0.000

[ pairs ]
     1     4    1
     2     5    1
     3     6    1
     4     7    1
     2     9    1
     4     8    1
     1    11    1
     5     9    1
     3    11    1
     2    12    1
     4    11    1
     1    14    1
     7     9    1
     6    10    1
     6    11    1
     5    12    1
     4    13    1
     3    14    1
     2    15    1
     5    13    1
     3    15    1
     3    16    1
     8    12    1
     3    17    1
     8    13    1
     3    18    1
    10    12    1
     7    15    1
     2    20    1
    10    13    1
     9    14    1
     4    19    1
     2    21    1
    10    15    1
     3    22    1
    12    14    1
     6    20    1
     6    21    1
     4    23    1
    14    15    1
    13    16    1
     7    22    1
     5    24    1
    13    17    1
    11    19    1
     8    22    1
     5    25    1
    13    18    1
     5    26    1
     9    23    1
     8    24    1
     5    27    1
    14    19    1
    11    22    1
     8    25    1
     8    26    1
     7    27    1
    16    19    1
    15    20    1
     4    31    1
    17    19    1
    15    21    1
    18    19    1
    10    27    1
     9    28    1
     6    31    1
    15    23    1
    11    27    1
     9    29    1
     9    30    1
     9    31    1
    13    28    1
    20    22    1
    13    29    1
    21    22    1
    15    28    1
    13    30    1
    12    31    1
    15    29    1
    13    31    1
    22    23    1
    15    30    1
    23    24    1
    23    25    1
    23    26    1
    23    27    1
    22    31    1
    27    31    1

