LIGPARGEN GENERATED GRO FILE
   40
    1UNK    C00    1   0.100   0.100   0.000
    1UNK    C01    2  -0.052   0.100   0.000
    1UNK    O02    3  -0.095   0.100   0.136
    1UNK    C03    4  -0.104  -0.022   0.193
    1UNK    O04    5  -0.105  -0.130   0.135
    1UNK    O05    6  -0.105  -0.006   0.327
    1UNK    C06    7  -0.108  -0.125   0.405
    1UNK    C07    8  -0.251  -0.177   0.419
    1UNK    C08    9  -0.337  -0.079   0.495
    1UNK    O09   10  -0.360   0.035   0.452
    1UNK    C0A   11  -0.396  -0.124   0.626
    1UNK    C0B   12  -0.301  -0.097   0.742
    1UNK    C0C   13  -0.362  -0.144   0.874
    1UNK    C0D   14  -0.268  -0.118   0.992
    1UNK    N0E   15  -0.323  -0.162   1.121
    1UNK    C0F   16  -0.349  -0.306   1.126
    1UNK    C0G   17  -0.232  -0.125   1.230
    1UNK    H0H   18   0.139   0.100  -0.102
    1UNK    H0I   19   0.139   0.012   0.053
    1UNK    H0J   20   0.138   0.188   0.053
    1UNK    H0K   21  -0.092   0.015  -0.056
    1UNK    H0M   22  -0.089   0.191  -0.047
    1UNK    H0N   23  -0.066  -0.101   0.503
    1UNK    H0O   24  -0.043  -0.202   0.361
    1UNK    H0P   25  -0.249  -0.273   0.473
    1UNK    H0Q   26  -0.298  -0.194   0.322
    1UNK    H0R   27  -0.422  -0.230   0.619
    1UNK    H0S   28  -0.491  -0.070   0.641
    1UNK    H0T   29  -0.277   0.010   0.747
    1UNK    H0U   30  -0.206  -0.149   0.724
    1UNK    H0V   31  -0.384  -0.251   0.865
    1UNK    H0W   32  -0.457  -0.092   0.891
    1UNK    H0X   33  -0.249  -0.010   0.997
    1UNK    H0Y   34  -0.171  -0.167   0.973
    1UNK    H0Z   35  -0.430  -0.334   1.057
    1UNK    H10   36  -0.384  -0.336   1.226
    1UNK    H11   37  -0.260  -0.364   1.102
    1UNK    H12   38  -0.216  -0.017   1.232
    1UNK    H13   39  -0.134  -0.174   1.219
    1UNK    H14   40  -0.274  -0.152   1.327
   1.00000   1.00000   1.00000

