
;
; GENERATED BY LigParGen Server
; Jorgensen Lab @ Yale University 
;
[ atomtypes ]
  opls_814  C814    12.0110     0.000    A    3.50000E-01   2.76144E-01
  opls_824  H824     1.0080     0.000    A    2.50000E-01   1.25520E-01
  opls_812  N812    14.0070     0.000    A    3.30000E-01   7.11280E-01
  opls_818  C818    12.0110     0.000    A    3.50000E-01   2.76144E-01
  opls_843  H843     1.0080     0.000    A    2.50000E-01   1.25520E-01
  opls_804  O804    15.9990     0.000    A    2.96000E-01   8.78640E-01
  opls_836  H836     1.0080     0.000    A    2.50000E-01   1.25520E-01
  opls_834  H834     1.0080     0.000    A    2.50000E-01   1.25520E-01
  opls_828  H828     1.0080     0.000    A    2.50000E-01   1.25520E-01
  opls_806  C806    12.0110     0.000    A    3.50000E-01   2.76144E-01
  opls_827  H827     1.0080     0.000    A    2.50000E-01   1.25520E-01
  opls_809  C809    12.0110     0.000    A    3.50000E-01   2.76144E-01
  opls_838  H838     1.0080     0.000    A    2.50000E-01   1.25520E-01
  opls_822  H822     1.0080     0.000    A    2.50000E-01   1.25520E-01
  opls_807  C807    12.0110     0.000    A    3.30000E-01   2.76144E-01
  opls_830  H830     1.0080     0.000    A    2.50000E-01   1.25520E-01
  opls_810  C810    12.0110     0.000    A    3.50000E-01   2.76144E-01
  opls_842  H842     1.0080     0.000    A    2.50000E-01   1.25520E-01
  opls_808  N808    14.0070     0.000    A    3.20000E-01   7.11280E-01
  opls_820  H820     1.0080     0.000    A    2.50000E-01   1.25520E-01
  opls_817  N817    14.0070     0.000    A    3.30000E-01   7.11280E-01
  opls_837  H837     1.0080     0.000    A    2.50000E-01   1.25520E-01
  opls_821  H821     1.0080     0.000    A    2.50000E-01   1.25520E-01
  opls_831  H831     1.0080     0.000    A    2.50000E-01   1.25520E-01
  opls_832  H832     1.0080     0.000    A    2.50000E-01   1.25520E-01
  opls_800  C800    12.0110     0.000    A    3.50000E-01   2.76144E-01
  opls_811  C811    12.0110     0.000    A    3.50000E-01   2.76144E-01
  opls_815  C815    12.0110     0.000    A    3.50000E-01   2.76144E-01
  opls_823  H823     1.0080     0.000    A    2.50000E-01   1.25520E-01
  opls_819  C819    12.0110     0.000    A    3.50000E-01   2.76144E-01
  opls_805  O805    15.9990     0.000    A    2.90000E-01   5.85760E-01
  opls_826  H826     1.0080     0.000    A    2.50000E-01   1.25520E-01
  opls_835  H835     1.0080     0.000    A    2.50000E-01   1.25520E-01
  opls_841  H841     1.0080     0.000    A    2.50000E-01   1.25520E-01
  opls_825  H825     1.0080     0.000    A    2.50000E-01   1.25520E-01
  opls_816  C816    12.0110     0.000    A    3.50000E-01   2.76144E-01
  opls_833  H833     1.0080     0.000    A    2.50000E-01   1.25520E-01
  opls_802  O802    15.9990     0.000    A    2.90000E-01   5.85760E-01
  opls_839  H839     1.0080     0.000    A    2.50000E-01   1.25520E-01
  opls_801  C801    12.0110     0.000    A    3.50000E-01   2.76144E-01
  opls_803  C803    12.0110     0.000    A    3.55000E-01   2.92880E-01
  opls_840  H840     1.0080     0.000    A    2.50000E-01   1.25520E-01
  opls_813  C813    12.0110     0.000    A    3.50000E-01   2.76144E-01
  opls_829  H829     1.0080     0.000    A    2.50000E-01   1.25520E-01
  opls_844  H844     1.0080     0.000    A    2.50000E-01   1.25520E-01
[ moleculetype ]
; Name               nrexcl
UNK                   3
[ atoms ]
;   nr       type  resnr residue  atom   cgnr     charge       mass  
     1   opls_800      1    UNK   C00      1    -0.2821    12.0110 
     2   opls_801      1    UNK   C01      1     0.1109    12.0110 
     3   opls_802      1    UNK   O02      1    -0.3386    15.9990 
     4   opls_803      1    UNK   C03      1      0.579    12.0110 
     5   opls_804      1    UNK   O04      1    -0.4853    15.9990 
     6   opls_805      1    UNK   O05      1    -0.3082    15.9990 
     7   opls_806      1    UNK   C06      1     0.1349    12.0110 
     8   opls_807      1    UNK   C07      1     0.1278    12.0110 
     9   opls_808      1    UNK   N08      1    -0.3404    14.0070 
    10   opls_809      1    UNK   C09      1    -0.1383    12.0110 
    11   opls_810      1    UNK   C0A      1     0.0589    12.0110 
    12   opls_811      1    UNK   C0B      1    -0.2329    12.0110 
    13   opls_812      1    UNK   N0C      1     -0.523    14.0070 
    14   opls_813      1    UNK   C0D      1    -0.0729    12.0110 
    15   opls_814      1    UNK   C0E      1    -0.0158    12.0110 
    16   opls_815      1    UNK   C0F      1      0.153    12.0110 
    17   opls_816      1    UNK   C0G      1    -0.2647    12.0110 
    18   opls_817      1    UNK   N0H      1    -0.6272    14.0070 
    19   opls_818      1    UNK   C0I      1    -0.0317    12.0110 
    20   opls_819      1    UNK   C0J      1    -0.0296    12.0110 
    21   opls_820      1    UNK   H0K      1     0.1041     1.0080 
    22   opls_821      1    UNK   H0M      1     0.1041     1.0080 
    23   opls_822      1    UNK   H0N      1     0.1041     1.0080 
    24   opls_823      1    UNK   H0O      1     0.1285     1.0080 
    25   opls_824      1    UNK   H0P      1     0.1575     1.0080 
    26   opls_825      1    UNK   H0Q      1     0.1575     1.0080 
    27   opls_826      1    UNK   H0R      1     0.1271     1.0080 
    28   opls_827      1    UNK   H0S      1      0.113     1.0080 
    29   opls_828      1    UNK   H0T      1     0.0908     1.0080 
    30   opls_829      1    UNK   H0U      1     0.0908     1.0080 
    31   opls_830      1    UNK   H0V      1     0.0908     1.0080 
    32   opls_831      1    UNK   H0W      1     0.0871     1.0080 
    33   opls_832      1    UNK   H0X      2     0.0871     1.0080 
    34   opls_833      1    UNK   H0Y      2     0.0871     1.0080 
    35   opls_834      1    UNK   H0Z      2     0.1123     1.0080 
    36   opls_835      1    UNK   H10      2     0.1123     1.0080 
    37   opls_836      1    UNK   H11      2     0.0913     1.0080 
    38   opls_837      1    UNK   H12      2     0.0913     1.0080 
    39   opls_838      1    UNK   H13      2     0.0913     1.0080 
    40   opls_839      1    UNK   H14      2     0.0807     1.0080 
    41   opls_840      1    UNK   H15      2     0.0807     1.0080 
    42   opls_841      1    UNK   H16      2     0.0807     1.0080 
    43   opls_842      1    UNK   H17      2     0.0854     1.0080 
    44   opls_843      1    UNK   H18      2     0.0854     1.0080 
    45   opls_844      1    UNK   H19      2     0.0854     1.0080 
[ bonds ]
    2     1     1      0.1529 224262.400
    3     2     1      0.1410 267776.000
    4     3     1      0.1327 179075.200
    5     4     1      0.1229 476976.000
    6     4     1      0.1327 179075.200
    7     6     1      0.1410 267776.000
    8     7     1      0.1470 326352.000
    9     8     1      0.1157 543920.000
   10     2     1      0.1529 224262.400
   11    10     1      0.1529 224262.400
   12    11     1      0.1529 224262.400
   13    11     1      0.1448 319657.600
   14    13     1      0.1448 319657.600
   15    13     1      0.1448 319657.600
   16    10     1      0.1529 224262.400
   17    16     1      0.1529 224262.400
   18    16     1      0.1448 319657.600
   19    18     1      0.1448 319657.600
   20    18     1      0.1448 319657.600
   21     1     1      0.1090 284512.000
   22     1     1      0.1090 284512.000
   23     1     1      0.1090 284512.000
   24     2     1      0.1090 284512.000
   25     7     1      0.1090 284512.000
   26     7     1      0.1090 284512.000
   27    10     1      0.1090 284512.000
   28    11     1      0.1090 284512.000
   29    12     1      0.1090 284512.000
   30    12     1      0.1090 284512.000
   31    12     1      0.1090 284512.000
   32    14     1      0.1090 284512.000
   33    14     1      0.1090 284512.000
   34    14     1      0.1090 284512.000
   35    15     1      0.1090 284512.000
   36    15     1      0.1090 284512.000
   37    17     1      0.1090 284512.000
   38    17     1      0.1090 284512.000
   39    17     1      0.1090 284512.000
   40    19     1      0.1090 284512.000
   41    19     1      0.1090 284512.000
   42    19     1      0.1090 284512.000
   43    20     1      0.1090 284512.000
   44    20     1      0.1090 284512.000
   45    20     1      0.1090 284512.000
   16    15     1      0.1529 224262.400

[ angles ]
;  ai    aj    ak funct            c0            c1            c2            c3 
    1     2     3     1    109.500    418.400
    2     3     4     1    116.900    694.544
    3     4     5     1    123.400    694.544
    3     4     6     1    118.180    584.923
    4     6     7     1    116.900    694.544
    6     7     8     1    110.580    432.207
    7     8     9     1    180.000   1255.200
    1     2    10     1    112.700    488.273
    2    10    11     1    112.700    488.273
   10    11    12     1    112.700    488.273
   10    11    13     1    109.470    470.282
   11    13    14     1    107.200    433.462
   11    13    15     1    107.200    433.462
    2    10    16     1    112.700    488.273
   10    16    17     1    112.700    488.273
   10    16    18     1    109.470    470.282
   16    18    19     1    107.200    433.462
   16    18    20     1    107.200    433.462
    2     1    21     1    110.700    313.800
    2     1    22     1    110.700    313.800
    2     1    23     1    110.700    313.800
    1     2    24     1    110.700    313.800
    6     7    25     1    109.500    292.880
    6     7    26     1    109.500    292.880
    2    10    27     1    110.700    313.800
   10    11    28     1    110.700    313.800
   11    12    29     1    110.700    313.800
   11    12    30     1    110.700    313.800
   11    12    31     1    110.700    313.800
   13    14    32     1    109.500    292.880
   13    14    33     1    109.500    292.880
   13    14    34     1    109.500    292.880
   13    15    35     1    109.500    292.880
   13    15    36     1    109.500    292.880
   16    17    37     1    110.700    313.800
   16    17    38     1    110.700    313.800
   16    17    39     1    110.700    313.800
   18    19    40     1    109.500    292.880
   18    19    41     1    109.500    292.880
   18    19    42     1    109.500    292.880
   18    20    43     1    109.500    292.880
   18    20    44     1    109.500    292.880
   18    20    45     1    109.500    292.880
   11    10    16     1    112.700    488.273
   15    16    18     1    109.470    470.282
    5     4     6     1    123.400    694.544
   37    17    39     1    107.800    276.144
   43    20    44     1    107.800    276.144
   21     1    23     1    107.800    276.144
   10     2    24     1    110.700    313.800
   41    19    42     1    107.800    276.144
   29    12    30     1    107.800    276.144
   16    15    36     1    110.700    313.800
   33    14    34     1    107.800    276.144
    8     7    26     1    108.500    292.880
   22     1    23     1    107.800    276.144
   14    13    15     1    107.200    433.462
   11    10    27     1    110.700    313.800
   43    20    45     1    107.800    276.144
   13    11    28     1    109.500    292.880
   32    14    33     1    107.800    276.144
   35    15    36     1    107.800    276.144
   30    12    31     1    107.800    276.144
   37    17    38     1    107.800    276.144
    8     7    25     1    108.500    292.880
   10    16    15     1    112.700    488.273
   25     7    26     1    107.800    276.144
   44    20    45     1    107.800    276.144
   17    16    18     1    109.470    470.282
   19    18    20     1    107.200    433.462
   12    11    13     1    109.470    470.282
   15    16    17     1    112.700    488.273
   40    19    41     1    107.800    276.144
   21     1    22     1    107.800    276.144
    3     2    24     1    109.500    292.880
   16    10    27     1    110.700    313.800
   12    11    28     1    110.700    313.800
   40    19    42     1    107.800    276.144
   16    15    35     1    110.700    313.800
   29    12    31     1    107.800    276.144
   32    14    34     1    107.800    276.144
   13    15    16     1    109.470    470.282
   38    17    39     1    107.800    276.144
    3     2    10     1    109.500    418.400

[ dihedrals ]
; IMPROPER DIHEDRAL ANGLES 
;  ai    aj    ak    al funct            c0            c1            c2            c3            c4            c5
     6     4     3     5    4        180.000     43.932     2  

[ dihedrals ]
; PROPER DIHEDRAL ANGLES
;  ai    aj    ak    al funct            c0            c1            c2            c3            c4            c5
    4    3    2    1        3      -2.197   5.201   0.527  -3.531  -0.000   0.000
   15   16   10    2        3       2.301  -1.464   0.837  -1.674  -0.000   0.000
   16   10   11   12        3       2.301  -1.464   0.837  -1.674  -0.000   0.000
   17   16   10   11        3       2.301  -1.464   0.837  -1.674  -0.000   0.000
   11   10    2    1        3       2.301  -1.464   0.837  -1.674  -0.000   0.000
   12   11   10    2        3       2.301  -1.464   0.837  -1.674  -0.000   0.000
   17   16   10    2        3       2.301  -1.464   0.837  -1.674  -0.000   0.000
   16   10    2    1        3       2.301  -1.464   0.837  -1.674  -0.000   0.000
   15   16   10   11        3       2.301  -1.464   0.837  -1.674  -0.000   0.000
   17   16   15   13        3       3.335  -1.552   2.820  -4.602  -0.000   0.000
   16   10   11   13        3       3.335  -1.552   2.820  -4.602  -0.000   0.000
   11   10    2    3        3       2.874   0.582   2.092  -5.548  -0.000   0.000
   16   10    2    3        3       2.874   0.582   2.092  -5.548  -0.000   0.000
   16   15   13   14        3       1.789   3.492   0.536  -5.816  -0.000   0.000
   16   15   13   11        3       1.789   3.492   0.536  -5.816  -0.000   0.000
   10    2    3    4        3      -2.197   5.201   0.527  -3.531  -0.000   0.000
   14   13   11   10        3       1.789   3.492   0.536  -5.816  -0.000   0.000
   19   18   16   15        3       1.789   3.492   0.536  -5.816  -0.000   0.000
   20   18   16   10        3       1.789   3.492   0.536  -5.816  -0.000   0.000
   15   13   11   12        3       1.789   3.492   0.536  -5.816  -0.000   0.000
   20   18   16   17        3       1.789   3.492   0.536  -5.816  -0.000   0.000
   14   13   11   12        3       1.789   3.492   0.536  -5.816  -0.000   0.000
   19   18   16   17        3       1.789   3.492   0.536  -5.816  -0.000   0.000
   20   18   16   15        3       1.789   3.492   0.536  -5.816  -0.000   0.000
   19   18   16   10        3       1.789   3.492   0.536  -5.816  -0.000   0.000
   15   13   11   10        3       1.789   3.492   0.536  -5.816  -0.000   0.000
    7    6    4    5        3      21.439   0.000  -21.439  -0.000  -0.000   0.000
    7    6    4    3        3      31.206  -9.768  -21.439  -0.000  -0.000   0.000
    8    7    6    4        3      -2.197   5.201   0.527  -3.531  -0.000   0.000
   37   17   16   15        3       0.628   1.883   0.000  -2.510  -0.000   0.000
   27   10   16   15        3       0.628   1.883   0.000  -2.510  -0.000   0.000
   35   15   16   10        3       0.628   1.883   0.000  -2.510  -0.000   0.000
   36   15   16   17        3       0.628   1.883   0.000  -2.510  -0.000   0.000
   21    1    2   10        3       0.628   1.883   0.000  -2.510  -0.000   0.000
   36   15   16   10        3       0.628   1.883   0.000  -2.510  -0.000   0.000
   38   17   16   10        3       0.628   1.883   0.000  -2.510  -0.000   0.000
   27   10    2    1        3       0.628   1.883   0.000  -2.510  -0.000   0.000
   27   10   11   12        3       0.628   1.883   0.000  -2.510  -0.000   0.000
   27   10   16   17        3       0.628   1.883   0.000  -2.510  -0.000   0.000
   35   15   16   17        3       0.628   1.883   0.000  -2.510  -0.000   0.000
   22    1    2   10        3       0.628   1.883   0.000  -2.510  -0.000   0.000
   39   17   16   10        3       0.628   1.883   0.000  -2.510  -0.000   0.000
   23    1    2   10        3       0.628   1.883   0.000  -2.510  -0.000   0.000
   29   12   11   10        3       0.628   1.883   0.000  -2.510  -0.000   0.000
   24    2   10   16        3       0.628   1.883   0.000  -2.510  -0.000   0.000
   24    2   10   11        3       0.628   1.883   0.000  -2.510  -0.000   0.000
   28   11   10    2        3       0.628   1.883   0.000  -2.510  -0.000   0.000
   39   17   16   15        3       0.628   1.883   0.000  -2.510  -0.000   0.000
   37   17   16   10        3       0.628   1.883   0.000  -2.510  -0.000   0.000
   30   12   11   10        3       0.628   1.883   0.000  -2.510  -0.000   0.000
   38   17   16   15        3       0.628   1.883   0.000  -2.510  -0.000   0.000
   31   12   11   10        3       0.628   1.883   0.000  -2.510  -0.000   0.000
   28   11   10   16        3       0.628   1.883   0.000  -2.510  -0.000   0.000
   24    2    1   22        3       0.628   1.883   0.000  -2.510  -0.000   0.000
   24    2    1   23        3       0.628   1.883   0.000  -2.510  -0.000   0.000
   24    2    1   21        3       0.628   1.883   0.000  -2.510  -0.000   0.000
   30   12   11   28        3       0.628   1.883   0.000  -2.510  -0.000   0.000
   31   12   11   28        3       0.628   1.883   0.000  -2.510  -0.000   0.000
   29   12   11   28        3       0.628   1.883   0.000  -2.510  -0.000   0.000
   27   10    2   24        3       0.628   1.883   0.000  -2.510  -0.000   0.000
   28   11   10   27        3       0.628   1.883   0.000  -2.510  -0.000   0.000
   39   17   16   18        3      -4.096   5.088   2.966  -3.958  -0.000   0.000
   38   17   16   18        3      -4.096   5.088   2.966  -3.958  -0.000   0.000
   27   10   11   13        3      -4.096   5.088   2.966  -3.958  -0.000   0.000
   31   12   11   13        3      -4.096   5.088   2.966  -3.958  -0.000   0.000
   36   15   16   18        3      -4.096   5.088   2.966  -3.958  -0.000   0.000
   29   12   11   13        3      -4.096   5.088   2.966  -3.958  -0.000   0.000
   27   10   16   18        3      -4.096   5.088   2.966  -3.958  -0.000   0.000
   30   12   11   13        3      -4.096   5.088   2.966  -3.958  -0.000   0.000
   37   17   16   18        3      -4.096   5.088   2.966  -3.958  -0.000   0.000
   35   15   16   18        3      -4.096   5.088   2.966  -3.958  -0.000   0.000
   22    1    2    3        3       0.979   2.937   0.000  -3.916  -0.000   0.000
   23    1    2    3        3       0.979   2.937   0.000  -3.916  -0.000   0.000
   27   10    2    3        3       0.979   2.937   0.000  -3.916  -0.000   0.000
   21    1    2    3        3       0.979   2.937   0.000  -3.916  -0.000   0.000
   25    7    8    9        3       0.000   0.000   0.000  -0.000  -0.000   0.000
   26    7    8    9        3       0.000   0.000   0.000  -0.000  -0.000   0.000
   42   19   18   16        3       1.172   3.515   0.000  -4.686  -0.000   0.000
   28   11   13   14        3       1.172   3.515   0.000  -4.686  -0.000   0.000
   45   20   18   16        3       1.172   3.515   0.000  -4.686  -0.000   0.000
   32   14   13   11        3       1.172   3.515   0.000  -4.686  -0.000   0.000
   32   14   13   15        3       1.172   3.515   0.000  -4.686  -0.000   0.000
   28   11   13   15        3       1.172   3.515   0.000  -4.686  -0.000   0.000
   43   20   18   19        3       1.172   3.515   0.000  -4.686  -0.000   0.000
   36   15   13   14        3       1.172   3.515   0.000  -4.686  -0.000   0.000
   41   19   18   20        3       1.172   3.515   0.000  -4.686  -0.000   0.000
   34   14   13   15        3       1.172   3.515   0.000  -4.686  -0.000   0.000
   33   14   13   11        3       1.172   3.515   0.000  -4.686  -0.000   0.000
   34   14   13   11        3       1.172   3.515   0.000  -4.686  -0.000   0.000
   44   20   18   19        3       1.172   3.515   0.000  -4.686  -0.000   0.000
   35   15   13   11        3       1.172   3.515   0.000  -4.686  -0.000   0.000
   40   19   18   20        3       1.172   3.515   0.000  -4.686  -0.000   0.000
   33   14   13   15        3       1.172   3.515   0.000  -4.686  -0.000   0.000
   43   20   18   16        3       1.172   3.515   0.000  -4.686  -0.000   0.000
   35   15   13   14        3       1.172   3.515   0.000  -4.686  -0.000   0.000
   42   19   18   20        3       1.172   3.515   0.000  -4.686  -0.000   0.000
   44   20   18   16        3       1.172   3.515   0.000  -4.686  -0.000   0.000
   40   19   18   16        3       1.172   3.515   0.000  -4.686  -0.000   0.000
   41   19   18   16        3       1.172   3.515   0.000  -4.686  -0.000   0.000
   45   20   18   19        3       1.172   3.515   0.000  -4.686  -0.000   0.000
   36   15   13   11        3       1.172   3.515   0.000  -4.686  -0.000   0.000
   24    2    3    4        3       0.414   1.243   0.000  -1.657  -0.000   0.000
   25    7    6    4        3       0.414   1.243   0.000  -1.657  -0.000   0.000
   26    7    6    4        3       0.414   1.243   0.000  -1.657  -0.000   0.000
   18   16   10   11        3       3.335  -1.552   2.820  -4.602  -0.000   0.000
   18   16   10    2        3       3.335  -1.552   2.820  -4.602  -0.000   0.000
   13   11   10    2        3       3.335  -1.552   2.820  -4.602  -0.000   0.000
   13   15   16   10        3       3.335  -1.552   2.820  -4.602  -0.000   0.000
   18   16   15   13        3      19.600  -21.391   4.050  -2.259  -0.000   0.000
    9    8    7    6        3       0.000   0.000   0.000  -0.000  -0.000   0.000
    5    4    3    2        3      21.439   0.000  -21.439  -0.000  -0.000   0.000
    6    4    3    2        3      31.206  -9.768  -21.439  -0.000  -0.000   0.000

[ pairs ]
     1     4    1
     2     5    1
     2     6    1
     3     7    1
     5     7    1
     4     8    1
     1    11    1
     4    10    1
     3    11    1
     2    12    1
     6     9    1
     2    13    1
     2    15    1
     1    16    1
     3    16    1
     2    17    1
     2    18    1
    10    14    1
     3    21    1
     3    22    1
    12    14    1
     3    23    1
    12    15    1
    12    16    1
    11    17    1
     4    24    1
     1    27    1
    11    18    1
    10    19    1
     4    25    1
    14    16    1
    13    17    1
    10    20    1
     4    26    1
     3    27    1
     2    28    1
    13    18    1
    10    21    1
    10    22    1
    10    23    1
    15    19    1
     9    25    1
    15    20    1
    11    24    1
     9    26    1
    17    19    1
    17    20    1
    12    27    1
    10    29    1
    16    24    1
    13    27    1
    10    30    1
    10    31    1
    15    27    1
    14    28    1
    13    29    1
    15    28    1
    13    30    1
    11    32    1
    17    27    1
    16    28    1
    13    31    1
    11    33    1
    21    24    1
    18    27    1
    11    34    1
    10    35    1
    22    24    1
    11    35    1
    10    36    1
    23    24    1
    15    32    1
    11    36    1
    10    37    1
    15    33    1
    10    38    1
    15    34    1
    14    35    1
    10    39    1
    14    36    1
    24    27    1
    17    35    1
    15    37    1
    18    35    1
    17    36    1
    15    38    1
    18    36    1
    15    39    1
    27    28    1
    18    37    1
    18    38    1
    16    40    1
    28    29    1
    18    39    1
    16    41    1
    28    30    1
    16    42    1
    28    31    1
    16    43    1
    20    40    1
    16    44    1
    20    41    1
    16    45    1
    20    42    1
    19    43    1
    19    44    1
    19    45    1

