LIGPARGEN GENERATED GRO FILE
   45
    1UNK    C00    1   0.100   0.100   0.000
    1UNK    C01    2  -0.054   0.100   0.000
    1UNK    O02    3  -0.095   0.100   0.138
    1UNK    C03    4  -0.095  -0.016   0.207
    1UNK    O04    5  -0.062  -0.125   0.166
    1UNK    O05    6  -0.138   0.014   0.332
    1UNK    C06    7  -0.145  -0.098   0.422
    1UNK    C07    8  -0.268  -0.176   0.402
    1UNK    N08    9  -0.365  -0.237   0.387
    1UNK    C09   10  -0.110   0.228  -0.069
    1UNK    C0A   11  -0.073   0.237  -0.220
    1UNK    C0B   12  -0.096   0.111  -0.305
    1UNK    N0C   13  -0.160   0.342  -0.274
    1UNK    C0D   14  -0.103   0.475  -0.255
    1UNK    C0E   15  -0.288   0.328  -0.202
    1UNK    C0F   16  -0.264   0.260  -0.061
    1UNK    C0G   17  -0.350   0.132  -0.053
    1UNK    N0H   18  -0.302   0.359   0.046
    1UNK    C0I   19  -0.444   0.398   0.045
    1UNK    C0J   20  -0.267   0.321   0.183
    1UNK    H0K   21   0.139   0.007   0.044
    1UNK    H0M   22   0.139   0.181   0.062
    1UNK    H0N   23   0.142   0.109  -0.100
    1UNK    H0O   24  -0.091   0.010  -0.050
    1UNK    H0P   25  -0.144  -0.056   0.523
    1UNK    H0Q   26  -0.055  -0.161   0.413
    1UNK    H0R   27  -0.059   0.312  -0.021
    1UNK    H0S   28   0.032   0.264  -0.232
    1UNK    H0T   29  -0.197   0.069  -0.294
    1UNK    H0U   30  -0.024   0.033  -0.280
    1UNK    H0V   31  -0.083   0.134  -0.412
    1UNK    H0W   32  -0.008   0.483  -0.309
    1UNK    H0X   33  -0.085   0.500  -0.150
    1UNK    H0Y   34  -0.170   0.551  -0.298
    1UNK    H0Z   35  -0.355   0.266  -0.263
    1UNK    H10   36  -0.338   0.425  -0.197
    1UNK    H11   37  -0.314   0.054  -0.121
    1UNK    H12   38  -0.454   0.151  -0.081
    1UNK    H13   39  -0.350   0.088   0.047
    1UNK    H14   40  -0.476   0.440  -0.050
    1UNK    H15   41  -0.461   0.478   0.119
    1UNK    H16   42  -0.511   0.315   0.070
    1UNK    H17   43  -0.159   0.313   0.196
    1UNK    H18   44  -0.316   0.229   0.215
    1UNK    H19   45  -0.297   0.399   0.253
   1.00000   1.00000   1.00000

