LIGPARGEN GENERATED GRO FILE
   42
    1UNK    C00    1   0.100   0.100   0.000
    1UNK    C01    2  -0.054   0.100   0.000
    1UNK    C02    3  -0.099   0.100   0.147
    1UNK    C03    4  -0.248   0.106   0.185
    1UNK    C04    5  -0.327  -0.021   0.154
    1UNK    C05    6  -0.314   0.239   0.142
    1UNK    C06    7  -0.424   0.281   0.243
    1UNK    C07    8  -0.369   0.305   0.382
    1UNK    O08    9  -0.413   0.249   0.482
    1UNK    C09   10  -0.364   0.250  -0.007
    1UNK    C0A   11  -0.513   0.210  -0.027
    1UNK    C0B   12  -0.564   0.238  -0.163
    1UNK    N0C   13  -0.603   0.255  -0.270
    1UNK    C0D   14  -0.266   0.199  -0.119
    1UNK    C0E   15  -0.295   0.062  -0.185
    1UNK    C0F   16  -0.114   0.217  -0.085
    1UNK    C0G   17  -0.035   0.239  -0.216
    1UNK    H0H   18   0.139   0.022   0.066
    1UNK    H0I   19   0.140   0.196   0.034
    1UNK    H0J   20   0.140   0.079  -0.100
    1UNK    H0K   21  -0.082   0.004  -0.044
    1UNK    H0M   22  -0.049   0.185   0.197
    1UNK    H0N   23  -0.056   0.010   0.195
    1UNK    H0O   24  -0.243   0.107   0.294
    1UNK    H0P   25  -0.357  -0.029   0.051
    1UNK    H0Q   26  -0.418  -0.024   0.214
    1UNK    H0R   27  -0.268  -0.110   0.179
    1UNK    H0S   28  -0.236   0.316   0.153
    1UNK    H0T   29  -0.503   0.205   0.250
    1UNK    H0U   30  -0.469   0.376   0.213
    1UNK    H0V   31  -0.285   0.377   0.389
    1UNK    H0W   32  -0.365   0.359  -0.023
    1UNK    H0X   33  -0.576   0.269   0.040
    1UNK    H0Y   34  -0.529   0.105  -0.002
    1UNK    H0Z   35  -0.285   0.270  -0.201
    1UNK    H10   36  -0.263  -0.023  -0.125
    1UNK    H11   37  -0.242   0.055  -0.280
    1UNK    H12   38  -0.401   0.047  -0.207
    1UNK    H13   39  -0.102   0.310  -0.028
    1UNK    H14   40  -0.030   0.148  -0.276
    1UNK    H15   41   0.067   0.273  -0.196
    1UNK    H16   42  -0.082   0.317  -0.277
   1.00000   1.00000   1.00000

