LIGPARGEN GENERATED GRO FILE
   25
    1UNK    C00    1   0.100   0.100   0.000
    1UNK    C01    2  -0.053   0.100   0.000
    1UNK    C02    3  -0.117   0.100   0.141
    1UNK    C03    4  -0.075   0.223   0.214
    1UNK    N04    5  -0.047   0.321   0.270
    1UNK    C05    6  -0.271   0.100   0.124
    1UNK    C06    7  -0.350   0.082   0.253
    1UNK    C07    8  -0.333  -0.057   0.314
    1UNK    C08    9  -0.208  -0.072   0.400
    1UNK    C09   10  -0.078  -0.027   0.338
    1UNK    O0A   11   0.024  -0.009   0.404
    1UNK    O0B   12  -0.077  -0.024   0.204
    1UNK    H0C   13   0.137   0.093  -0.103
    1UNK    H0D   14   0.140   0.015   0.056
    1UNK    H0E   15   0.140   0.192   0.043
    1UNK    H0F   16  -0.085   0.010  -0.054
    1UNK    H0G   17  -0.088   0.186  -0.058
    1UNK    H0H   18  -0.299   0.018   0.056
    1UNK    H0I   19  -0.303   0.193   0.076
    1UNK    H0J   20  -0.456   0.095   0.228
    1UNK    H0K   21  -0.326   0.160   0.326
    1UNK    H0M   22  -0.335  -0.133   0.235
    1UNK    H0N   23  -0.420  -0.078   0.378
    1UNK    H0O   24  -0.196  -0.178   0.426
    1UNK    H0P   25  -0.221  -0.015   0.492
   1.00000   1.00000   1.00000

