LIGPARGEN GENERATED GRO FILE
   29
    1UNK    C00    1   0.100   0.100   0.000
    1UNK    C01    2  -0.052   0.100   0.000
    1UNK    O02    3  -0.103   0.100   0.134
    1UNK    C03    4  -0.108  -0.020   0.199
    1UNK    O04    5  -0.066  -0.126   0.157
    1UNK    C05    6  -0.179   0.001   0.330
    1UNK    C06    7  -0.135  -0.092   0.443
    1UNK    P07    8  -0.222  -0.051   0.595
    1UNK    C08    9  -0.168   0.114   0.641
    1UNK    O09   10  -0.371  -0.059   0.579
    1UNK    C0A   11  -0.161  -0.153   0.729
    1UNK    C0B   12  -0.180  -0.302   0.711
    1UNK    H0C   13   0.138   0.108  -0.102
    1UNK    H0D   14   0.139   0.008   0.045
    1UNK    H0E   15   0.139   0.184   0.059
    1UNK    H0F   16  -0.093   0.016  -0.057
    1UNK    H0G   17  -0.088   0.192  -0.047
    1UNK    H0H   18  -0.286  -0.009   0.312
    1UNK    H0I   19  -0.160   0.104   0.362
    1UNK    H0J   20  -0.027  -0.085   0.459
    1UNK    H0K   21  -0.157  -0.196   0.416
    1UNK    H0M   22  -0.188   0.186   0.561
    1UNK    H0N   23  -0.061   0.115   0.662
    1UNK    H0O   24  -0.221   0.147   0.730
    1UNK    H0P   25  -0.214  -0.121   0.819
    1UNK    H0Q   26  -0.055  -0.132   0.746
    1UNK    H0R   27  -0.280  -0.324   0.673
    1UNK    H0S   28  -0.167  -0.353   0.807
    1UNK    H0T   29  -0.107  -0.342   0.641
   1.00000   1.00000   1.00000

