
;
; GENERATED BY LigParGen Server
; Jorgensen Lab @ Yale University 
;
[ atomtypes ]
  opls_818  H818     1.0080     0.000    A    2.50000E-01   1.25520E-01
  opls_824  H824     1.0080     0.000    A    2.50000E-01   1.25520E-01
  opls_805  O805    15.9990     0.000    A    2.96000E-01   7.11280E-01
  opls_802  N802    14.0070     0.000    A    3.25000E-01   7.11280E-01
  opls_804  S804    32.0600     0.000    A    3.55000E-01   1.04600E+00
  opls_813  H813     1.0080     0.000    A    2.50000E-01   1.25520E-01
  opls_815  H815     1.0080     0.000    A    2.50000E-01   1.25520E-01
  opls_809  C809    12.0110     0.000    A    3.50000E-01   2.76144E-01
  opls_822  H822     1.0080     0.000    A    2.50000E-01   1.25520E-01
  opls_807  C807    12.0110     0.000    A    3.50000E-01   2.76144E-01
  opls_825  H825     1.0080     0.000    A    2.50000E-01   1.25520E-01
  opls_814  H814     1.0080     0.000    A    2.50000E-01   1.25520E-01
  opls_821  H821     1.0080     0.000    A    2.50000E-01   1.25520E-01
  opls_820  H820     1.0080     0.000    A    2.50000E-01   1.25520E-01
  opls_811  H811     1.0080     0.000    A    2.50000E-01   1.25520E-01
  opls_816  H816     1.0080     0.000    A    2.50000E-01   1.25520E-01
  opls_800  C800    12.0110     0.000    A    3.50000E-01   2.76144E-01
  opls_823  H823     1.0080     0.000    A    2.50000E-01   1.25520E-01
  opls_826  H826     1.0080     0.000    A    2.50000E-01   1.25520E-01
  opls_819  H819     1.0080     0.000    A    2.50000E-01   1.25520E-01
  opls_810  C810    12.0110     0.000    A    3.50000E-01   2.76144E-01
  opls_827  H827     1.0080     0.000    A    2.50000E-01   1.25520E-01
  opls_801  C801    12.0110     0.000    A    3.50000E-01   2.76144E-01
  opls_808  C808    12.0110     0.000    A    3.50000E-01   2.76144E-01
  opls_817  H817     1.0080     0.000    A    2.50000E-01   1.25520E-01
  opls_806  O806    15.9990     0.000    A    2.96000E-01   7.11280E-01
  opls_812  H812     1.0080     0.000    A    2.50000E-01   1.25520E-01
  opls_803  C803    12.0110     0.000    A    3.50000E-01   2.76144E-01
[ moleculetype ]
; Name               nrexcl
UNK                   3
[ atoms ]
;   nr       type  resnr residue  atom   cgnr     charge       mass  
     1   opls_800      1    UNK   C00      1    -0.2348    12.0110 
     2   opls_801      1    UNK   C01      1     0.2354    12.0110 
     3   opls_802      1    UNK   N02      1    -1.3366    14.0070 
     4   opls_803      1    UNK   C03      1     0.1606    12.0110 
     5   opls_804      1    UNK   S04      1     1.5007    32.0600 
     6   opls_805      1    UNK   O05      1    -0.5591    15.9990 
     7   opls_806      1    UNK   O06      1    -0.5591    15.9990 
     8   opls_807      1    UNK   C07      1    -0.4722    12.0110 
     9   opls_808      1    UNK   C08      1    -0.0792    12.0110 
    10   opls_809      1    UNK   C09      1    -0.2554    12.0110 
    11   opls_810      1    UNK   C0A      1    -0.2274    12.0110 
    12   opls_811      1    UNK   H0B      1     0.0956     1.0080 
    13   opls_812      1    UNK   H0C      1     0.0956     1.0080 
    14   opls_813      1    UNK   H0D      1     0.0956     1.0080 
    15   opls_814      1    UNK   H0E      1      0.105     1.0080 
    16   opls_815      1    UNK   H0F      1      0.105     1.0080 
    17   opls_816      1    UNK   H0G      1     0.1141     1.0080 
    18   opls_817      1    UNK   H0H      1     0.1141     1.0080 
    19   opls_818      1    UNK   H0I      1     0.1141     1.0080 
    20   opls_819      1    UNK   H0J      1     0.1607     1.0080 
    21   opls_820      1    UNK   H0K      1     0.1607     1.0080 
    22   opls_821      1    UNK   H0M      1     0.1183     1.0080 
    23   opls_822      1    UNK   H0N      1     0.0967     1.0080 
    24   opls_823      1    UNK   H0O      1     0.0967     1.0080 
    25   opls_824      1    UNK   H0P      1     0.0967     1.0080 
    26   opls_825      1    UNK   H0Q      1     0.0861     1.0080 
    27   opls_826      1    UNK   H0R      1     0.0861     1.0080 
    28   opls_827      1    UNK   H0S      1     0.0861     1.0080 
[ bonds ]
    2     1     1      0.1529 224262.400
    3     2     1      0.1449 282001.600
    4     3     1      0.1449 282001.600
    5     3     1      0.1670 363171.200
    6     5     1      0.1440 585760.000
    7     5     1      0.1440 585760.000
    8     5     1      0.1770 284512.000
    9     8     1      0.1529 224262.400
   10     9     1      0.1529 224262.400
   11     9     1      0.1529 224262.400
   12     1     1      0.1090 284512.000
   13     1     1      0.1090 284512.000
   14     1     1      0.1090 284512.000
   15     2     1      0.1090 284512.000
   16     2     1      0.1090 284512.000
   17     4     1      0.1090 284512.000
   18     4     1      0.1090 284512.000
   19     4     1      0.1090 284512.000
   20     8     1      0.1090 284512.000
   21     8     1      0.1090 284512.000
   22     9     1      0.1090 284512.000
   23    10     1      0.1090 284512.000
   24    10     1      0.1090 284512.000
   25    10     1      0.1090 284512.000
   26    11     1      0.1090 284512.000
   27    11     1      0.1090 284512.000
   28    11     1      0.1090 284512.000

[ angles ]
;  ai    aj    ak funct            c0            c1            c2            c3 
    1     2     3     1    109.700    669.440
    2     3     4     1    118.000    418.400
    2     3     5     1    120.000    418.400
    3     5     6     1    107.000   1004.160
    3     5     7     1    107.000   1004.160
    3     5     8     1    103.000    836.800
    5     8     9     1    108.600    418.400
    8     9    10     1    112.700    488.273
    8     9    11     1    112.700    488.273
    2     1    12     1    110.700    313.800
    2     1    13     1    110.700    313.800
    2     1    14     1    110.700    313.800
    1     2    15     1    110.700    313.800
    1     2    16     1    110.700    313.800
    3     4    17     1    109.500    292.880
    3     4    18     1    109.500    292.880
    3     4    19     1    109.500    292.880
    5     8    20     1    109.500    292.880
    5     8    21     1    109.500    292.880
    8     9    22     1    110.700    313.800
    9    10    23     1    110.700    313.800
    9    10    24     1    110.700    313.800
    9    10    25     1    110.700    313.800
    9    11    26     1    110.700    313.800
    9    11    27     1    110.700    313.800
    9    11    28     1    110.700    313.800
   17     4    19     1    107.800    276.144
   13     1    14     1    107.800    276.144
   15     2    16     1    107.800    276.144
    3     2    15     1    109.500    292.880
    9     8    20     1    110.700    313.800
   11     9    22     1    110.700    313.800
   24    10    25     1    107.800    276.144
   27    11    28     1    107.800    276.144
   26    11    28     1    107.800    276.144
   17     4    18     1    107.800    276.144
    3     2    16     1    109.500    292.880
   12     1    14     1    107.800    276.144
   23    10    25     1    107.800    276.144
    4     3     5     1    120.000    418.400
    6     5     7     1    119.000    870.272
   12     1    13     1    107.800    276.144
    6     5     8     1    108.900    619.232
   23    10    24     1    107.800    276.144
   10     9    22     1    110.700    313.800
   10     9    11     1    112.700    488.273
    7     5     8     1    108.900    619.232
   20     8    21     1    107.800    276.144
   26    11    27     1    107.800    276.144
    9     8    21     1    110.700    313.800
   18     4    19     1    107.800    276.144

[ dihedrals ]
; IMPROPER DIHEDRAL ANGLES 
;  ai    aj    ak    al funct            c0            c1            c2            c3            c4            c5
     5     3     2     4    4        180.000     10.460     2  

[ dihedrals ]
; PROPER DIHEDRAL ANGLES
;  ai    aj    ak    al funct            c0            c1            c2            c3            c4            c5
   11    9    8    5        3       2.784   0.278   0.828  -3.891  -0.000   0.000
   10    9    8    5        3       2.784   0.278   0.828  -3.891  -0.000   0.000
    9    8    5    3        3       0.000   0.000   0.000  -0.000  -0.000   0.000
    9    8    5    7        3       0.000   0.000   0.000  -0.000  -0.000   0.000
    9    8    5    6        3       0.000   0.000   0.000  -0.000  -0.000   0.000
    4    3    2    1        3       6.872  -9.943   3.071  -0.000  -0.000   0.000
    8    5    3    2        3      -2.897  11.182  12.410  -20.694  -0.000   0.000
    8    5    3    4        3      -2.897  11.182  12.410  -20.694  -0.000   0.000
   28   11    9   10        3       0.628   1.883   0.000  -2.510  -0.000   0.000
   24   10    9   11        3       0.628   1.883   0.000  -2.510  -0.000   0.000
   26   11    9    8        3       0.628   1.883   0.000  -2.510  -0.000   0.000
   27   11    9    8        3       0.628   1.883   0.000  -2.510  -0.000   0.000
   20    8    9   10        3       0.628   1.883   0.000  -2.510  -0.000   0.000
   23   10    9    8        3       0.628   1.883   0.000  -2.510  -0.000   0.000
   25   10    9   11        3       0.628   1.883   0.000  -2.510  -0.000   0.000
   23   10    9   11        3       0.628   1.883   0.000  -2.510  -0.000   0.000
   21    8    9   11        3       0.628   1.883   0.000  -2.510  -0.000   0.000
   24   10    9    8        3       0.628   1.883   0.000  -2.510  -0.000   0.000
   20    8    9   11        3       0.628   1.883   0.000  -2.510  -0.000   0.000
   26   11    9   10        3       0.628   1.883   0.000  -2.510  -0.000   0.000
   25   10    9    8        3       0.628   1.883   0.000  -2.510  -0.000   0.000
   21    8    9   10        3       0.628   1.883   0.000  -2.510  -0.000   0.000
   28   11    9    8        3       0.628   1.883   0.000  -2.510  -0.000   0.000
   27   11    9   10        3       0.628   1.883   0.000  -2.510  -0.000   0.000
   16    2    1   14        3       0.628   1.883   0.000  -2.510  -0.000   0.000
   15    2    1   13        3       0.628   1.883   0.000  -2.510  -0.000   0.000
   16    2    1   12        3       0.628   1.883   0.000  -2.510  -0.000   0.000
   15    2    1   12        3       0.628   1.883   0.000  -2.510  -0.000   0.000
   16    2    1   13        3       0.628   1.883   0.000  -2.510  -0.000   0.000
   15    2    1   14        3       0.628   1.883   0.000  -2.510  -0.000   0.000
   23   10    9   22        3       0.628   1.883   0.000  -2.510  -0.000   0.000
   25   10    9   22        3       0.628   1.883   0.000  -2.510  -0.000   0.000
   26   11    9   22        3       0.628   1.883   0.000  -2.510  -0.000   0.000
   22    9    8   21        3       0.628   1.883   0.000  -2.510  -0.000   0.000
   24   10    9   22        3       0.628   1.883   0.000  -2.510  -0.000   0.000
   22    9    8   20        3       0.628   1.883   0.000  -2.510  -0.000   0.000
   28   11    9   22        3       0.628   1.883   0.000  -2.510  -0.000   0.000
   27   11    9   22        3       0.628   1.883   0.000  -2.510  -0.000   0.000
   14    1    2    3        3       0.971   2.912   0.000  -3.883  -0.000   0.000
   12    1    2    3        3       0.971   2.912   0.000  -3.883  -0.000   0.000
   13    1    2    3        3       0.971   2.912   0.000  -3.883  -0.000   0.000
   22    9    8    5        3       0.946   2.837   0.000  -3.782  -0.000   0.000
   16    2    3    4        3       0.000   0.000   0.000  -0.000  -0.000   0.000
   19    4    3    2        3       0.000   0.000   0.000  -0.000  -0.000   0.000
   17    4    3    2        3       0.000   0.000   0.000  -0.000  -0.000   0.000
   18    4    3    2        3       0.000   0.000   0.000  -0.000  -0.000   0.000
   15    2    3    4        3       0.000   0.000   0.000  -0.000  -0.000   0.000
   18    4    3    5        3      -2.935  -1.914   6.096  -1.247  -0.000   0.000
   16    2    3    5        3      -2.935  -1.914   6.096  -1.247  -0.000   0.000
   19    4    3    5        3      -2.935  -1.914   6.096  -1.247  -0.000   0.000
   15    2    3    5        3      -2.935  -1.914   6.096  -1.247  -0.000   0.000
   17    4    3    5        3      -2.935  -1.914   6.096  -1.247  -0.000   0.000
   21    8    5    3        3       0.000   0.000   0.000  -0.000  -0.000   0.000
   20    8    5    3        3       0.000   0.000   0.000  -0.000  -0.000   0.000
   20    8    5    6        3       0.732   2.197   0.000  -2.929  -0.000   0.000
   21    8    5    7        3       0.732   2.197   0.000  -2.929  -0.000   0.000
   20    8    5    7        3       0.732   2.197   0.000  -2.929  -0.000   0.000
   21    8    5    6        3       0.732   2.197   0.000  -2.929  -0.000   0.000
    6    5    3    4        3       0.000   0.000   0.000  -0.000  -0.000   0.000
    7    5    3    2        3       0.000   0.000   0.000  -0.000  -0.000   0.000
    6    5    3    2        3       0.000   0.000   0.000  -0.000  -0.000   0.000
    7    5    3    4        3       0.000   0.000   0.000  -0.000  -0.000   0.000
    5    3    2    1        3      -3.431  -3.008  10.598  -4.159  -0.000   0.000

[ pairs ]
     1     4    1
     1     5    1
     2     6    1
     2     7    1
     4     6    1
     2     8    1
     4     7    1
     4     8    1
     3     9    1
     6     9    1
     5    10    1
     3    12    1
     7     9    1
     5    11    1
     3    13    1
     3    14    1
     4    15    1
     2    17    1
     5    15    1
     4    16    1
     2    18    1
     5    16    1
     2    19    1
     5    17    1
     5    18    1
     3    20    1
     5    19    1
     3    21    1
     6    20    1
    12    15    1
     7    20    1
     6    21    1
     5    22    1
    13    15    1
    12    16    1
     7    21    1
    14    15    1
    13    16    1
    14    16    1
    10    20    1
    11    20    1
    10    21    1
     8    23    1
    11    21    1
     8    24    1
     8    25    1
    11    23    1
     8    26    1
    11    24    1
     8    27    1
    11    25    1
    10    26    1
     8    28    1
    10    27    1
    10    28    1
    20    22    1
    21    22    1
    22    23    1
    22    24    1
    22    25    1
    22    26    1
    22    27    1
    22    28    1

