LIGPARGEN GENERATED GRO FILE
   34
    1UNK    C00    1   0.100   0.100   0.000
    1UNK    C01    2  -0.052   0.100   0.000
    1UNK    C02    3  -0.108   0.100   0.143
    1UNK    C03    4  -0.264   0.106   0.148
    1UNK    C04    5  -0.324  -0.021   0.086
    1UNK    C05    6  -0.475  -0.038   0.094
    1UNK    S06    7  -0.536  -0.080   0.255
    1UNK    O07    8  -0.436  -0.161   0.322
    1UNK    O08    9  -0.671  -0.132   0.236
    1UNK    C09   10  -0.553   0.073   0.343
    1UNK    C0A   11  -0.448   0.183   0.319
    1UNK    C0B   12  -0.493   0.291   0.218
    1UNK    C0C   13  -0.612   0.365   0.262
    1UNK    N0D   14  -0.706   0.422   0.297
    1UNK    C0E   15  -0.306   0.133   0.294
    1UNK    H0F   16   0.138   0.100  -0.103
    1UNK    H0G   17   0.139   0.011   0.050
    1UNK    H0H   18   0.140   0.189   0.051
    1UNK    H0I   19  -0.086   0.012  -0.055
    1UNK    H0J   20  -0.088   0.189  -0.054
    1UNK    H0K   21  -0.067   0.187   0.195
    1UNK    H0M   22  -0.073   0.011   0.196
    1UNK    H0N   23  -0.293   0.192   0.086
    1UNK    H0O   24  -0.275  -0.109   0.128
    1UNK    H0P   25  -0.300  -0.021  -0.021
    1UNK    H0Q   26  -0.503  -0.122   0.030
    1UNK    H0R   27  -0.530   0.049   0.056
    1UNK    H0S   28  -0.550   0.044   0.449
    1UNK    H0T   29  -0.654   0.109   0.324
    1UNK    H0U   30  -0.444   0.236   0.416
    1UNK    H0V   31  -0.513   0.248   0.120
    1UNK    H0W   32  -0.412   0.363   0.205
    1UNK    H0X   33  -0.284   0.046   0.357
    1UNK    H0Y   34  -0.240   0.213   0.333
   1.00000   1.00000   1.00000

