
;
; GENERATED BY LigParGen Server
; Jorgensen Lab @ Yale University 
;
[ atomtypes ]
  opls_818  H818     1.0080     0.000    A    2.50000E-01   1.25520E-01
  opls_806  S806    32.0600     0.000    A    3.55000E-01   1.04600E+00
  opls_814  C814    12.0110     0.000    A    3.50000E-01   2.76144E-01
  opls_824  H824     1.0080     0.000    A    2.50000E-01   1.25520E-01
  opls_805  C805    12.0110     0.000    A    3.50000E-01   2.76144E-01
  opls_833  H833     1.0080     0.000    A    2.50000E-01   1.25520E-01
  opls_808  O808    15.9990     0.000    A    2.96000E-01   7.11280E-01
  opls_807  O807    15.9990     0.000    A    2.96000E-01   7.11280E-01
  opls_828  H828     1.0080     0.000    A    2.50000E-01   1.25520E-01
  opls_832  H832     1.0080     0.000    A    2.50000E-01   1.25520E-01
  opls_802  C802    12.0110     0.000    A    3.50000E-01   2.76144E-01
  opls_815  H815     1.0080     0.000    A    2.50000E-01   1.25520E-01
  opls_801  C801    12.0110     0.000    A    3.50000E-01   2.76144E-01
  opls_822  H822     1.0080     0.000    A    2.50000E-01   1.25520E-01
  opls_803  C803    12.0110     0.000    A    3.50000E-01   2.76144E-01
  opls_813  N813    14.0070     0.000    A    3.20000E-01   7.11280E-01
  opls_825  H825     1.0080     0.000    A    2.50000E-01   1.25520E-01
  opls_830  H830     1.0080     0.000    A    2.50000E-01   1.25520E-01
  opls_810  C810    12.0110     0.000    A    3.50000E-01   2.76144E-01
  opls_820  H820     1.0080     0.000    A    2.50000E-01   1.25520E-01
  opls_821  H821     1.0080     0.000    A    2.50000E-01   1.25520E-01
  opls_831  H831     1.0080     0.000    A    2.50000E-01   1.25520E-01
  opls_816  H816     1.0080     0.000    A    2.50000E-01   1.25520E-01
  opls_800  C800    12.0110     0.000    A    3.50000E-01   2.76144E-01
  opls_811  C811    12.0110     0.000    A    3.50000E-01   2.76144E-01
  opls_823  H823     1.0080     0.000    A    2.50000E-01   1.25520E-01
  opls_826  H826     1.0080     0.000    A    2.50000E-01   1.25520E-01
  opls_819  H819     1.0080     0.000    A    2.50000E-01   1.25520E-01
  opls_804  C804    12.0110     0.000    A    3.50000E-01   2.76144E-01
  opls_827  H827     1.0080     0.000    A    2.50000E-01   1.25520E-01
  opls_809  C809    12.0110     0.000    A    3.50000E-01   2.76144E-01
  opls_817  H817     1.0080     0.000    A    2.50000E-01   1.25520E-01
  opls_829  H829     1.0080     0.000    A    2.50000E-01   1.25520E-01
  opls_812  C812    12.0110     0.000    A    3.30000E-01   2.76144E-01
[ moleculetype ]
; Name               nrexcl
UNK                   3
[ atoms ]
;   nr       type  resnr residue  atom   cgnr     charge       mass  
     1   opls_800      1    UNK   C00      1    -0.2401    12.0110 
     2   opls_801      1    UNK   C01      1    -0.1801    12.0110 
     3   opls_802      1    UNK   C02      1    -0.1765    12.0110 
     4   opls_803      1    UNK   C03      1    -0.1132    12.0110 
     5   opls_804      1    UNK   C04      1    -0.1426    12.0110 
     6   opls_805      1    UNK   C05      1    -0.5037    12.0110 
     7   opls_806      1    UNK   S06      1     1.3042    32.0600 
     8   opls_807      1    UNK   O07      1    -0.5654    15.9990 
     9   opls_808      1    UNK   O08      1    -0.5654    15.9990 
    10   opls_809      1    UNK   C09      1    -0.5191    12.0110 
    11   opls_810      1    UNK   C0A      1     -0.064    12.0110 
    12   opls_811      1    UNK   C0B      1    -0.0695    12.0110 
    13   opls_812      1    UNK   C0C      1     0.1459    12.0110 
    14   opls_813      1    UNK   N0D      1    -0.3696    14.0070 
    15   opls_814      1    UNK   C0E      1    -0.1988    12.0110 
    16   opls_815      1    UNK   H0F      1     0.0845     1.0080 
    17   opls_816      1    UNK   H0G      1     0.0845     1.0080 
    18   opls_817      1    UNK   H0H      1     0.0845     1.0080 
    19   opls_818      1    UNK   H0I      1     0.0893     1.0080 
    20   opls_819      1    UNK   H0J      1     0.0893     1.0080 
    21   opls_820      1    UNK   H0K      1     0.0972     1.0080 
    22   opls_821      1    UNK   H0M      1     0.0972     1.0080 
    23   opls_822      1    UNK   H0N      1     0.0953     1.0080 
    24   opls_823      1    UNK   H0O      1     0.1175     1.0080 
    25   opls_824      1    UNK   H0P      1     0.1175     1.0080 
    26   opls_825      1    UNK   H0Q      1     0.1648     1.0080 
    27   opls_826      1    UNK   H0R      1     0.1648     1.0080 
    28   opls_827      1    UNK   H0S      1     0.1768     1.0080 
    29   opls_828      1    UNK   H0T      1     0.1768     1.0080 
    30   opls_829      1    UNK   H0U      1     0.1179     1.0080 
    31   opls_830      1    UNK   H0V      1      0.132     1.0080 
    32   opls_831      1    UNK   H0W      1      0.132     1.0080 
    33   opls_832      1    UNK   H0X      2     0.1181     1.0080 
    34   opls_833      1    UNK   H0Y      2     0.1181     1.0080 
[ bonds ]
    2     1     1      0.1529 224262.400
    3     2     1      0.1529 224262.400
    4     3     1      0.1529 224262.400
    5     4     1      0.1529 224262.400
    6     5     1      0.1529 224262.400
    7     6     1      0.1770 284512.000
    8     7     1      0.1440 585760.000
    9     7     1      0.1440 585760.000
   10     7     1      0.1770 284512.000
   11    10     1      0.1529 224262.400
   12    11     1      0.1529 224262.400
   13    12     1      0.1470 326352.000
   14    13     1      0.1157 543920.000
   15     4     1      0.1529 224262.400
   16     1     1      0.1090 284512.000
   17     1     1      0.1090 284512.000
   18     1     1      0.1090 284512.000
   19     2     1      0.1090 284512.000
   20     2     1      0.1090 284512.000
   21     3     1      0.1090 284512.000
   22     3     1      0.1090 284512.000
   23     4     1      0.1090 284512.000
   24     5     1      0.1090 284512.000
   25     5     1      0.1090 284512.000
   26     6     1      0.1090 284512.000
   27     6     1      0.1090 284512.000
   28    10     1      0.1090 284512.000
   29    10     1      0.1090 284512.000
   30    11     1      0.1090 284512.000
   31    12     1      0.1090 284512.000
   32    12     1      0.1090 284512.000
   33    15     1      0.1090 284512.000
   34    15     1      0.1090 284512.000
   15    11     1      0.1529 224262.400

[ angles ]
;  ai    aj    ak funct            c0            c1            c2            c3 
    1     2     3     1    112.700    488.273
    2     3     4     1    112.700    488.273
    3     4     5     1    112.700    488.273
    4     5     6     1    112.700    488.273
    5     6     7     1    108.600    418.400
    6     7     8     1    108.900    619.232
    6     7     9     1    108.900    619.232
    6     7    10     1    102.000    518.816
    7    10    11     1    108.600    418.400
   10    11    12     1    112.700    488.273
   11    12    13     1    112.700    488.273
   12    13    14     1    180.000   1255.200
    3     4    15     1    112.700    488.273
    2     1    16     1    110.700    313.800
    2     1    17     1    110.700    313.800
    2     1    18     1    110.700    313.800
    1     2    19     1    110.700    313.800
    1     2    20     1    110.700    313.800
    2     3    21     1    110.700    313.800
    2     3    22     1    110.700    313.800
    3     4    23     1    110.700    313.800
    4     5    24     1    110.700    313.800
    4     5    25     1    110.700    313.800
    5     6    26     1    110.700    313.800
    5     6    27     1    110.700    313.800
    7    10    28     1    109.500    292.880
    7    10    29     1    109.500    292.880
   10    11    30     1    110.700    313.800
   11    12    31     1    110.700    313.800
   11    12    32     1    110.700    313.800
    4    15    33     1    110.700    313.800
    4    15    34     1    110.700    313.800
   15     4    23     1    110.700    313.800
    9     7    10     1    108.900    619.232
    3     2    20     1    110.700    313.800
    6     5    24     1    110.700    313.800
   12    11    15     1    112.700    488.273
   11    15    34     1    110.700    313.800
   13    12    32     1    108.500    292.880
   16     1    18     1    107.800    276.144
   31    12    32     1    107.800    276.144
   10    11    15     1    112.700    488.273
    7     6    27     1    109.500    292.880
   11    10    29     1    110.700    313.800
    4     3    22     1    110.700    313.800
    8     7    10     1    108.900    619.232
    8     7     9     1    119.000    870.272
   13    12    31     1    108.500    292.880
   33    15    34     1    107.800    276.144
   28    10    29     1    107.800    276.144
   21     3    22     1    107.800    276.144
   12    11    30     1    110.700    313.800
    5     4    23     1    110.700    313.800
    7     6    26     1    109.500    292.880
   26     6    27     1    107.800    276.144
   24     5    25     1    107.800    276.144
   11    15    33     1    110.700    313.800
    3     2    19     1    110.700    313.800
   16     1    17     1    107.800    276.144
    5     4    15     1    112.700    488.273
   11    10    28     1    110.700    313.800
   15    11    30     1    110.700    313.800
    4     3    21     1    110.700    313.800
   19     2    20     1    107.800    276.144
    4    15    11     1    112.700    488.273
    6     5    25     1    110.700    313.800
   17     1    18     1    107.800    276.144

[ dihedrals ]
; IMPROPER DIHEDRAL ANGLES 
;  ai    aj    ak    al funct            c0            c1            c2            c3            c4            c5

[ dihedrals ]
; PROPER DIHEDRAL ANGLES
;  ai    aj    ak    al funct            c0            c1            c2            c3            c4            c5
    4    3    2    1        3       2.301  -1.464   0.837  -1.674  -0.000   0.000
    5    4    3    2        3       2.301  -1.464   0.837  -1.674  -0.000   0.000
    6    5    4    3        3       2.301  -1.464   0.837  -1.674  -0.000   0.000
   11   15    4    5        3       2.301  -1.464   0.837  -1.674  -0.000   0.000
   10   11   15    4        3       2.301  -1.464   0.837  -1.674  -0.000   0.000
   15    4    5    6        3       2.301  -1.464   0.837  -1.674  -0.000   0.000
   11   15    4    3        3       2.301  -1.464   0.837  -1.674  -0.000   0.000
   12   11   15    4        3       2.301  -1.464   0.837  -1.674  -0.000   0.000
   15    4    3    2        3       2.301  -1.464   0.837  -1.674  -0.000   0.000
   15   11   12   13        3      -2.720   0.000   2.720  -0.000  -0.000   0.000
   15   11   10    7        3       2.784   0.278   0.828  -3.891  -0.000   0.000
   12   11   10    7        3       2.784   0.278   0.828  -3.891  -0.000   0.000
   11   10    7    6        3       0.000   0.000   0.000  -0.000  -0.000   0.000
   11   10    7    8        3       0.000   0.000   0.000  -0.000  -0.000   0.000
   11   10    7    9        3       0.000   0.000   0.000  -0.000  -0.000   0.000
   10    7    6    5        3       0.000   0.000   0.000  -0.000  -0.000   0.000
   13   12   11   10        3      -2.720   0.000   2.720  -0.000  -0.000   0.000
   25    5    4   15        3       0.628   1.883   0.000  -2.510  -0.000   0.000
   34   15   11   10        3       0.628   1.883   0.000  -2.510  -0.000   0.000
   17    1    2    3        3       0.628   1.883   0.000  -2.510  -0.000   0.000
   32   12   11   15        3       0.628   1.883   0.000  -2.510  -0.000   0.000
   24    5    4   15        3       0.628   1.883   0.000  -2.510  -0.000   0.000
   26    6    5    4        3       0.628   1.883   0.000  -2.510  -0.000   0.000
   23    4    5    6        3       0.628   1.883   0.000  -2.510  -0.000   0.000
   33   15   11   12        3       0.628   1.883   0.000  -2.510  -0.000   0.000
   34   15   11   12        3       0.628   1.883   0.000  -2.510  -0.000   0.000
   29   10   11   12        3       0.628   1.883   0.000  -2.510  -0.000   0.000
   20    2    3    4        3       0.628   1.883   0.000  -2.510  -0.000   0.000
   33   15   11   10        3       0.628   1.883   0.000  -2.510  -0.000   0.000
   30   11   15    4        3       0.628   1.883   0.000  -2.510  -0.000   0.000
   24    5    4    3        3       0.628   1.883   0.000  -2.510  -0.000   0.000
   34   15    4    5        3       0.628   1.883   0.000  -2.510  -0.000   0.000
   28   10   11   12        3       0.628   1.883   0.000  -2.510  -0.000   0.000
   27    6    5    4        3       0.628   1.883   0.000  -2.510  -0.000   0.000
   23    4    3    2        3       0.628   1.883   0.000  -2.510  -0.000   0.000
   29   10   11   15        3       0.628   1.883   0.000  -2.510  -0.000   0.000
   21    3    4    5        3       0.628   1.883   0.000  -2.510  -0.000   0.000
   21    3    4   15        3       0.628   1.883   0.000  -2.510  -0.000   0.000
   19    2    3    4        3       0.628   1.883   0.000  -2.510  -0.000   0.000
   23    4   15   11        3       0.628   1.883   0.000  -2.510  -0.000   0.000
   33   15    4    5        3       0.628   1.883   0.000  -2.510  -0.000   0.000
   22    3    4   15        3       0.628   1.883   0.000  -2.510  -0.000   0.000
   22    3    2    1        3       0.628   1.883   0.000  -2.510  -0.000   0.000
   22    3    4    5        3       0.628   1.883   0.000  -2.510  -0.000   0.000
   31   12   11   10        3       0.628   1.883   0.000  -2.510  -0.000   0.000
   28   10   11   15        3       0.628   1.883   0.000  -2.510  -0.000   0.000
   18    1    2    3        3       0.628   1.883   0.000  -2.510  -0.000   0.000
   25    5    4    3        3       0.628   1.883   0.000  -2.510  -0.000   0.000
   16    1    2    3        3       0.628   1.883   0.000  -2.510  -0.000   0.000
   31   12   11   15        3       0.628   1.883   0.000  -2.510  -0.000   0.000
   34   15    4    3        3       0.628   1.883   0.000  -2.510  -0.000   0.000
   32   12   11   10        3       0.628   1.883   0.000  -2.510  -0.000   0.000
   33   15    4    3        3       0.628   1.883   0.000  -2.510  -0.000   0.000
   21    3    2    1        3       0.628   1.883   0.000  -2.510  -0.000   0.000
   30   11   12   13        3       0.766   2.297   0.000  -3.063  -0.000   0.000
   19    2    1   17        3       0.628   1.883   0.000  -2.510  -0.000   0.000
   32   12   11   30        3       0.628   1.883   0.000  -2.510  -0.000   0.000
   33   15    4   23        3       0.628   1.883   0.000  -2.510  -0.000   0.000
   22    3    2   20        3       0.628   1.883   0.000  -2.510  -0.000   0.000
   19    2    1   18        3       0.628   1.883   0.000  -2.510  -0.000   0.000
   20    2    1   17        3       0.628   1.883   0.000  -2.510  -0.000   0.000
   20    2    1   16        3       0.628   1.883   0.000  -2.510  -0.000   0.000
   31   12   11   30        3       0.628   1.883   0.000  -2.510  -0.000   0.000
   30   11   10   28        3       0.628   1.883   0.000  -2.510  -0.000   0.000
   30   11   10   29        3       0.628   1.883   0.000  -2.510  -0.000   0.000
   21    3    2   20        3       0.628   1.883   0.000  -2.510  -0.000   0.000
   22    3    2   19        3       0.628   1.883   0.000  -2.510  -0.000   0.000
   34   15    4   23        3       0.628   1.883   0.000  -2.510  -0.000   0.000
   20    2    1   18        3       0.628   1.883   0.000  -2.510  -0.000   0.000
   25    5    4   23        3       0.628   1.883   0.000  -2.510  -0.000   0.000
   21    3    2   19        3       0.628   1.883   0.000  -2.510  -0.000   0.000
   26    6    5   25        3       0.628   1.883   0.000  -2.510  -0.000   0.000
   27    6    5   25        3       0.628   1.883   0.000  -2.510  -0.000   0.000
   23    4    3   21        3       0.628   1.883   0.000  -2.510  -0.000   0.000
   23    4    3   22        3       0.628   1.883   0.000  -2.510  -0.000   0.000
   27    6    5   24        3       0.628   1.883   0.000  -2.510  -0.000   0.000
   33   15   11   30        3       0.628   1.883   0.000  -2.510  -0.000   0.000
   26    6    5   24        3       0.628   1.883   0.000  -2.510  -0.000   0.000
   19    2    1   16        3       0.628   1.883   0.000  -2.510  -0.000   0.000
   34   15   11   30        3       0.628   1.883   0.000  -2.510  -0.000   0.000
   24    5    4   23        3       0.628   1.883   0.000  -2.510  -0.000   0.000
   30   11   10    7        3       0.946   2.837   0.000  -3.782  -0.000   0.000
   24    5    6    7        3       0.946   2.837   0.000  -3.782  -0.000   0.000
   25    5    6    7        3       0.946   2.837   0.000  -3.782  -0.000   0.000
   32   12   13   14        3       0.000   0.000   0.000  -0.000  -0.000   0.000
   31   12   13   14        3       0.000   0.000   0.000  -0.000  -0.000   0.000
   29   10    7    6        3       0.732   2.197   0.000  -2.929  -0.000   0.000
   28   10    7    6        3       0.732   2.197   0.000  -2.929  -0.000   0.000
   27    6    7   10        3       0.732   2.197   0.000  -2.929  -0.000   0.000
   26    6    7   10        3       0.732   2.197   0.000  -2.929  -0.000   0.000
   27    6    7    8        3       0.732   2.197   0.000  -2.929  -0.000   0.000
   28   10    7    9        3       0.732   2.197   0.000  -2.929  -0.000   0.000
   29   10    7    8        3       0.732   2.197   0.000  -2.929  -0.000   0.000
   28   10    7    8        3       0.732   2.197   0.000  -2.929  -0.000   0.000
   29   10    7    9        3       0.732   2.197   0.000  -2.929  -0.000   0.000
   26    6    7    9        3       0.732   2.197   0.000  -2.929  -0.000   0.000
   27    6    7    9        3       0.732   2.197   0.000  -2.929  -0.000   0.000
   26    6    7    8        3       0.732   2.197   0.000  -2.929  -0.000   0.000
   14   13   12   11        3       0.000   0.000   0.000  -0.000  -0.000   0.000
    9    7    6    5        3       0.000   0.000   0.000  -0.000  -0.000   0.000
    8    7    6    5        3       0.000   0.000   0.000  -0.000  -0.000   0.000
    7    6    5    4        3       2.784   0.278   0.828  -3.891  -0.000   0.000

[ pairs ]
     1     4    1
     2     5    1
     3     6    1
     4     7    1
     5     8    1
     5     9    1
     4    10    1
     3    11    1
     5    10    1
     5    11    1
     4    12    1
     6    11    1
     2    15    1
     8    11    1
     7    12    1
     3    16    1
     9    11    1
     3    17    1
     6    15    1
     3    18    1
     7    15    1
     1    21    1
    10    13    1
     4    19    1
     1    22    1
     4    20    1
    11    14    1
     2    23    1
     5    21    1
     5    22    1
     3    24    1
    13    15    1
     3    25    1
     6    23    1
     4    26    1
     7    24    1
     4    27    1
     7    25    1
    11    23    1
     8    26    1
     6    28    1
     4    30    1
    16    19    1
     9    26    1
     8    27    1
     6    29    1
    17    19    1
    16    20    1
    15    21    1
    10    26    1
     9    27    1
     8    28    1
     3    33    1
    18    19    1
    17    20    1
    15    22    1
    10    27    1
     9    28    1
     8    29    1
     7    30    1
     3    34    1
    18    20    1
     9    29    1
     5    33    1
    15    24    1
     5    34    1
    19    21    1
    15    25    1
    12    28    1
    20    21    1
    19    22    1
    12    29    1
    10    31    1
    20    22    1
    10    32    1
    15    28    1
    13    30    1
    10    33    1
    21    23    1
    15    29    1
    10    34    1
    22    23    1
    14    31    1
    12    33    1
    15    31    1
    14    32    1
    12    34    1
    23    24    1
    15    32    1
    23    25    1
    24    26    1
    25    26    1
    24    27    1
    25    27    1
    23    33    1
    23    34    1
    28    30    1
    29    30    1
    30    31    1
    30    32    1
    30    33    1
    30    34    1

