LIGPARGEN GENERATED GRO FILE
   37
    1UNK    C00    1   0.100   0.100   0.000
    1UNK    C01    2  -0.052   0.100   0.000
    1UNK    C02    3  -0.105   0.100   0.144
    1UNK    C03    4  -0.258   0.109   0.159
    1UNK    C04    5  -0.324  -0.011   0.089
    1UNK    C05    6  -0.304   0.114   0.308
    1UNK    C06    7  -0.261   0.236   0.394
    1UNK    C07    8  -0.310   0.361   0.332
    1UNK    N08    9  -0.349   0.459   0.283
    1UNK    C09   10  -0.316   0.226   0.538
    1UNK    C0A   11  -0.225   0.318   0.620
    1UNK    C0B   12  -0.086   0.292   0.562
    1UNK    C0C   13   0.006   0.413   0.567
    1UNK    C0D   14  -0.109   0.244   0.419
    1UNK    H0E   15   0.138   0.100  -0.102
    1UNK    H0F   16   0.139   0.011   0.051
    1UNK    H0G   17   0.139   0.189   0.051
    1UNK    H0H   18  -0.088   0.012  -0.055
    1UNK    H0I   19  -0.088   0.190  -0.052
    1UNK    H0J   20  -0.059   0.187   0.189
    1UNK    H0K   21  -0.068   0.011   0.196
    1UNK    H0M   22  -0.293   0.200   0.108
    1UNK    H0N   23  -0.278  -0.105   0.121
    1UNK    H0O   24  -0.314  -0.003  -0.020
    1UNK    H0P   25  -0.431  -0.016   0.111
    1UNK    H0Q   26  -0.272   0.022   0.357
    1UNK    H0R   27  -0.414   0.111   0.308
    1UNK    H0S   28  -0.306   0.123   0.576
    1UNK    H0T   29  -0.421   0.255   0.547
    1UNK    H0U   30  -0.230   0.295   0.727
    1UNK    H0V   31  -0.255   0.422   0.606
    1UNK    H0W   32  -0.039   0.211   0.619
    1UNK    H0X   33  -0.036   0.497   0.512
    1UNK    H0Y   34   0.103   0.389   0.521
    1UNK    H0Z   35   0.025   0.445   0.670
    1UNK    H10   36  -0.063   0.145   0.410
    1UNK    H11   37  -0.060   0.311   0.348
   1.00000   1.00000   1.00000

