LIGPARGEN GENERATED GRO FILE
   44
    1UNK    C00    1   0.100   0.100   0.000
    1UNK    O01    2  -0.042   0.100   0.000
    1UNK    C02    3  -0.111   0.100   0.128
    1UNK    C03    4  -0.073  -0.024   0.209
    1UNK    C04    5  -0.078   0.229   0.204
    1UNK    C05    6  -0.260   0.093   0.084
    1UNK    C06    7  -0.375   0.084   0.187
    1UNK    C07    8  -0.385   0.203   0.282
    1UNK    C08    9  -0.516   0.055   0.125
    1UNK    C09   10  -0.522  -0.081   0.051
    1UNK    N0A   11  -0.630  -0.072  -0.047
    1UNK    C0B   12  -0.758  -0.113   0.009
    1UNK    C0C   13  -0.630   0.069  -0.091
    1UNK    C0D   14  -0.588   0.154   0.029
    1UNK    C0E   15  -0.528   0.286  -0.014
    1UNK    O0F   16  -0.574   0.380   0.081
    1UNK    C0G   17  -0.688   0.329   0.135
    1UNK    O0H   18  -0.763   0.391   0.209
    1UNK    O0I   19  -0.708   0.200   0.096
    1UNK    H0J   20   0.133   0.100  -0.104
    1UNK    H0K   21   0.140   0.010   0.048
    1UNK    H0M   22   0.140   0.190   0.047
    1UNK    H0N   23   0.032  -0.021   0.241
    1UNK    H0O   24  -0.085  -0.115   0.149
    1UNK    H0P   25  -0.134  -0.033   0.300
    1UNK    H0Q   26   0.030   0.243   0.215
    1UNK    H0R   27  -0.118   0.229   0.305
    1UNK    H0S   28  -0.115   0.317   0.150
    1UNK    H0T   29  -0.266   0.005   0.018
    1UNK    H0U   30  -0.276   0.176   0.015
    1UNK    H0V   31  -0.354  -0.003   0.250
    1UNK    H0W   32  -0.373   0.299   0.231
    1UNK    H0X   33  -0.310   0.196   0.361
    1UNK    H0Y   34  -0.482   0.205   0.334
    1UNK    H0Z   35  -0.583   0.042   0.212
    1UNK    H10   36  -0.534  -0.164   0.122
    1UNK    H11   37  -0.430  -0.102  -0.004
    1UNK    H12   38  -0.754  -0.219   0.038
    1UNK    H13   39  -0.837  -0.106  -0.067
    1UNK    H14   40  -0.789  -0.055   0.097
    1UNK    H15   41  -0.727   0.099  -0.132
    1UNK    H16   42  -0.555   0.077  -0.170
    1UNK    H17   43  -0.564   0.317  -0.113
    1UNK    H18   44  -0.420   0.290  -0.018
   1.00000   1.00000   1.00000

