
;
; GENERATED BY LigParGen Server
; Jorgensen Lab @ Yale University 
;
[ atomtypes ]
  opls_818  H818     1.0080     0.000    A    2.50000E-01   1.25520E-01
  opls_814  C814    12.0110     0.000    A    3.50000E-01   2.76144E-01
  opls_824  H824     1.0080     0.000    A    2.50000E-01   1.25520E-01
  opls_815  C815    12.0110     0.000    A    3.50000E-01   2.76144E-01
  opls_804  C804    12.0110     0.000    A    3.50000E-01   2.76144E-01
  opls_843  H843     1.0080     0.000    A    2.50000E-01   1.25520E-01
  opls_836  H836     1.0080     0.000    A    2.50000E-01   1.25520E-01
  opls_834  H834     1.0080     0.000    A    2.50000E-01   1.25520E-01
  opls_810  C810    12.0110     0.000    A    3.50000E-01   2.76144E-01
  opls_828  H828     1.0080     0.000    A    2.50000E-01   1.25520E-01
  opls_851  H851     1.0080     0.000    A    2.50000E-01   1.25520E-01
  opls_812  C812    12.0110     0.000    A    3.50000E-01   2.76144E-01
  opls_802  C802    12.0110     0.000    A    3.50000E-01   2.76144E-01
  opls_827  H827     1.0080     0.000    A    2.50000E-01   1.25520E-01
  opls_801  C801    12.0110     0.000    A    3.50000E-01   2.76144E-01
  opls_806  C806    12.0110     0.000    A    3.50000E-01   2.76144E-01
  opls_822  H822     1.0080     0.000    A    2.50000E-01   1.25520E-01
  opls_803  C803    12.0110     0.000    A    3.50000E-01   2.76144E-01
  opls_838  H838     1.0080     0.000    A    2.50000E-01   1.25520E-01
  opls_825  H825     1.0080     0.000    A    2.50000E-01   1.25520E-01
  opls_830  H830     1.0080     0.000    A    2.50000E-01   1.25520E-01
  opls_821  H821     1.0080     0.000    A    2.50000E-01   1.25520E-01
  opls_842  H842     1.0080     0.000    A    2.50000E-01   1.25520E-01
  opls_820  H820     1.0080     0.000    A    2.50000E-01   1.25520E-01
  opls_837  H837     1.0080     0.000    A    2.50000E-01   1.25520E-01
  opls_829  H829     1.0080     0.000    A    2.50000E-01   1.25520E-01
  opls_831  H831     1.0080     0.000    A    2.50000E-01   1.25520E-01
  opls_805  N805    14.0070     0.000    A    3.30000E-01   7.11280E-01
  opls_832  H832     1.0080     0.000    A    2.50000E-01   1.25520E-01
  opls_800  C800    12.0110     0.000    A    3.50000E-01   2.76144E-01
  opls_846  H846     1.0080     0.000    A    2.50000E-01   1.25520E-01
  opls_848  H848     1.0080     0.000    A    2.50000E-01   1.25520E-01
  opls_811  C811    12.0110     0.000    A    3.50000E-01   2.76144E-01
  opls_823  H823     1.0080     0.000    A    2.50000E-01   1.25520E-01
  opls_813  C813    12.0110     0.000    A    3.50000E-01   2.76144E-01
  opls_826  H826     1.0080     0.000    A    2.50000E-01   1.25520E-01
  opls_835  H835     1.0080     0.000    A    2.50000E-01   1.25520E-01
  opls_841  H841     1.0080     0.000    A    2.50000E-01   1.25520E-01
  opls_819  H819     1.0080     0.000    A    2.50000E-01   1.25520E-01
  opls_816  C816    12.0110     0.000    A    3.50000E-01   2.76144E-01
  opls_833  H833     1.0080     0.000    A    2.50000E-01   1.25520E-01
  opls_839  H839     1.0080     0.000    A    2.50000E-01   1.25520E-01
  opls_817  C817    12.0110     0.000    A    3.50000E-01   2.76144E-01
  opls_852  H852     1.0080     0.000    A    2.50000E-01   1.25520E-01
  opls_809  C809    12.0110     0.000    A    3.50000E-01   2.76144E-01
  opls_808  C808    12.0110     0.000    A    3.50000E-01   2.76144E-01
  opls_850  H850     1.0080     0.000    A    2.50000E-01   1.25520E-01
  opls_840  H840     1.0080     0.000    A    2.50000E-01   1.25520E-01
  opls_849  H849     1.0080     0.000    A    2.50000E-01   1.25520E-01
  opls_847  H847     1.0080     0.000    A    2.50000E-01   1.25520E-01
  opls_853  H853     1.0080     0.000    A    2.50000E-01   1.25520E-01
  opls_844  H844     1.0080     0.000    A    2.50000E-01   1.25520E-01
  opls_845  H845     1.0080     0.000    A    2.50000E-01   1.25520E-01
  opls_854  H854     1.0080     0.000    A    2.50000E-01   1.25520E-01
  opls_807  C807    12.0110     0.000    A    3.50000E-01   2.76144E-01
[ moleculetype ]
; Name               nrexcl
UNK                   3
[ atoms ]
;   nr       type  resnr residue  atom   cgnr     charge       mass  
     1   opls_800      1    UNK   C00      1    -0.2386    12.0110 
     2   opls_801      1    UNK   C01      1    -0.1793    12.0110 
     3   opls_802      1    UNK   C02      1    -0.1784    12.0110 
     4   opls_803      1    UNK   C03      1    -0.1818    12.0110 
     5   opls_804      1    UNK   C04      1     0.0124    12.0110 
     6   opls_805      1    UNK   N05      1    -0.5804    14.0070 
     7   opls_806      1    UNK   C06      1    -0.0529    12.0110 
     8   opls_807      1    UNK   C07      1     0.0128    12.0110 
     9   opls_808      1    UNK   C08      1    -0.1829    12.0110 
    10   opls_809      1    UNK   C09      1    -0.1788    12.0110 
    11   opls_810      1    UNK   C0A      1    -0.1794    12.0110 
    12   opls_811      1    UNK   C0B      1    -0.1794    12.0110 
    13   opls_812      1    UNK   C0C      1    -0.1799    12.0110 
    14   opls_813      1    UNK   C0D      1    -0.1798    12.0110 
    15   opls_814      1    UNK   C0E      1    -0.1724    12.0110 
    16   opls_815      1    UNK   C0F      1     -0.117    12.0110 
    17   opls_816      1    UNK   C0G      1    -0.2336    12.0110 
    18   opls_817      1    UNK   C0H      1    -0.2361    12.0110 
    19   opls_818      1    UNK   H0I      1     0.0812     1.0080 
    20   opls_819      1    UNK   H0J      1     0.0812     1.0080 
    21   opls_820      1    UNK   H0K      1     0.0812     1.0080 
    22   opls_821      1    UNK   H0M      1     0.0892     1.0080 
    23   opls_822      1    UNK   H0N      1     0.0892     1.0080 
    24   opls_823      1    UNK   H0O      1     0.0896     1.0080 
    25   opls_824      1    UNK   H0P      1     0.0896     1.0080 
    26   opls_825      1    UNK   H0Q      1     0.0976     1.0080 
    27   opls_826      1    UNK   H0R      1     0.0976     1.0080 
    28   opls_827      1    UNK   H0S      1     0.0818     1.0080 
    29   opls_828      1    UNK   H0T      1     0.0818     1.0080 
    30   opls_829      1    UNK   H0U      1     0.0815     1.0080 
    31   opls_830      1    UNK   H0V      1     0.0815     1.0080 
    32   opls_831      1    UNK   H0W      1     0.0815     1.0080 
    33   opls_832      1    UNK   H0X      2     0.0819     1.0080 
    34   opls_833      1    UNK   H0Y      2     0.0819     1.0080 
    35   opls_834      1    UNK   H0Z      2     0.0979     1.0080 
    36   opls_835      1    UNK   H10      2     0.0979     1.0080 
    37   opls_836      1    UNK   H11      2     0.0901     1.0080 
    38   opls_837      1    UNK   H12      2     0.0901     1.0080 
    39   opls_838      1    UNK   H13      2     0.0906     1.0080 
    40   opls_839      1    UNK   H14      2     0.0906     1.0080 
    41   opls_840      1    UNK   H15      2     0.0899     1.0080 
    42   opls_841      1    UNK   H16      2     0.0899     1.0080 
    43   opls_842      1    UNK   H17      2       0.09     1.0080 
    44   opls_843      1    UNK   H18      2       0.09     1.0080 
    45   opls_844      1    UNK   H19      2     0.0901     1.0080 
    46   opls_845      1    UNK   H1A      2     0.0901     1.0080 
    47   opls_846      1    UNK   H1B      2     0.0889     1.0080 
    48   opls_847      1    UNK   H1C      2     0.0889     1.0080 
    49   opls_848      1    UNK   H1D      2     0.0961     1.0080 
    50   opls_849      1    UNK   H1E      2      0.081     1.0080 
    51   opls_850      1    UNK   H1F      2      0.081     1.0080 
    52   opls_851      1    UNK   H1G      2      0.081     1.0080 
    53   opls_852      1    UNK   H1H      2     0.0811     1.0080 
    54   opls_853      1    UNK   H1I      2     0.0811     1.0080 
    55   opls_854      1    UNK   H1J      2     0.0811     1.0080 
[ bonds ]
    2     1     1      0.1529 224262.400
    3     2     1      0.1529 224262.400
    4     3     1      0.1529 224262.400
    5     4     1      0.1529 224262.400
    6     5     1      0.1448 319657.600
    7     6     1      0.1448 319657.600
    8     6     1      0.1448 319657.600
    9     8     1      0.1529 224262.400
   10     9     1      0.1529 224262.400
   11    10     1      0.1529 224262.400
   12    11     1      0.1529 224262.400
   13    12     1      0.1529 224262.400
   14    13     1      0.1529 224262.400
   15    14     1      0.1529 224262.400
   16    15     1      0.1529 224262.400
   17    16     1      0.1529 224262.400
   18    16     1      0.1529 224262.400
   19     1     1      0.1090 284512.000
   20     1     1      0.1090 284512.000
   21     1     1      0.1090 284512.000
   22     2     1      0.1090 284512.000
   23     2     1      0.1090 284512.000
   24     3     1      0.1090 284512.000
   25     3     1      0.1090 284512.000
   26     4     1      0.1090 284512.000
   27     4     1      0.1090 284512.000
   28     5     1      0.1090 284512.000
   29     5     1      0.1090 284512.000
   30     7     1      0.1090 284512.000
   31     7     1      0.1090 284512.000
   32     7     1      0.1090 284512.000
   33     8     1      0.1090 284512.000
   34     8     1      0.1090 284512.000
   35     9     1      0.1090 284512.000
   36     9     1      0.1090 284512.000
   37    10     1      0.1090 284512.000
   38    10     1      0.1090 284512.000
   39    11     1      0.1090 284512.000
   40    11     1      0.1090 284512.000
   41    12     1      0.1090 284512.000
   42    12     1      0.1090 284512.000
   43    13     1      0.1090 284512.000
   44    13     1      0.1090 284512.000
   45    14     1      0.1090 284512.000
   46    14     1      0.1090 284512.000
   47    15     1      0.1090 284512.000
   48    15     1      0.1090 284512.000
   49    16     1      0.1090 284512.000
   50    17     1      0.1090 284512.000
   51    17     1      0.1090 284512.000
   52    17     1      0.1090 284512.000
   53    18     1      0.1090 284512.000
   54    18     1      0.1090 284512.000
   55    18     1      0.1090 284512.000

[ angles ]
;  ai    aj    ak funct            c0            c1            c2            c3 
    1     2     3     1    112.700    488.273
    2     3     4     1    112.700    488.273
    3     4     5     1    112.700    488.273
    4     5     6     1    109.470    470.282
    5     6     7     1    107.200    433.462
    5     6     8     1    107.200    433.462
    6     8     9     1    109.470    470.282
    8     9    10     1    112.700    488.273
    9    10    11     1    112.700    488.273
   10    11    12     1    112.700    488.273
   11    12    13     1    112.700    488.273
   12    13    14     1    112.700    488.273
   13    14    15     1    112.700    488.273
   14    15    16     1    112.700    488.273
   15    16    17     1    112.700    488.273
   15    16    18     1    112.700    488.273
    2     1    19     1    110.700    313.800
    2     1    20     1    110.700    313.800
    2     1    21     1    110.700    313.800
    1     2    22     1    110.700    313.800
    1     2    23     1    110.700    313.800
    2     3    24     1    110.700    313.800
    2     3    25     1    110.700    313.800
    3     4    26     1    110.700    313.800
    3     4    27     1    110.700    313.800
    4     5    28     1    110.700    313.800
    4     5    29     1    110.700    313.800
    6     7    30     1    109.500    292.880
    6     7    31     1    109.500    292.880
    6     7    32     1    109.500    292.880
    6     8    33     1    109.500    292.880
    6     8    34     1    109.500    292.880
    8     9    35     1    110.700    313.800
    8     9    36     1    110.700    313.800
    9    10    37     1    110.700    313.800
    9    10    38     1    110.700    313.800
   10    11    39     1    110.700    313.800
   10    11    40     1    110.700    313.800
   11    12    41     1    110.700    313.800
   11    12    42     1    110.700    313.800
   12    13    43     1    110.700    313.800
   12    13    44     1    110.700    313.800
   13    14    45     1    110.700    313.800
   13    14    46     1    110.700    313.800
   14    15    47     1    110.700    313.800
   14    15    48     1    110.700    313.800
   15    16    49     1    110.700    313.800
   16    17    50     1    110.700    313.800
   16    17    51     1    110.700    313.800
   16    17    52     1    110.700    313.800
   16    18    53     1    110.700    313.800
   16    18    54     1    110.700    313.800
   16    18    55     1    110.700    313.800
   47    15    48     1    107.800    276.144
   11    10    38     1    110.700    313.800
   19     1    21     1    107.800    276.144
   26     4    27     1    107.800    276.144
   41    12    42     1    107.800    276.144
    4     3    24     1    110.700    313.800
   30     7    32     1    107.800    276.144
   20     1    21     1    107.800    276.144
   53    18    55     1    107.800    276.144
   24     3    25     1    107.800    276.144
    5     4    27     1    110.700    313.800
    5     4    26     1    110.700    313.800
   35     9    36     1    107.800    276.144
   39    11    40     1    107.800    276.144
    9     8    34     1    110.700    313.800
   31     7    32     1    107.800    276.144
   12    11    39     1    110.700    313.800
   15    14    46     1    110.700    313.800
   45    14    46     1    107.800    276.144
   13    12    42     1    110.700    313.800
   51    17    52     1    107.800    276.144
   17    16    18     1    112.700    488.273
   33     8    34     1    107.800    276.144
   18    16    49     1    110.700    313.800
   16    15    47     1    110.700    313.800
   43    13    44     1    107.800    276.144
    4     3    25     1    110.700    313.800
   50    17    52     1    107.800    276.144
   10     9    35     1    110.700    313.800
   50    17    51     1    107.800    276.144
   54    18    55     1    107.800    276.144
   37    10    38     1    107.800    276.144
   22     2    23     1    107.800    276.144
   28     5    29     1    107.800    276.144
   15    14    45     1    110.700    313.800
   13    12    41     1    110.700    313.800
   53    18    54     1    107.800    276.144
    9     8    33     1    110.700    313.800
   16    15    48     1    110.700    313.800
   14    13    43     1    110.700    313.800
    3     2    22     1    110.700    313.800
    3     2    23     1    110.700    313.800
    6     5    28     1    109.500    292.880
   12    11    40     1    110.700    313.800
   17    16    49     1    110.700    313.800
   11    10    37     1    110.700    313.800
    7     6     8     1    107.200    433.462
   10     9    36     1    110.700    313.800
   30     7    31     1    107.800    276.144
   19     1    20     1    107.800    276.144
    6     5    29     1    109.500    292.880
   14    13    44     1    110.700    313.800

[ dihedrals ]
; IMPROPER DIHEDRAL ANGLES 
;  ai    aj    ak    al funct            c0            c1            c2            c3            c4            c5

[ dihedrals ]
; PROPER DIHEDRAL ANGLES
;  ai    aj    ak    al funct            c0            c1            c2            c3            c4            c5
    4    3    2    1        3       2.301  -1.464   0.837  -1.674  -0.000   0.000
   18   16   15   14        3       2.301  -1.464   0.837  -1.674  -0.000   0.000
   17   16   15   14        3       2.301  -1.464   0.837  -1.674  -0.000   0.000
   15   14   13   12        3       2.301  -1.464   0.837  -1.674  -0.000   0.000
   14   13   12   11        3       2.301  -1.464   0.837  -1.674  -0.000   0.000
   13   12   11   10        3       2.301  -1.464   0.837  -1.674  -0.000   0.000
   12   11   10    9        3       2.301  -1.464   0.837  -1.674  -0.000   0.000
   16   15   14   13        3       2.301  -1.464   0.837  -1.674  -0.000   0.000
    5    4    3    2        3       2.301  -1.464   0.837  -1.674  -0.000   0.000
   11   10    9    8        3       2.301  -1.464   0.837  -1.674  -0.000   0.000
   10    9    8    6        3       3.335  -1.552   2.820  -4.602  -0.000   0.000
    9    8    6    5        3       1.789   3.492   0.536  -5.816  -0.000   0.000
    9    8    6    7        3       1.789   3.492   0.536  -5.816  -0.000   0.000
    7    6    5    4        3       1.789   3.492   0.536  -5.816  -0.000   0.000
    8    6    5    4        3       1.789   3.492   0.536  -5.816  -0.000   0.000
   44   13   14   15        3       0.628   1.883   0.000  -2.510  -0.000   0.000
   24    3    4    5        3       0.628   1.883   0.000  -2.510  -0.000   0.000
   37   10    9    8        3       0.628   1.883   0.000  -2.510  -0.000   0.000
   39   11   10    9        3       0.628   1.883   0.000  -2.510  -0.000   0.000
   41   12   11   10        3       0.628   1.883   0.000  -2.510  -0.000   0.000
   21    1    2    3        3       0.628   1.883   0.000  -2.510  -0.000   0.000
   52   17   16   15        3       0.628   1.883   0.000  -2.510  -0.000   0.000
   36    9   10   11        3       0.628   1.883   0.000  -2.510  -0.000   0.000
   53   18   16   17        3       0.628   1.883   0.000  -2.510  -0.000   0.000
   26    4    3    2        3       0.628   1.883   0.000  -2.510  -0.000   0.000
   49   16   15   14        3       0.628   1.883   0.000  -2.510  -0.000   0.000
   22    2    3    4        3       0.628   1.883   0.000  -2.510  -0.000   0.000
   54   18   16   15        3       0.628   1.883   0.000  -2.510  -0.000   0.000
   54   18   16   17        3       0.628   1.883   0.000  -2.510  -0.000   0.000
   48   15   14   13        3       0.628   1.883   0.000  -2.510  -0.000   0.000
   23    2    3    4        3       0.628   1.883   0.000  -2.510  -0.000   0.000
   28    5    4    3        3       0.628   1.883   0.000  -2.510  -0.000   0.000
   50   17   16   18        3       0.628   1.883   0.000  -2.510  -0.000   0.000
   47   15   16   18        3       0.628   1.883   0.000  -2.510  -0.000   0.000
   40   11   12   13        3       0.628   1.883   0.000  -2.510  -0.000   0.000
   45   14   15   16        3       0.628   1.883   0.000  -2.510  -0.000   0.000
   43   13   12   11        3       0.628   1.883   0.000  -2.510  -0.000   0.000
   55   18   16   17        3       0.628   1.883   0.000  -2.510  -0.000   0.000
   38   10   11   12        3       0.628   1.883   0.000  -2.510  -0.000   0.000
   46   14   15   16        3       0.628   1.883   0.000  -2.510  -0.000   0.000
   46   14   13   12        3       0.628   1.883   0.000  -2.510  -0.000   0.000
   43   13   14   15        3       0.628   1.883   0.000  -2.510  -0.000   0.000
   33    8    9   10        3       0.628   1.883   0.000  -2.510  -0.000   0.000
   44   13   12   11        3       0.628   1.883   0.000  -2.510  -0.000   0.000
   41   12   13   14        3       0.628   1.883   0.000  -2.510  -0.000   0.000
   25    3    2    1        3       0.628   1.883   0.000  -2.510  -0.000   0.000
   37   10   11   12        3       0.628   1.883   0.000  -2.510  -0.000   0.000
   40   11   10    9        3       0.628   1.883   0.000  -2.510  -0.000   0.000
   45   14   13   12        3       0.628   1.883   0.000  -2.510  -0.000   0.000
   29    5    4    3        3       0.628   1.883   0.000  -2.510  -0.000   0.000
   20    1    2    3        3       0.628   1.883   0.000  -2.510  -0.000   0.000
   52   17   16   18        3       0.628   1.883   0.000  -2.510  -0.000   0.000
   24    3    2    1        3       0.628   1.883   0.000  -2.510  -0.000   0.000
   55   18   16   15        3       0.628   1.883   0.000  -2.510  -0.000   0.000
   42   12   11   10        3       0.628   1.883   0.000  -2.510  -0.000   0.000
   34    8    9   10        3       0.628   1.883   0.000  -2.510  -0.000   0.000
   27    4    3    2        3       0.628   1.883   0.000  -2.510  -0.000   0.000
   42   12   13   14        3       0.628   1.883   0.000  -2.510  -0.000   0.000
   39   11   12   13        3       0.628   1.883   0.000  -2.510  -0.000   0.000
   47   15   16   17        3       0.628   1.883   0.000  -2.510  -0.000   0.000
   48   15   16   17        3       0.628   1.883   0.000  -2.510  -0.000   0.000
   48   15   16   18        3       0.628   1.883   0.000  -2.510  -0.000   0.000
   51   17   16   15        3       0.628   1.883   0.000  -2.510  -0.000   0.000
   50   17   16   15        3       0.628   1.883   0.000  -2.510  -0.000   0.000
   53   18   16   15        3       0.628   1.883   0.000  -2.510  -0.000   0.000
   38   10    9    8        3       0.628   1.883   0.000  -2.510  -0.000   0.000
   51   17   16   18        3       0.628   1.883   0.000  -2.510  -0.000   0.000
   47   15   14   13        3       0.628   1.883   0.000  -2.510  -0.000   0.000
   19    1    2    3        3       0.628   1.883   0.000  -2.510  -0.000   0.000
   35    9   10   11        3       0.628   1.883   0.000  -2.510  -0.000   0.000
   25    3    4    5        3       0.628   1.883   0.000  -2.510  -0.000   0.000
   50   17   16   49        3       0.628   1.883   0.000  -2.510  -0.000   0.000
   23    2    1   21        3       0.628   1.883   0.000  -2.510  -0.000   0.000
   45   14   13   43        3       0.628   1.883   0.000  -2.510  -0.000   0.000
   36    9    8   34        3       0.628   1.883   0.000  -2.510  -0.000   0.000
   47   15   14   46        3       0.628   1.883   0.000  -2.510  -0.000   0.000
   27    4    3   24        3       0.628   1.883   0.000  -2.510  -0.000   0.000
   38   10    9   35        3       0.628   1.883   0.000  -2.510  -0.000   0.000
   36    9    8   33        3       0.628   1.883   0.000  -2.510  -0.000   0.000
   46   14   13   44        3       0.628   1.883   0.000  -2.510  -0.000   0.000
   26    4    3   24        3       0.628   1.883   0.000  -2.510  -0.000   0.000
   54   18   16   49        3       0.628   1.883   0.000  -2.510  -0.000   0.000
   28    5    4   27        3       0.628   1.883   0.000  -2.510  -0.000   0.000
   29    5    4   26        3       0.628   1.883   0.000  -2.510  -0.000   0.000
   29    5    4   27        3       0.628   1.883   0.000  -2.510  -0.000   0.000
   23    2    1   20        3       0.628   1.883   0.000  -2.510  -0.000   0.000
   44   13   12   42        3       0.628   1.883   0.000  -2.510  -0.000   0.000
   49   16   15   47        3       0.628   1.883   0.000  -2.510  -0.000   0.000
   28    5    4   26        3       0.628   1.883   0.000  -2.510  -0.000   0.000
   37   10    9   36        3       0.628   1.883   0.000  -2.510  -0.000   0.000
   25    3    2   22        3       0.628   1.883   0.000  -2.510  -0.000   0.000
   24    3    2   23        3       0.628   1.883   0.000  -2.510  -0.000   0.000
   35    9    8   34        3       0.628   1.883   0.000  -2.510  -0.000   0.000
   39   11   10   37        3       0.628   1.883   0.000  -2.510  -0.000   0.000
   48   15   14   45        3       0.628   1.883   0.000  -2.510  -0.000   0.000
   26    4    3   25        3       0.628   1.883   0.000  -2.510  -0.000   0.000
   42   12   11   40        3       0.628   1.883   0.000  -2.510  -0.000   0.000
   43   13   12   42        3       0.628   1.883   0.000  -2.510  -0.000   0.000
   46   14   13   43        3       0.628   1.883   0.000  -2.510  -0.000   0.000
   22    2    1   19        3       0.628   1.883   0.000  -2.510  -0.000   0.000
   22    2    1   20        3       0.628   1.883   0.000  -2.510  -0.000   0.000
   53   18   16   49        3       0.628   1.883   0.000  -2.510  -0.000   0.000
   23    2    1   19        3       0.628   1.883   0.000  -2.510  -0.000   0.000
   51   17   16   49        3       0.628   1.883   0.000  -2.510  -0.000   0.000
   52   17   16   49        3       0.628   1.883   0.000  -2.510  -0.000   0.000
   22    2    1   21        3       0.628   1.883   0.000  -2.510  -0.000   0.000
   45   14   13   44        3       0.628   1.883   0.000  -2.510  -0.000   0.000
   44   13   12   41        3       0.628   1.883   0.000  -2.510  -0.000   0.000
   55   18   16   49        3       0.628   1.883   0.000  -2.510  -0.000   0.000
   27    4    3   25        3       0.628   1.883   0.000  -2.510  -0.000   0.000
   24    3    2   22        3       0.628   1.883   0.000  -2.510  -0.000   0.000
   43   13   12   41        3       0.628   1.883   0.000  -2.510  -0.000   0.000
   47   15   14   45        3       0.628   1.883   0.000  -2.510  -0.000   0.000
   37   10    9   35        3       0.628   1.883   0.000  -2.510  -0.000   0.000
   38   10    9   36        3       0.628   1.883   0.000  -2.510  -0.000   0.000
   49   16   15   48        3       0.628   1.883   0.000  -2.510  -0.000   0.000
   41   12   11   39        3       0.628   1.883   0.000  -2.510  -0.000   0.000
   25    3    2   23        3       0.628   1.883   0.000  -2.510  -0.000   0.000
   39   11   10   38        3       0.628   1.883   0.000  -2.510  -0.000   0.000
   48   15   14   46        3       0.628   1.883   0.000  -2.510  -0.000   0.000
   41   12   11   40        3       0.628   1.883   0.000  -2.510  -0.000   0.000
   40   11   10   37        3       0.628   1.883   0.000  -2.510  -0.000   0.000
   40   11   10   38        3       0.628   1.883   0.000  -2.510  -0.000   0.000
   35    9    8   33        3       0.628   1.883   0.000  -2.510  -0.000   0.000
   42   12   11   39        3       0.628   1.883   0.000  -2.510  -0.000   0.000
   35    9    8    6        3      -4.096   5.088   2.966  -3.958  -0.000   0.000
   27    4    5    6        3      -4.096   5.088   2.966  -3.958  -0.000   0.000
   36    9    8    6        3      -4.096   5.088   2.966  -3.958  -0.000   0.000
   26    4    5    6        3      -4.096   5.088   2.966  -3.958  -0.000   0.000
   33    8    6    5        3       1.172   3.515   0.000  -4.686  -0.000   0.000
   34    8    6    5        3       1.172   3.515   0.000  -4.686  -0.000   0.000
   34    8    6    7        3       1.172   3.515   0.000  -4.686  -0.000   0.000
   32    7    6    8        3       1.172   3.515   0.000  -4.686  -0.000   0.000
   29    5    6    8        3       1.172   3.515   0.000  -4.686  -0.000   0.000
   31    7    6    8        3       1.172   3.515   0.000  -4.686  -0.000   0.000
   32    7    6    5        3       1.172   3.515   0.000  -4.686  -0.000   0.000
   28    5    6    7        3       1.172   3.515   0.000  -4.686  -0.000   0.000
   30    7    6    8        3       1.172   3.515   0.000  -4.686  -0.000   0.000
   29    5    6    7        3       1.172   3.515   0.000  -4.686  -0.000   0.000
   28    5    6    8        3       1.172   3.515   0.000  -4.686  -0.000   0.000
   30    7    6    5        3       1.172   3.515   0.000  -4.686  -0.000   0.000
   33    8    6    7        3       1.172   3.515   0.000  -4.686  -0.000   0.000
   31    7    6    5        3       1.172   3.515   0.000  -4.686  -0.000   0.000
    6    5    4    3        3       3.335  -1.552   2.820  -4.602  -0.000   0.000

[ pairs ]
     1     4    1
     2     5    1
     3     6    1
     4     7    1
     4     8    1
     5     9    1
     7     9    1
     6    10    1
     8    11    1
     9    12    1
     3    19    1
    10    13    1
     3    20    1
     3    21    1
    11    14    1
     1    24    1
     4    22    1
     1    25    1
    12    15    1
     4    23    1
     2    26    1
    13    16    1
     5    24    1
     2    27    1
     5    25    1
    14    17    1
     3    28    1
    14    18    1
     6    26    1
     3    29    1
     6    27    1
     7    28    1
     5    30    1
     8    28    1
     7    29    1
     5    31    1
     8    29    1
     5    32    1
     8    30    1
     5    33    1
     8    31    1
     5    34    1
     8    32    1
     7    33    1
    19    22    1
     7    34    1
     6    35    1
    20    22    1
    19    23    1
     6    36    1
    21    22    1
    20    23    1
    10    33    1
    21    23    1
    10    34    1
     8    37    1
    22    24    1
    11    35    1
     8    38    1
    23    24    1
    22    25    1
    11    36    1
    23    25    1
     9    39    1
    12    37    1
     9    40    1
    24    26    1
    12    38    1
    25    26    1
    24    27    1
    10    41    1
    25    27    1
    13    39    1
    10    42    1
    13    40    1
    26    28    1
    11    43    1
    27    28    1
    26    29    1
    14    41    1
    11    44    1
    27    29    1
    14    42    1
    12    45    1
    15    43    1
    12    46    1
    15    44    1
    13    47    1
    16    45    1
    13    48    1
    16    46    1
    14    49    1
    17    47    1
    18    47    1
    17    48    1
    15    50    1
    18    48    1
    15    51    1
    15    52    1
    33    35    1
    18    50    1
    15    53    1
    34    35    1
    33    36    1
    18    51    1
    15    54    1
    34    36    1
    18    52    1
    17    53    1
    15    55    1
    17    54    1
    35    37    1
    17    55    1
    36    37    1
    35    38    1
    36    38    1
    37    39    1
    38    39    1
    37    40    1
    38    40    1
    39    41    1
    40    41    1
    39    42    1
    40    42    1
    41    43    1
    42    43    1
    41    44    1
    42    44    1
    43    45    1
    44    45    1
    43    46    1
    44    46    1
    45    47    1
    46    47    1
    45    48    1
    46    48    1
    47    49    1
    48    49    1
    49    50    1
    49    51    1
    49    52    1
    49    53    1
    49    54    1
    49    55    1

