LIGPARGEN GENERATED GRO FILE
   33
    1UNK    C00    1   0.100   0.100   0.000
    1UNK    C01    2  -0.052   0.100   0.000
    1UNK    C02    3  -0.107   0.100   0.143
    1UNK    C03    4  -0.262   0.100   0.150
    1UNK    C04    5  -0.322  -0.023   0.081
    1UNK    C05    6  -0.316   0.112   0.296
    1UNK    C06    7  -0.272  -0.006   0.380
    1UNK    O07    8  -0.338  -0.109   0.390
    1UNK    C08    9  -0.276   0.244   0.363
    1UNK    O09   10  -0.166   0.252   0.420
    1UNK    C0A   11  -0.372   0.363   0.362
    1UNK    C0B   12  -0.310   0.482   0.435
    1UNK    C0C   13  -0.401   0.402   0.223
    1UNK    N0D   14  -0.424   0.433   0.114
    1UNK    C0E   15  -0.503   0.333   0.430
    1UNK    O0F   16  -0.529   0.227   0.486
    1UNK    H0G   17   0.138   0.100  -0.103
    1UNK    H0H   18   0.139   0.011   0.050
    1UNK    H0I   19   0.139   0.189   0.051
    1UNK    H0J   20  -0.086   0.012  -0.055
    1UNK    H0K   21  -0.088   0.188  -0.054
    1UNK    H0M   22  -0.069   0.189   0.193
    1UNK    H0N   23  -0.067   0.013   0.197
    1UNK    H0O   24  -0.296   0.187   0.094
    1UNK    H0P   25  -0.281  -0.116   0.122
    1UNK    H0Q   26  -0.302  -0.022  -0.027
    1UNK    H0R   27  -0.430  -0.026   0.093
    1UNK    H0S   28  -0.425   0.108   0.292
    1UNK    H0T   29  -0.172   0.001   0.426
    1UNK    H0U   30  -0.215   0.513   0.390
    1UNK    H0V   31  -0.290   0.458   0.541
    1UNK    H0W   32  -0.377   0.570   0.434
    1UNK    H0X   33  -0.578   0.414   0.428
   1.00000   1.00000   1.00000

