LIGPARGEN GENERATED GRO FILE
   55
    1UNK    C00    1   0.100   0.100   0.000
    1UNK    C01    2  -0.052   0.100   0.000
    1UNK    C02    3  -0.108   0.100   0.142
    1UNK    C03    4  -0.261   0.100   0.138
    1UNK    C04    5  -0.323   0.093   0.278
    1UNK    N05    6  -0.471   0.093   0.277
    1UNK    C06    7  -0.524  -0.024   0.206
    1UNK    C07    8  -0.520   0.100   0.416
    1UNK    C08    9  -0.673   0.106   0.425
    1UNK    C09   10  -0.721   0.113   0.570
    1UNK    C0A   11  -0.874   0.113   0.572
    1UNK    C0B   12  -0.928   0.120   0.714
    1UNK    C0C   13  -1.080   0.120   0.714
    1UNK    C0D   14  -1.133   0.127   0.857
    1UNK    C0E   15  -1.286   0.127   0.861
    1UNK    C0F   16  -1.342   0.134   1.004
    1UNK    C0G   17  -1.299   0.261   1.077
    1UNK    C0H   18  -1.494   0.125   1.000
    1UNK    H0I   19   0.137   0.100  -0.103
    1UNK    H0J   20   0.139   0.011   0.050
    1UNK    H0K   21   0.139   0.189   0.051
    1UNK    H0M   22  -0.088   0.012  -0.054
    1UNK    H0N   23  -0.088   0.188  -0.054
    1UNK    H0O   24  -0.073   0.188   0.197
    1UNK    H0P   25  -0.073   0.011   0.196
    1UNK    H0Q   26  -0.292   0.013   0.078
    1UNK    H0R   27  -0.297   0.190   0.086
    1UNK    H0S   28  -0.288   0.182   0.333
    1UNK    H0T   29  -0.285   0.005   0.331
    1UNK    H0U   30  -0.490  -0.027   0.102
    1UNK    H0V   31  -0.633  -0.020   0.198
    1UNK    H0W   32  -0.495  -0.118   0.255
    1UNK    H0X   33  -0.479   0.190   0.464
    1UNK    H0Y   34  -0.484   0.014   0.474
    1UNK    H0Z   35  -0.718   0.017   0.380
    1UNK    H10   36  -0.709   0.194   0.370
    1UNK    H11   37  -0.683   0.204   0.618
    1UNK    H12   38  -0.684   0.027   0.626
    1UNK    H13   39  -0.912   0.023   0.523
    1UNK    H14   40  -0.912   0.199   0.514
    1UNK    H15   41  -0.890   0.211   0.763
    1UNK    H16   42  -0.891   0.034   0.771
    1UNK    H17   43  -1.118   0.029   0.665
    1UNK    H18   44  -1.117   0.206   0.657
    1UNK    H19   45  -1.094   0.218   0.904
    1UNK    H1A   46  -1.095   0.041   0.914
    1UNK    H1B   47  -1.322   0.036   0.812
    1UNK    H1C   48  -1.323   0.212   0.802
    1UNK    H1D   49  -1.304   0.048   1.060
    1UNK    H1E   50  -1.326   0.351   1.020
    1UNK    H1F   51  -1.191   0.263   1.095
    1UNK    H1G   52  -1.348   0.268   1.175
    1UNK    H1H   53  -1.538   0.209   0.945
    1UNK    H1I   54  -1.536   0.126   1.101
    1UNK    H1J   55  -1.526   0.032   0.952
   1.00000   1.00000   1.00000

