LIGPARGEN GENERATED GRO FILE
   29
    1UNK    C00    1   0.100   0.100   0.000
    1UNK    C01    2  -0.051   0.100   0.000
    1UNK    O02    3  -0.112   0.100   0.106
    1UNK    C03    4  -0.120   0.100  -0.137
    1UNK    C04    5  -0.258   0.031  -0.131
    1UNK    C05    6  -0.367   0.117  -0.065
    1UNK    C06    7  -0.503   0.047  -0.076
    1UNK    C07    8  -0.373   0.258  -0.124
    1UNK    C08    9  -0.237   0.326  -0.126
    1UNK    C09   10  -0.128   0.243  -0.195
    1UNK    C0A   11  -0.150   0.239  -0.347
    1UNK    H0B   12   0.136   0.094   0.103
    1UNK    H0C   13   0.138   0.192  -0.045
    1UNK    H0D   14   0.137   0.013  -0.055
    1UNK    H0E   15  -0.057   0.038  -0.202
    1UNK    H0F   16  -0.249  -0.064  -0.078
    1UNK    H0G   17  -0.289   0.007  -0.233
    1UNK    H0H   18  -0.345   0.126   0.042
    1UNK    H0I   19  -0.534   0.038  -0.180
    1UNK    H0J   20  -0.579   0.103  -0.022
    1UNK    H0K   21  -0.498  -0.054  -0.033
    1UNK    H0M   22  -0.442   0.319  -0.064
    1UNK    H0N   23  -0.415   0.255  -0.225
    1UNK    H0O   24  -0.205   0.346  -0.023
    1UNK    H0P   25  -0.246   0.424  -0.175
    1UNK    H0Q   26  -0.032   0.294  -0.179
    1UNK    H0R   27  -0.245   0.191  -0.374
    1UNK    H0S   28  -0.070   0.184  -0.397
    1UNK    H0T   29  -0.151   0.341  -0.388
   1.00000   1.00000   1.00000

