LIGPARGEN GENERATED GRO FILE
   31
    1UNK    C00    1   0.100   0.100   0.000
    1UNK    C01    2  -0.054   0.100   0.000
    1UNK    C02    3  -0.097   0.100   0.148
    1UNK    N03    4  -0.117   0.208  -0.080
    1UNK    C04    5  -0.062   0.215  -0.217
    1UNK    C05    6  -0.267   0.216  -0.078
    1UNK    C06    7  -0.314   0.348  -0.147
    1UNK    C07    8  -0.463   0.381  -0.130
    1UNK    F08    9  -0.486   0.502  -0.188
    1UNK    C09   10  -0.345   0.096  -0.137
    1UNK    C0A   11  -0.343  -0.034  -0.060
    1UNK    F0B   12  -0.384  -0.014   0.067
    1UNK    F0C   13  -0.436  -0.117  -0.116
    1UNK    H0D   14   0.138   0.019   0.064
    1UNK    H0E   15   0.140   0.195   0.038
    1UNK    H0F   16   0.142   0.081  -0.099
    1UNK    H0G   17  -0.081   0.004  -0.044
    1UNK    H0H   18  -0.049   0.182   0.203
    1UNK    H0I   19  -0.067   0.006   0.195
    1UNK    H0J   20  -0.204   0.109   0.163
    1UNK    H0K   21   0.047   0.220  -0.217
    1UNK    H0M   22  -0.092   0.306  -0.268
    1UNK    H0N   23  -0.093   0.129  -0.277
    1UNK    H0O   24  -0.298   0.228   0.027
    1UNK    H0P   25  -0.295   0.345  -0.254
    1UNK    H0Q   26  -0.257   0.433  -0.107
    1UNK    H0R   27  -0.491   0.388  -0.025
    1UNK    H0S   28  -0.527   0.310  -0.181
    1UNK    H0T   29  -0.315   0.078  -0.241
    1UNK    H0U   30  -0.451   0.122  -0.143
    1UNK    H0V   31  -0.249  -0.089  -0.061
   1.00000   1.00000   1.00000

