
;
; GENERATED BY LigParGen Server
; Jorgensen Lab @ Yale University 
;
[ atomtypes ]
  opls_818  H818     1.0080     0.000    A    2.50000E-01   1.25520E-01
  opls_824  H824     1.0080     0.000    A    2.50000E-01   1.25520E-01
  opls_805  C805    12.0110     0.000    A    3.50000E-01   2.76144E-01
  opls_828  H828     1.0080     0.000    A    2.50000E-01   1.25520E-01
  opls_810  C810    12.0110     0.000    A    3.50000E-01   2.76144E-01
  opls_813  H813     1.0080     0.000    A    2.50000E-01   1.25520E-01
  opls_811  F811    18.9984     0.000    A    2.90000E-01   2.51040E-01
  opls_802  C802    12.0110     0.000    A    3.50000E-01   2.76144E-01
  opls_815  H815     1.0080     0.000    A    2.50000E-01   1.25520E-01
  opls_809  C809    12.0110     0.000    A    3.50000E-01   2.76144E-01
  opls_830  H830     1.0080     0.000    A    2.50000E-01   1.25520E-01
  opls_822  H822     1.0080     0.000    A    2.50000E-01   1.25520E-01
  opls_807  C807    12.0110     0.000    A    3.50000E-01   2.76144E-01
  opls_812  F812    18.9984     0.000    A    2.90000E-01   2.51040E-01
  opls_825  H825     1.0080     0.000    A    2.50000E-01   1.25520E-01
  opls_814  H814     1.0080     0.000    A    2.50000E-01   1.25520E-01
  opls_821  H821     1.0080     0.000    A    2.50000E-01   1.25520E-01
  opls_820  H820     1.0080     0.000    A    2.50000E-01   1.25520E-01
  opls_803  N803    14.0070     0.000    A    3.30000E-01   7.11280E-01
  opls_829  H829     1.0080     0.000    A    2.50000E-01   1.25520E-01
  opls_816  H816     1.0080     0.000    A    2.50000E-01   1.25520E-01
  opls_800  C800    12.0110     0.000    A    3.50000E-01   2.76144E-01
  opls_806  C806    12.0110     0.000    A    3.50000E-01   2.76144E-01
  opls_823  H823     1.0080     0.000    A    2.50000E-01   1.25520E-01
  opls_808  F808    18.9984     0.000    A    2.90000E-01   2.51040E-01
  opls_826  H826     1.0080     0.000    A    2.50000E-01   1.25520E-01
  opls_819  H819     1.0080     0.000    A    2.50000E-01   1.25520E-01
  opls_804  C804    12.0110     0.000    A    3.50000E-01   2.76144E-01
  opls_827  H827     1.0080     0.000    A    2.50000E-01   1.25520E-01
  opls_801  C801    12.0110     0.000    A    3.50000E-01   2.76144E-01
  opls_817  H817     1.0080     0.000    A    2.50000E-01   1.25520E-01
[ moleculetype ]
; Name               nrexcl
UNK                   3
[ atoms ]
;   nr       type  resnr residue  atom   cgnr     charge       mass  
     1   opls_800      1    UNK   C00      1    -0.2399    12.0110 
     2   opls_801      1    UNK   C01      1     0.1112    12.0110 
     3   opls_802      1    UNK   C02      1     -0.245    12.0110 
     4   opls_803      1    UNK   N03      1    -0.6536    14.0070 
     5   opls_804      1    UNK   C04      1    -0.0265    12.0110 
     6   opls_805      1    UNK   C05      1     0.1272    12.0110 
     7   opls_806      1    UNK   C06      1    -0.2263    12.0110 
     8   opls_807      1    UNK   C07      1     0.0094    12.0110 
     9   opls_808      1    UNK   F08      1    -0.1849    18.9984 
    10   opls_809      1    UNK   C09      1    -0.2928    12.0110 
    11   opls_810      1    UNK   C0A      1     0.2426    12.0110 
    12   opls_811      1    UNK   F0B      1    -0.1872    18.9984 
    13   opls_812      1    UNK   F0C      1    -0.1872    18.9984 
    14   opls_813      1    UNK   H0D      1     0.0897     1.0080 
    15   opls_814      1    UNK   H0E      1     0.0897     1.0080 
    16   opls_815      1    UNK   H0F      1     0.0897     1.0080 
    17   opls_816      1    UNK   H0G      1      0.055     1.0080 
    18   opls_817      1    UNK   H0H      1      0.093     1.0080 
    19   opls_818      1    UNK   H0I      1      0.093     1.0080 
    20   opls_819      1    UNK   H0J      1      0.093     1.0080 
    21   opls_820      1    UNK   H0K      1     0.0827     1.0080 
    22   opls_821      1    UNK   H0M      1     0.0827     1.0080 
    23   opls_822      1    UNK   H0N      1     0.0827     1.0080 
    24   opls_823      1    UNK   H0O      1     0.1253     1.0080 
    25   opls_824      1    UNK   H0P      1     0.1162     1.0080 
    26   opls_825      1    UNK   H0Q      1     0.1162     1.0080 
    27   opls_826      1    UNK   H0R      1     0.0904     1.0080 
    28   opls_827      1    UNK   H0S      1     0.0904     1.0080 
    29   opls_828      1    UNK   H0T      1     0.1236     1.0080 
    30   opls_829      1    UNK   H0U      1     0.1236     1.0080 
    31   opls_830      1    UNK   H0V      1     0.1159     1.0080 
[ bonds ]
    2     1     1      0.1529 224262.400
    3     2     1      0.1529 224262.400
    4     2     1      0.1448 319657.600
    5     4     1      0.1448 319657.600
    6     4     1      0.1448 319657.600
    7     6     1      0.1529 224262.400
    8     7     1      0.1529 224262.400
    9     8     1      0.1360 307105.600
   10     6     1      0.1529 224262.400
   11    10     1      0.1529 224262.400
   12    11     1      0.1360 307105.600
   13    11     1      0.1360 307105.600
   14     1     1      0.1090 284512.000
   15     1     1      0.1090 284512.000
   16     1     1      0.1090 284512.000
   17     2     1      0.1090 284512.000
   18     3     1      0.1090 284512.000
   19     3     1      0.1090 284512.000
   20     3     1      0.1090 284512.000
   21     5     1      0.1090 284512.000
   22     5     1      0.1090 284512.000
   23     5     1      0.1090 284512.000
   24     6     1      0.1090 284512.000
   25     7     1      0.1090 284512.000
   26     7     1      0.1090 284512.000
   27     8     1      0.1090 284512.000
   28     8     1      0.1090 284512.000
   29    10     1      0.1090 284512.000
   30    10     1      0.1090 284512.000
   31    11     1      0.1090 284512.000

[ angles ]
;  ai    aj    ak funct            c0            c1            c2            c3 
    1     2     3     1    112.700    488.273
    1     2     4     1    109.470    470.282
    2     4     5     1    107.200    433.462
    2     4     6     1    107.200    433.462
    4     6     7     1    109.470    470.282
    6     7     8     1    112.700    488.273
    7     8     9     1    109.500    418.400
    4     6    10     1    109.470    470.282
    6    10    11     1    112.700    488.273
   10    11    12     1    109.500    418.400
   10    11    13     1    109.500    418.400
    2     1    14     1    110.700    313.800
    2     1    15     1    110.700    313.800
    2     1    16     1    110.700    313.800
    1     2    17     1    110.700    313.800
    2     3    18     1    110.700    313.800
    2     3    19     1    110.700    313.800
    2     3    20     1    110.700    313.800
    4     5    21     1    109.500    292.880
    4     5    22     1    109.500    292.880
    4     5    23     1    109.500    292.880
    4     6    24     1    109.500    292.880
    6     7    25     1    110.700    313.800
    6     7    26     1    110.700    313.800
    7     8    27     1    110.700    313.800
    7     8    28     1    110.700    313.800
    6    10    29     1    110.700    313.800
    6    10    30     1    110.700    313.800
   10    11    31     1    110.700    313.800
    9     8    28     1    107.000    334.720
    5     4     6     1    107.200    433.462
   22     5    23     1    107.800    276.144
   14     1    16     1    107.800    276.144
   21     5    22     1    107.800    276.144
   12    11    31     1    107.000    334.720
   29    10    30     1    107.800    276.144
    3     2    17     1    110.700    313.800
   11    10    29     1    110.700    313.800
    8     7    26     1    110.700    313.800
   14     1    15     1    107.800    276.144
   10     6    24     1    110.700    313.800
   13    11    31     1    107.000    334.720
   21     5    23     1    107.800    276.144
    9     8    27     1    107.000    334.720
    7     6    24     1    110.700    313.800
    8     7    25     1    110.700    313.800
   27     8    28     1    107.800    276.144
   15     1    16     1    107.800    276.144
    3     2     4     1    109.470    470.282
   25     7    26     1    107.800    276.144
   18     3    20     1    107.800    276.144
   12    11    13     1    109.100    644.336
    4     2    17     1    109.500    292.880
   19     3    20     1    107.800    276.144
   18     3    19     1    107.800    276.144
    7     6    10     1    112.700    488.273
   11    10    30     1    110.700    313.800

[ dihedrals ]
; IMPROPER DIHEDRAL ANGLES 
;  ai    aj    ak    al funct            c0            c1            c2            c3            c4            c5

[ dihedrals ]
; PROPER DIHEDRAL ANGLES
;  ai    aj    ak    al funct            c0            c1            c2            c3            c4            c5
   11   10    6    7        3       2.301  -1.464   0.837  -1.674  -0.000   0.000
   11   10    6    4        3       3.335  -1.552   2.820  -4.602  -0.000   0.000
   10    6    7    8        3       2.301  -1.464   0.837  -1.674  -0.000   0.000
    8    7    6    4        3       3.335  -1.552   2.820  -4.602  -0.000   0.000
   10    6    4    2        3       1.789   3.492   0.536  -5.816  -0.000   0.000
    7    6    4    5        3       1.789   3.492   0.536  -5.816  -0.000   0.000
   10    6    4    5        3       1.789   3.492   0.536  -5.816  -0.000   0.000
    7    6    4    2        3       1.789   3.492   0.536  -5.816  -0.000   0.000
    6    4    2    3        3       1.789   3.492   0.536  -5.816  -0.000   0.000
    5    4    2    1        3       1.789   3.492   0.536  -5.816  -0.000   0.000
    5    4    2    3        3       1.789   3.492   0.536  -5.816  -0.000   0.000
    6    4    2    1        3       1.789   3.492   0.536  -5.816  -0.000   0.000
   13   11   10    6        3       0.000   0.000   0.000  -0.000  -0.000   0.000
   12   11   10    6        3       0.000   0.000   0.000  -0.000  -0.000   0.000
    9    8    7    6        3      -0.209   1.883   1.674  -3.347  -0.000   0.000
   31   11   10    6        3       0.628   1.883   0.000  -2.510  -0.000   0.000
   31   11   10   29        3       0.628   1.883   0.000  -2.510  -0.000   0.000
   31   11   10   30        3       0.628   1.883   0.000  -2.510  -0.000   0.000
   29   10   11   12        3       0.753   2.259   0.000  -3.012  -0.000   0.000
   30   10   11   12        3       0.753   2.259   0.000  -3.012  -0.000   0.000
   29   10   11   13        3       0.753   2.259   0.000  -3.012  -0.000   0.000
   30   10   11   13        3       0.753   2.259   0.000  -3.012  -0.000   0.000
   24    6   10   11        3       0.628   1.883   0.000  -2.510  -0.000   0.000
   20    3    2    1        3       0.628   1.883   0.000  -2.510  -0.000   0.000
   30   10    6    7        3       0.628   1.883   0.000  -2.510  -0.000   0.000
   19    3    2    1        3       0.628   1.883   0.000  -2.510  -0.000   0.000
   24    6    7    8        3       0.628   1.883   0.000  -2.510  -0.000   0.000
   27    8    7    6        3       0.628   1.883   0.000  -2.510  -0.000   0.000
   29   10    6    7        3       0.628   1.883   0.000  -2.510  -0.000   0.000
   16    1    2    3        3       0.628   1.883   0.000  -2.510  -0.000   0.000
   28    8    7    6        3       0.628   1.883   0.000  -2.510  -0.000   0.000
   18    3    2    1        3       0.628   1.883   0.000  -2.510  -0.000   0.000
   25    7    6   10        3       0.628   1.883   0.000  -2.510  -0.000   0.000
   15    1    2    3        3       0.628   1.883   0.000  -2.510  -0.000   0.000
   14    1    2    3        3       0.628   1.883   0.000  -2.510  -0.000   0.000
   26    7    6   10        3       0.628   1.883   0.000  -2.510  -0.000   0.000
   25    7    8    9        3       0.837   2.510   0.000  -3.347  -0.000   0.000
   26    7    8    9        3       0.837   2.510   0.000  -3.347  -0.000   0.000
   28    8    7   26        3       0.628   1.883   0.000  -2.510  -0.000   0.000
   25    7    6   24        3       0.628   1.883   0.000  -2.510  -0.000   0.000
   28    8    7   25        3       0.628   1.883   0.000  -2.510  -0.000   0.000
   30   10    6   24        3       0.628   1.883   0.000  -2.510  -0.000   0.000
   26    7    6   24        3       0.628   1.883   0.000  -2.510  -0.000   0.000
   17    2    1   14        3       0.628   1.883   0.000  -2.510  -0.000   0.000
   18    3    2   17        3       0.628   1.883   0.000  -2.510  -0.000   0.000
   20    3    2   17        3       0.628   1.883   0.000  -2.510  -0.000   0.000
   17    2    1   16        3       0.628   1.883   0.000  -2.510  -0.000   0.000
   29   10    6   24        3       0.628   1.883   0.000  -2.510  -0.000   0.000
   27    8    7   25        3       0.628   1.883   0.000  -2.510  -0.000   0.000
   17    2    1   15        3       0.628   1.883   0.000  -2.510  -0.000   0.000
   19    3    2   17        3       0.628   1.883   0.000  -2.510  -0.000   0.000
   27    8    7   26        3       0.628   1.883   0.000  -2.510  -0.000   0.000
   18    3    2    4        3      -4.096   5.088   2.966  -3.958  -0.000   0.000
   26    7    6    4        3      -4.096   5.088   2.966  -3.958  -0.000   0.000
   15    1    2    4        3      -4.096   5.088   2.966  -3.958  -0.000   0.000
   29   10    6    4        3      -4.096   5.088   2.966  -3.958  -0.000   0.000
   20    3    2    4        3      -4.096   5.088   2.966  -3.958  -0.000   0.000
   14    1    2    4        3      -4.096   5.088   2.966  -3.958  -0.000   0.000
   16    1    2    4        3      -4.096   5.088   2.966  -3.958  -0.000   0.000
   30   10    6    4        3      -4.096   5.088   2.966  -3.958  -0.000   0.000
   19    3    2    4        3      -4.096   5.088   2.966  -3.958  -0.000   0.000
   25    7    6    4        3      -4.096   5.088   2.966  -3.958  -0.000   0.000
   17    2    4    6        3       1.172   3.515   0.000  -4.686  -0.000   0.000
   21    5    4    6        3       1.172   3.515   0.000  -4.686  -0.000   0.000
   24    6    4    5        3       1.172   3.515   0.000  -4.686  -0.000   0.000
   23    5    4    2        3       1.172   3.515   0.000  -4.686  -0.000   0.000
   24    6    4    2        3       1.172   3.515   0.000  -4.686  -0.000   0.000
   23    5    4    6        3       1.172   3.515   0.000  -4.686  -0.000   0.000
   22    5    4    2        3       1.172   3.515   0.000  -4.686  -0.000   0.000
   22    5    4    6        3       1.172   3.515   0.000  -4.686  -0.000   0.000
   17    2    4    5        3       1.172   3.515   0.000  -4.686  -0.000   0.000
   21    5    4    2        3       1.172   3.515   0.000  -4.686  -0.000   0.000

[ pairs ]
     1     5    1
     1     6    1
     3     5    1
     3     6    1
     2     7    1
     5     7    1
     4     8    1
     2    10    1
     6     9    1
     5    10    1
     4    11    1
     3    14    1
     8    10    1
     7    11    1
     6    12    1
     4    14    1
     3    15    1
     6    13    1
     4    15    1
     3    16    1
     1    18    1
     4    16    1
     1    19    1
     1    20    1
     5    17    1
     4    18    1
     6    17    1
     4    19    1
     2    21    1
     4    20    1
     2    22    1
     2    23    1
     2    24    1
     6    21    1
     6    22    1
     6    23    1
     5    24    1
     4    25    1
     4    26    1
    14    17    1
    15    17    1
     8    24    1
    16    17    1
     6    27    1
     4    29    1
     9    25    1
     6    28    1
     4    30    1
    17    18    1
    11    24    1
    10    25    1
     9    26    1
    17    19    1
    10    26    1
     7    29    1
    17    20    1
     7    30    1
     6    31    1
    12    29    1
    13    29    1
    12    30    1
    13    30    1
    24    25    1
    24    26    1
    25    27    1
    26    27    1
    25    28    1
    24    29    1
    26    28    1
    24    30    1
    29    31    1
    30    31    1

