LIGPARGEN GENERATED GRO FILE
   35
    1UNK    C00    1   0.100   0.100   0.000
    1UNK    C01    2  -0.053   0.100   0.000
    1UNK    C02    3  -0.116   0.100   0.141
    1UNK    C03    4  -0.076   0.225   0.221
    1UNK    C04    5  -0.271   0.081   0.140
    1UNK    C05    6  -0.349   0.195   0.068
    1UNK    C06    7  -0.498   0.169   0.072
    1UNK    N07    8  -0.622   0.146   0.075
    1UNK    C08    9  -0.312  -0.059   0.083
    1UNK    C09   10  -0.259  -0.180   0.160
    1UNK    C0A   11  -0.307  -0.185   0.304
    1UNK    C0B   12  -0.259  -0.309   0.378
    1UNK    C0C   13  -0.302  -0.323   0.522
    1UNK    O0D   14  -0.189  -0.395   0.325
    1UNK    H0E   15   0.137   0.092  -0.103
    1UNK    H0F   16   0.139   0.015   0.057
    1UNK    H0G   17   0.141   0.192   0.042
    1UNK    H0H   18  -0.084   0.011  -0.055
    1UNK    H0I   19  -0.087   0.187  -0.057
    1UNK    H0J   20  -0.072   0.016   0.196
    1UNK    H0K   21  -0.108   0.317   0.172
    1UNK    H0M   22   0.033   0.230   0.234
    1UNK    H0N   23  -0.120   0.222   0.321
    1UNK    H0O   24  -0.305   0.084   0.244
    1UNK    H0P   25  -0.318   0.203  -0.036
    1UNK    H0Q   26  -0.330   0.291   0.117
    1UNK    H0R   27  -0.282  -0.067  -0.022
    1UNK    H0S   28  -0.421  -0.068   0.082
    1UNK    H0T   29  -0.149  -0.184   0.155
    1UNK    H0U   30  -0.293  -0.271   0.107
    1UNK    H0V   31  -0.417  -0.185   0.307
    1UNK    H0W   32  -0.270  -0.099   0.360
    1UNK    H0X   33  -0.370  -0.242   0.550
    1UNK    H0Y   34  -0.213  -0.318   0.586
    1UNK    H0Z   35  -0.354  -0.418   0.535
   1.00000   1.00000   1.00000

