LIGPARGEN GENERATED GRO FILE
   34
    1UNK    C00    1   0.100   0.100   0.000
    1UNK    C01    2  -0.052   0.100   0.000
    1UNK    C02    3  -0.107   0.100   0.142
    1UNK    S03    4  -0.285   0.100   0.144
    1UNK    O04    5  -0.329   0.222   0.078
    1UNK    O05    6  -0.331  -0.029   0.097
    1UNK    C06    7  -0.328   0.116   0.317
    1UNK    C07    8  -0.280   0.002   0.406
    1UNK    C08    9  -0.387  -0.106   0.392
    1UNK    C09   10  -0.518  -0.030   0.366
    1UNK    C0A   11  -0.606  -0.094   0.259
    1UNK    C0B   12  -0.726  -0.149   0.334
    1UNK    C0C   13  -0.719  -0.082   0.467
    1UNK    O0D   14  -0.808  -0.080   0.549
    1UNK    O0E   15  -0.596  -0.028   0.487
    1UNK    C0F   16  -0.479   0.116   0.337
    1UNK    H0G   17   0.138   0.100  -0.103
    1UNK    H0H   18   0.139   0.011   0.051
    1UNK    H0I   19   0.139   0.189   0.051
    1UNK    H0J   20  -0.088   0.012  -0.054
    1UNK    H0K   21  -0.088   0.188  -0.054
    1UNK    H0M   22  -0.074   0.189   0.196
    1UNK    H0N   23  -0.073   0.011   0.195
    1UNK    H0O   24  -0.285   0.212   0.349
    1UNK    H0P   25  -0.278   0.036   0.510
    1UNK    H0Q   26  -0.181  -0.036   0.381
    1UNK    H0R   27  -0.391  -0.169   0.481
    1UNK    H0S   28  -0.361  -0.171   0.307
    1UNK    H0T   29  -0.556  -0.173   0.203
    1UNK    H0U   30  -0.640  -0.020   0.185
    1UNK    H0V   31  -0.718  -0.257   0.348
    1UNK    H0W   32  -0.819  -0.124   0.283
    1UNK    H0X   33  -0.504   0.179   0.423
    1UNK    H0Y   34  -0.533   0.158   0.251
   1.00000   1.00000   1.00000

