LIGPARGEN GENERATED GRO FILE
   35
    1UNK    C00    1   0.100   0.100   0.000
    1UNK    C01    2  -0.052   0.100   0.000
    1UNK    N02    3  -0.107   0.100   0.136
    1UNK    C03    4  -0.136   0.231   0.192
    1UNK    C04    5  -0.124  -0.024   0.198
    1UNK    O05    6  -0.094  -0.128   0.138
    1UNK    C06    7  -0.190  -0.035   0.341
    1UNK    C07    8  -0.339   0.003   0.328
    1UNK    C08    9  -0.181  -0.184   0.389
    1UNK    C09   10  -0.242  -0.212   0.527
    1UNK    C0A   11  -0.211  -0.350   0.570
    1UNK    N0B   12  -0.188  -0.458   0.604
    1UNK    O0C   13  -0.134   0.051   0.442
    1UNK    C0D   14  -0.000   0.044   0.462
    1UNK    O0E   15   0.078  -0.029   0.403
    1UNK    O0F   16   0.032   0.132   0.560
    1UNK    C0G   17   0.170   0.126   0.596
    1UNK    H0H   18   0.138   0.100  -0.103
    1UNK    H0I   19   0.139   0.011   0.051
    1UNK    H0J   20   0.140   0.188   0.051
    1UNK    H0K   21  -0.088   0.012  -0.054
    1UNK    H0M   22  -0.090   0.188  -0.054
    1UNK    H0N   23  -0.075   0.308   0.143
    1UNK    H0O   24  -0.116   0.236   0.299
    1UNK    H0P   25  -0.242   0.254   0.173
    1UNK    H0Q   26  -0.392  -0.065   0.261
    1UNK    H0R   27  -0.352   0.105   0.290
    1UNK    H0S   28  -0.389   0.002   0.426
    1UNK    H0T   29  -0.077  -0.216   0.390
    1UNK    H0U   30  -0.230  -0.249   0.315
    1UNK    H0V   31  -0.350  -0.200   0.524
    1UNK    H0W   32  -0.203  -0.142   0.601
    1UNK    H0X   33   0.190   0.205   0.669
    1UNK    H0Y   34   0.234   0.143   0.509
    1UNK    H0Z   35   0.193   0.029   0.642
   1.00000   1.00000   1.00000

