
;
; GENERATED BY LigParGen Server
; Jorgensen Lab @ Yale University 
;
[ atomtypes ]
  opls_818  H818     1.0080     0.000    A    2.50000E-01   1.25520E-01
  opls_824  H824     1.0080     0.000    A    2.50000E-01   1.25520E-01
  opls_805  O805    15.9990     0.000    A    2.96000E-01   8.78640E-01
  opls_834  H834     1.0080     0.000    A    2.50000E-01   1.25520E-01
  opls_828  H828     1.0080     0.000    A    2.50000E-01   1.25520E-01
  opls_812  O812    15.9990     0.000    A    2.90000E-01   5.85760E-01
  opls_815  O815    15.9990     0.000    A    2.90000E-01   5.85760E-01
  opls_806  C806    12.0110     0.000    A    3.50000E-01   2.76144E-01
  opls_827  H827     1.0080     0.000    A    2.50000E-01   1.25520E-01
  opls_809  C809    12.0110     0.000    A    3.50000E-01   2.76144E-01
  opls_822  H822     1.0080     0.000    A    2.50000E-01   1.25520E-01
  opls_803  C803    12.0110     0.000    A    3.50000E-01   2.76144E-01
  opls_825  H825     1.0080     0.000    A    2.50000E-01   1.25520E-01
  opls_830  H830     1.0080     0.000    A    2.50000E-01   1.25520E-01
  opls_821  H821     1.0080     0.000    A    2.50000E-01   1.25520E-01
  opls_811  N811    14.0070     0.000    A    3.20000E-01   7.11280E-01
  opls_820  H820     1.0080     0.000    A    2.50000E-01   1.25520E-01
  opls_813  C813    12.0110     0.000    A    3.55000E-01   2.92880E-01
  opls_829  H829     1.0080     0.000    A    2.50000E-01   1.25520E-01
  opls_831  H831     1.0080     0.000    A    2.50000E-01   1.25520E-01
  opls_804  C804    12.0110     0.000    A    3.55000E-01   2.92880E-01
  opls_832  H832     1.0080     0.000    A    2.50000E-01   1.25520E-01
  opls_800  C800    12.0110     0.000    A    3.50000E-01   2.76144E-01
  opls_810  C810    12.0110     0.000    A    3.30000E-01   2.76144E-01
  opls_823  H823     1.0080     0.000    A    2.50000E-01   1.25520E-01
  opls_833  H833     1.0080     0.000    A    2.50000E-01   1.25520E-01
  opls_826  H826     1.0080     0.000    A    2.50000E-01   1.25520E-01
  opls_819  H819     1.0080     0.000    A    2.50000E-01   1.25520E-01
  opls_816  C816    12.0110     0.000    A    3.50000E-01   2.76144E-01
  opls_801  C801    12.0110     0.000    A    3.50000E-01   2.76144E-01
  opls_808  C808    12.0110     0.000    A    3.50000E-01   2.76144E-01
  opls_817  H817     1.0080     0.000    A    2.50000E-01   1.25520E-01
  opls_814  O814    15.9990     0.000    A    2.96000E-01   8.78640E-01
  opls_802  N802    14.0070     0.000    A    3.25000E-01   7.11280E-01
  opls_807  C807    12.0110     0.000    A    3.50000E-01   2.76144E-01
[ moleculetype ]
; Name               nrexcl
UNK                   3
[ atoms ]
;   nr       type  resnr residue  atom   cgnr     charge       mass  
     1   opls_800      1    UNK   C00      1    -0.2626    12.0110 
     2   opls_801      1    UNK   C01      1     0.1328    12.0110 
     3   opls_802      1    UNK   N02      1    -0.9209    14.0070 
     4   opls_803      1    UNK   C03      1     0.0845    12.0110 
     5   opls_804      1    UNK   C04      1     0.5821    12.0110 
     6   opls_805      1    UNK   O05      1    -0.4269    15.9990 
     7   opls_806      1    UNK   C06      1     0.1516    12.0110 
     8   opls_807      1    UNK   C07      1    -0.2452    12.0110 
     9   opls_808      1    UNK   C08      1    -0.2034    12.0110 
    10   opls_809      1    UNK   C09      1    -0.0671    12.0110 
    11   opls_810      1    UNK   C0A      1     0.1561    12.0110 
    12   opls_811      1    UNK   N0B      1    -0.3791    14.0070 
    13   opls_812      1    UNK   O0C      1    -0.3258    15.9990 
    14   opls_813      1    UNK   C0D      1      0.565    12.0110 
    15   opls_814      1    UNK   O0E      1    -0.4689    15.9990 
    16   opls_815      1    UNK   O0F      1    -0.3155    15.9990 
    17   opls_816      1    UNK   C0G      1    -0.0488    12.0110 
    18   opls_817      1    UNK   H0H      1      0.095     1.0080 
    19   opls_818      1    UNK   H0I      1      0.095     1.0080 
    20   opls_819      1    UNK   H0J      1      0.095     1.0080 
    21   opls_820      1    UNK   H0K      1     0.1081     1.0080 
    22   opls_821      1    UNK   H0M      1     0.1081     1.0080 
    23   opls_822      1    UNK   H0N      1     0.0948     1.0080 
    24   opls_823      1    UNK   H0O      1     0.0948     1.0080 
    25   opls_824      1    UNK   H0P      1     0.0948     1.0080 
    26   opls_825      1    UNK   H0Q      1       0.11     1.0080 
    27   opls_826      1    UNK   H0R      1       0.11     1.0080 
    28   opls_827      1    UNK   H0S      1       0.11     1.0080 
    29   opls_828      1    UNK   H0T      1     0.1424     1.0080 
    30   opls_829      1    UNK   H0U      1     0.1424     1.0080 
    31   opls_830      1    UNK   H0V      1     0.1295     1.0080 
    32   opls_831      1    UNK   H0W      1     0.1295     1.0080 
    33   opls_832      1    UNK   H0X      2     0.1109     1.0080 
    34   opls_833      1    UNK   H0Y      2     0.1109     1.0080 
    35   opls_834      1    UNK   H0Z      2     0.1109     1.0080 
[ bonds ]
    2     1     1      0.1529 224262.400
    3     2     1      0.1449 282001.600
    4     3     1      0.1449 282001.600
    5     3     1      0.1335 410032.000
    6     5     1      0.1229 476976.000
    7     5     1      0.1522 265265.600
    8     7     1      0.1529 224262.400
    9     7     1      0.1529 224262.400
   10     9     1      0.1529 224262.400
   11    10     1      0.1470 326352.000
   12    11     1      0.1157 543920.000
   13     7     1      0.1410 267776.000
   14    13     1      0.1327 179075.200
   15    14     1      0.1229 476976.000
   16    14     1      0.1327 179075.200
   17    16     1      0.1410 267776.000
   18     1     1      0.1090 284512.000
   19     1     1      0.1090 284512.000
   20     1     1      0.1090 284512.000
   21     2     1      0.1090 284512.000
   22     2     1      0.1090 284512.000
   23     4     1      0.1090 284512.000
   24     4     1      0.1090 284512.000
   25     4     1      0.1090 284512.000
   26     8     1      0.1090 284512.000
   27     8     1      0.1090 284512.000
   28     8     1      0.1090 284512.000
   29     9     1      0.1090 284512.000
   30     9     1      0.1090 284512.000
   31    10     1      0.1090 284512.000
   32    10     1      0.1090 284512.000
   33    17     1      0.1090 284512.000
   34    17     1      0.1090 284512.000
   35    17     1      0.1090 284512.000

[ angles ]
;  ai    aj    ak funct            c0            c1            c2            c3 
    1     2     3     1    109.700    669.440
    2     3     4     1    118.000    418.400
    2     3     5     1    121.900    418.400
    3     5     6     1    122.900    669.440
    3     5     7     1    116.600    585.760
    5     7     8     1    111.100    527.184
    5     7     9     1    111.100    527.184
    7     9    10     1    112.700    488.273
    9    10    11     1    112.700    488.273
   10    11    12     1    180.000   1255.200
    5     7    13     1    109.500    418.400
    7    13    14     1    116.900    694.544
   13    14    15     1    123.400    694.544
   13    14    16     1    118.180    584.923
   14    16    17     1    116.900    694.544
    2     1    18     1    110.700    313.800
    2     1    19     1    110.700    313.800
    2     1    20     1    110.700    313.800
    1     2    21     1    110.700    313.800
    1     2    22     1    110.700    313.800
    3     4    23     1    109.500    292.880
    3     4    24     1    109.500    292.880
    3     4    25     1    109.500    292.880
    7     8    26     1    110.700    313.800
    7     8    27     1    110.700    313.800
    7     8    28     1    110.700    313.800
    7     9    29     1    110.700    313.800
    7     9    30     1    110.700    313.800
    9    10    31     1    110.700    313.800
    9    10    32     1    110.700    313.800
   16    17    33     1    109.500    292.880
   16    17    34     1    109.500    292.880
   16    17    35     1    109.500    292.880
   10     9    30     1    110.700    313.800
   10     9    29     1    110.700    313.800
   26     8    28     1    107.800    276.144
   34    17    35     1    107.800    276.144
   23     4    24     1    107.800    276.144
   26     8    27     1    107.800    276.144
    9     7    13     1    109.500    418.400
   31    10    32     1    107.800    276.144
   24     4    25     1    107.800    276.144
   11    10    32     1    108.500    292.880
    8     7    13     1    109.500    418.400
   29     9    30     1    107.800    276.144
   27     8    28     1    107.800    276.144
    3     2    22     1    109.500    292.880
    4     3     5     1    121.900    418.400
   15    14    16     1    123.400    694.544
    6     5     7     1    120.400    669.440
   33    17    34     1    107.800    276.144
   11    10    31     1    108.500    292.880
   18     1    20     1    107.800    276.144
   23     4    25     1    107.800    276.144
   18     1    19     1    107.800    276.144
   19     1    20     1    107.800    276.144
    3     2    21     1    109.500    292.880
   33    17    35     1    107.800    276.144
   21     2    22     1    107.800    276.144
    8     7     9     1    112.700    488.273

[ dihedrals ]
; IMPROPER DIHEDRAL ANGLES 
;  ai    aj    ak    al funct            c0            c1            c2            c3            c4            c5
     5     3     2     4    4        180.000     10.460     2  
     7     5     3     6    4        180.000     43.932     2  
    16    14    13    15    4        180.000     43.932     2  

[ dihedrals ]
; PROPER DIHEDRAL ANGLES
;  ai    aj    ak    al funct            c0            c1            c2            c3            c4            c5
    5    3    2    1        3       1.933   0.000  -1.933  -0.000  -0.000   0.000
   14   13    7    5        3      -2.197   5.201   0.527  -3.531  -0.000   0.000
   14   13    7    8        3      -2.197   5.201   0.527  -3.531  -0.000   0.000
   14   13    7    9        3      -2.197   5.201   0.527  -3.531  -0.000   0.000
    7    5    3    2        3      30.288  -4.812  -25.476  -0.000  -0.000   0.000
    7    5    3    4        3      30.288  -4.812  -25.476  -0.000  -0.000   0.000
    8    7    5    3        3       0.734  -9.985  -0.791  10.042  -0.000   0.000
    9    7    5    3        3       0.734  -9.985  -0.791  10.042  -0.000   0.000
    8    7    5    6        3       0.000   0.000   0.000  -0.000  -0.000   0.000
    9    7    5    6        3       0.000   0.000   0.000  -0.000  -0.000   0.000
   10    9    7    5        3      -4.960   6.286   1.310  -2.636  -0.000   0.000
   10    9    7    8        3       2.301  -1.464   0.837  -1.674  -0.000   0.000
    4    3    2    1        3       6.872  -9.943   3.071  -0.000  -0.000   0.000
   17   16   14   15        3      21.439   0.000  -21.439  -0.000  -0.000   0.000
   17   16   14   13        3      31.206  -9.768  -21.439  -0.000  -0.000   0.000
   11   10    9    7        3      -2.720   0.000   2.720  -0.000  -0.000   0.000
   27    8    7    5        3      -0.209  -0.628   0.000   0.837  -0.000   0.000
   26    8    7    5        3      -0.209  -0.628   0.000   0.837  -0.000   0.000
   29    9    7    5        3      -0.209  -0.628   0.000   0.837  -0.000   0.000
   30    9    7    5        3      -0.209  -0.628   0.000   0.837  -0.000   0.000
   28    8    7    5        3      -0.209  -0.628   0.000   0.837  -0.000   0.000
   30    9    7    8        3       0.628   1.883   0.000  -2.510  -0.000   0.000
   31   10    9    7        3       0.628   1.883   0.000  -2.510  -0.000   0.000
   26    8    7    9        3       0.628   1.883   0.000  -2.510  -0.000   0.000
   27    8    7    9        3       0.628   1.883   0.000  -2.510  -0.000   0.000
   28    8    7    9        3       0.628   1.883   0.000  -2.510  -0.000   0.000
   29    9    7    8        3       0.628   1.883   0.000  -2.510  -0.000   0.000
   32   10    9    7        3       0.628   1.883   0.000  -2.510  -0.000   0.000
   30    9   10   11        3       0.766   2.297   0.000  -3.063  -0.000   0.000
   29    9   10   11        3       0.766   2.297   0.000  -3.063  -0.000   0.000
   21    2    1   18        3       0.628   1.883   0.000  -2.510  -0.000   0.000
   32   10    9   30        3       0.628   1.883   0.000  -2.510  -0.000   0.000
   31   10    9   29        3       0.628   1.883   0.000  -2.510  -0.000   0.000
   31   10    9   30        3       0.628   1.883   0.000  -2.510  -0.000   0.000
   22    2    1   19        3       0.628   1.883   0.000  -2.510  -0.000   0.000
   21    2    1   20        3       0.628   1.883   0.000  -2.510  -0.000   0.000
   21    2    1   19        3       0.628   1.883   0.000  -2.510  -0.000   0.000
   22    2    1   20        3       0.628   1.883   0.000  -2.510  -0.000   0.000
   22    2    1   18        3       0.628   1.883   0.000  -2.510  -0.000   0.000
   32   10    9   29        3       0.628   1.883   0.000  -2.510  -0.000   0.000
   20    1    2    3        3       0.971   2.912   0.000  -3.883  -0.000   0.000
   18    1    2    3        3       0.971   2.912   0.000  -3.883  -0.000   0.000
   19    1    2    3        3       0.971   2.912   0.000  -3.883  -0.000   0.000
   29    9    7   13        3       0.979   2.937   0.000  -3.916  -0.000   0.000
   30    9    7   13        3       0.979   2.937   0.000  -3.916  -0.000   0.000
   28    8    7   13        3       0.979   2.937   0.000  -3.916  -0.000   0.000
   27    8    7   13        3       0.979   2.937   0.000  -3.916  -0.000   0.000
   26    8    7   13        3       0.979   2.937   0.000  -3.916  -0.000   0.000
   32   10   11   12        3       0.000   0.000   0.000  -0.000  -0.000   0.000
   31   10   11   12        3       0.000   0.000   0.000  -0.000  -0.000   0.000
   21    2    3    5        3       0.000   0.000   0.000  -0.000  -0.000   0.000
   23    4    3    5        3       0.000   0.000   0.000  -0.000  -0.000   0.000
   22    2    3    5        3       0.000   0.000   0.000  -0.000  -0.000   0.000
   25    4    3    5        3       0.000   0.000   0.000  -0.000  -0.000   0.000
   24    4    3    5        3       0.000   0.000   0.000  -0.000  -0.000   0.000
   23    4    3    2        3       0.000   0.000   0.000  -0.000  -0.000   0.000
   21    2    3    4        3       0.000   0.000   0.000  -0.000  -0.000   0.000
   24    4    3    2        3       0.000   0.000   0.000  -0.000  -0.000   0.000
   22    2    3    4        3       0.000   0.000   0.000  -0.000  -0.000   0.000
   25    4    3    2        3       0.000   0.000   0.000  -0.000  -0.000   0.000
   35   17   16   14        3       0.414   1.243   0.000  -1.657  -0.000   0.000
   34   17   16   14        3       0.414   1.243   0.000  -1.657  -0.000   0.000
   33   17   16   14        3       0.414   1.243   0.000  -1.657  -0.000   0.000
   12   11   10    9        3       0.000   0.000   0.000  -0.000  -0.000   0.000
    6    5    3    2        3      25.476   0.000  -25.476  -0.000  -0.000   0.000
    6    5    3    4        3      25.476   0.000  -25.476  -0.000  -0.000   0.000
   15   14   13    7        3      21.439   0.000  -21.439  -0.000  -0.000   0.000
   16   14   13    7        3      31.206  -9.768  -21.439  -0.000  -0.000   0.000
   13    7    5    3        3      12.219   6.123  -5.113  -13.230  -0.000   0.000
   13    7    5    6        3       0.000   0.000   0.000  -0.000  -0.000   0.000
   13    7    9   10        3       2.874   0.582   2.092  -5.548  -0.000   0.000

[ pairs ]
     1     4    1
     1     5    1
     2     6    1
     2     7    1
     4     6    1
     4     7    1
     3     8    1
     3     9    1
     6     8    1
     6     9    1
     5    10    1
     3    13    1
     8    10    1
     7    11    1
     6    13    1
     5    14    1
     9    12    1
     3    18    1
     8    14    1
     7    15    1
     3    19    1
    10    13    1
     9    14    1
     7    16    1
     3    20    1
     4    21    1
     2    23    1
     5    21    1
     4    22    1
     2    24    1
     5    22    1
     2    25    1
     5    23    1
     5    24    1
    13    17    1
     5    25    1
     5    26    1
    15    17    1
     5    27    1
     5    28    1
     5    29    1
     9    26    1
     5    30    1
     9    27    1
     9    28    1
     8    29    1
     8    30    1
     7    31    1
    18    21    1
    13    26    1
     7    32    1
    19    21    1
    18    22    1
    13    27    1
    11    29    1
    20    21    1
    19    22    1
    13    28    1
    11    30    1
    20    22    1
    13    29    1
    13    30    1
    12    31    1
    12    32    1
    14    33    1
    14    34    1
    14    35    1
    29    31    1
    30    31    1
    29    32    1
    30    32    1

