LIGPARGEN GENERATED GRO FILE
   52
    1UNK    C00    1   0.100   0.100   0.000
    1UNK    C01    2  -0.052   0.100   0.000
    1UNK    C02    3  -0.106   0.100   0.143
    1UNK    C03    4  -0.260   0.100   0.146
    1UNK    C04    5  -0.308   0.100   0.292
    1UNK    C05    6  -0.463   0.100   0.317
    1UNK    C06    7  -0.518  -0.030   0.253
    1UNK    C07    8  -0.503   0.128   0.475
    1UNK    C08    9  -0.438   0.018   0.564
    1UNK    C09   10  -0.428   0.261   0.516
    1UNK    C0A   11  -0.466   0.388   0.439
    1UNK    C0B   12  -0.398   0.510   0.501
    1UNK    N0C   13  -0.655   0.138   0.503
    1UNK    C0D   14  -0.724   0.014   0.462
    1UNK    C0E   15  -0.704   0.176   0.642
    1UNK    C0F   16  -0.670   0.317   0.694
    1UNK    C0G   17  -0.859   0.171   0.654
    1UNK    H0H   18   0.138   0.100  -0.103
    1UNK    H0I   19   0.139   0.011   0.051
    1UNK    H0J   20   0.139   0.189   0.051
    1UNK    H0K   21  -0.088   0.012  -0.054
    1UNK    H0M   22  -0.088   0.188  -0.054
    1UNK    H0N   23  -0.069   0.188   0.196
    1UNK    H0O   24  -0.069   0.011   0.196
    1UNK    H0P   25  -0.294   0.012   0.092
    1UNK    H0Q   26  -0.299   0.188   0.094
    1UNK    H0R   27  -0.263   0.189   0.336
    1UNK    H0S   28  -0.264   0.013   0.343
    1UNK    H0T   29  -0.505   0.183   0.258
    1UNK    H0U   30  -0.518  -0.114   0.322
    1UNK    H0V   31  -0.462  -0.062   0.165
    1UNK    H0W   32  -0.618  -0.014   0.212
    1UNK    H0X   33  -0.329   0.020   0.556
    1UNK    H0Y   34  -0.471  -0.083   0.537
    1UNK    H0Z   35  -0.461   0.034   0.670
    1UNK    H10   36  -0.320   0.248   0.507
    1UNK    H11   37  -0.436   0.276   0.623
    1UNK    H12   38  -0.574   0.404   0.437
    1UNK    H13   39  -0.433   0.381   0.335
    1UNK    H14   40  -0.422   0.519   0.608
    1UNK    H15   41  -0.431   0.602   0.452
    1UNK    H16   42  -0.289   0.503   0.492
    1UNK    H17   43  -0.735   0.010   0.354
    1UNK    H18   44  -0.829   0.007   0.491
    1UNK    H19   45  -0.677  -0.077   0.500
    1UNK    H1A   46  -0.665   0.103   0.714
    1UNK    H1B   47  -0.684   0.393   0.618
    1UNK    H1C   48  -0.570   0.323   0.738
    1UNK    H1D   49  -0.735   0.346   0.778
    1UNK    H1E   50  -0.907   0.222   0.569
    1UNK    H1F   51  -0.895   0.220   0.745
    1UNK    H1G   52  -0.897   0.069   0.661
   1.00000   1.00000   1.00000

