LIGPARGEN GENERATED GRO FILE
   45
    1UNK    C00    1   0.100   0.100   0.000
    1UNK    C01    2  -0.052   0.100   0.000
    1UNK    C02    3  -0.107   0.100   0.143
    1UNK    N03    4  -0.255   0.109   0.152
    1UNK    C04    5  -0.319  -0.007   0.088
    1UNK    C05    6  -0.301   0.118   0.292
    1UNK    C06    7  -0.255   0.243   0.367
    1UNK    C07    8  -0.296   0.373   0.297
    1UNK    O08    9  -0.243   0.488   0.367
    1UNK    C09   10  -0.110   0.507   0.351
    1UNK    O0A   11  -0.035   0.436   0.285
    1UNK    O0B   12  -0.072   0.612   0.428
    1UNK    C0C   13   0.069   0.617   0.456
    1UNK    C0D   14   0.154   0.670   0.339
    1UNK    C0E   15   0.113   0.812   0.301
    1UNK    C0F   16   0.303   0.664   0.375
    1UNK    O0G   17   0.338   0.529   0.404
    1UNK    C0H   18   0.475   0.515   0.438
    1UNK    H0I   19   0.138   0.100  -0.103
    1UNK    H0J   20   0.139   0.011   0.051
    1UNK    H0K   21   0.139   0.189   0.051
    1UNK    H0M   22  -0.086   0.012  -0.055
    1UNK    H0N   23  -0.088   0.189  -0.054
    1UNK    H0O   24  -0.063   0.187   0.193
    1UNK    H0P   25  -0.071   0.011   0.197
    1UNK    H0Q   26  -0.298  -0.010  -0.019
    1UNK    H0R   27  -0.428  -0.000   0.097
    1UNK    H0S   28  -0.287  -0.101   0.133
    1UNK    H0T   29  -0.268   0.029   0.348
    1UNK    H0U   30  -0.410   0.118   0.293
    1UNK    H0V   31  -0.147   0.240   0.385
    1UNK    H0W   32  -0.299   0.243   0.468
    1UNK    H0X   33  -0.405   0.383   0.298
    1UNK    H0Y   34  -0.264   0.377   0.192
    1UNK    H0Z   35   0.102   0.517   0.488
    1UNK    H10   36   0.081   0.682   0.543
    1UNK    H11   37   0.137   0.606   0.252
    1UNK    H12   38   0.129   0.882   0.384
    1UNK    H13   39   0.007   0.817   0.272
    1UNK    H14   40   0.172   0.847   0.215
    1UNK    H15   41   0.324   0.726   0.463
    1UNK    H16   42   0.363   0.700   0.291
    1UNK    H17   43   0.494   0.409   0.459
    1UNK    H18   44   0.497   0.573   0.528
    1UNK    H19   45   0.538   0.547   0.355
   1.00000   1.00000   1.00000

