LIGPARGEN GENERATED GRO FILE
   24
    1UNK    C00    1   0.100   0.100   0.000
    1UNK    C01    2  -0.052   0.100   0.000
    1UNK    C02    3  -0.107   0.100   0.143
    1UNK    C03    4  -0.259   0.100   0.144
    1UNK    F04    5  -0.306   0.210   0.080
    1UNK    F05    6  -0.305  -0.009   0.077
    1UNK    C06    7  -0.315   0.098   0.286
    1UNK    C07    8  -0.468   0.098   0.286
    1UNK    C08    9  -0.523   0.096   0.429
    1UNK    C09   10  -0.675   0.096   0.426
    1UNK    N0A   11  -0.801   0.096   0.425
    1UNK    H0B   12   0.138   0.100  -0.103
    1UNK    H0C   13   0.139   0.011   0.051
    1UNK    H0D   14   0.139   0.189   0.051
    1UNK    H0E   15  -0.088   0.012  -0.054
    1UNK    H0F   16  -0.088   0.188  -0.054
    1UNK    H0G   17  -0.070   0.189   0.195
    1UNK    H0H   18  -0.070   0.011   0.195
    1UNK    H0I   19  -0.280   0.186   0.341
    1UNK    H0J   20  -0.280   0.009   0.339
    1UNK    H0K   21  -0.506   0.011   0.231
    1UNK    H0M   22  -0.506   0.187   0.233
    1UNK    H0N   23  -0.489   0.184   0.484
    1UNK    H0O   24  -0.489   0.007   0.482
   1.00000   1.00000   1.00000

