LIGPARGEN GENERATED GRO FILE
   43
    1UNK    C00    1   0.100   0.100   0.000
    1UNK    C01    2  -0.052   0.100   0.000
    1UNK    C02    3  -0.111   0.100   0.140
    1UNK    O03    4  -0.041   0.100   0.241
    1UNK    C04    5  -0.263   0.100   0.145
    1UNK    C05    6  -0.318   0.100   0.288
    1UNK    C06    7  -0.475   0.101   0.301
    1UNK    C07    8  -0.504   0.101   0.453
    1UNK    C08    9  -0.523   0.237   0.245
    1UNK    C09   10  -0.541  -0.025   0.224
    1UNK    C0A   11  -0.482  -0.157   0.281
    1UNK    C0B   12  -0.700  -0.036   0.206
    1UNK    C0C   13  -0.758   0.072   0.113
    1UNK    C0D   14  -0.737  -0.170   0.135
    1UNK    C0E   15  -0.777  -0.034   0.339
    1UNK    H0F   16   0.138   0.100  -0.103
    1UNK    H0G   17   0.139   0.011   0.051
    1UNK    H0H   18   0.139   0.189   0.051
    1UNK    H0I   19  -0.088   0.011  -0.053
    1UNK    H0J   20  -0.088   0.189  -0.052
    1UNK    H0K   21  -0.296   0.011   0.091
    1UNK    H0M   22  -0.297   0.189   0.092
    1UNK    H0N   23  -0.278   0.189   0.340
    1UNK    H0O   24  -0.275   0.016   0.344
    1UNK    H0P   25  -0.445   0.179   0.503
    1UNK    H0Q   26  -0.478   0.006   0.500
    1UNK    H0R   27  -0.608   0.123   0.476
    1UNK    H0S   28  -0.457   0.318   0.279
    1UNK    H0T   29  -0.622   0.263   0.282
    1UNK    H0U   30  -0.522   0.238   0.136
    1UNK    H0V   31  -0.504  -0.019   0.121
    1UNK    H0W   32  -0.522  -0.179   0.381
    1UNK    H0X   33  -0.373  -0.154   0.288
    1UNK    H0Y   34  -0.503  -0.242   0.216
    1UNK    H0Z   35  -0.712   0.069   0.014
    1UNK    H10   36  -0.748   0.173   0.152
    1UNK    H11   37  -0.866   0.058   0.099
    1UNK    H12   38  -0.690  -0.176   0.036
    1UNK    H13   39  -0.846  -0.177   0.119
    1UNK    H14   40  -0.709  -0.258   0.193
    1UNK    H15   41  -0.779   0.066   0.382
    1UNK    H16   42  -0.736  -0.104   0.412
    1UNK    H17   43  -0.882  -0.061   0.323
   1.00000   1.00000   1.00000

