LIGPARGEN GENERATED GRO FILE
   37
    1UNK    C00    1   0.100   0.100   0.000
    1UNK    C01    2  -0.052   0.100   0.000
    1UNK    C02    3  -0.115   0.100   0.141
    1UNK    C03    4  -0.071   0.224   0.221
    1UNK    C04    5  -0.269   0.092   0.134
    1UNK    C05    6  -0.323  -0.032   0.063
    1UNK    C06    7  -0.468  -0.037   0.107
    1UNK    C07    8  -0.463  -0.002   0.256
    1UNK    C08    9  -0.589   0.068   0.308
    1UNK    C09   10  -0.715  -0.017   0.295
    1UNK    O0A   11  -0.698  -0.137   0.370
    1UNK    C0B   12  -0.810  -0.223   0.357
    1UNK    C0C   13  -0.337   0.086   0.272
    1UNK    H0D   14   0.137   0.088  -0.102
    1UNK    H0E   15   0.139   0.018   0.061
    1UNK    H0F   16   0.140   0.194   0.038
    1UNK    H0G   17  -0.085   0.011  -0.055
    1UNK    H0H   18  -0.088   0.187  -0.057
    1UNK    H0I   19  -0.078   0.011   0.195
    1UNK    H0J   20  -0.101   0.316   0.169
    1UNK    H0K   21   0.037   0.226   0.235
    1UNK    H0M   22  -0.116   0.225   0.321
    1UNK    H0N   23  -0.307   0.181   0.082
    1UNK    H0O   24  -0.270  -0.123   0.095
    1UNK    H0P   25  -0.315  -0.025  -0.046
    1UNK    H0Q   26  -0.513  -0.135   0.090
    1UNK    H0R   27  -0.527   0.038   0.051
    1UNK    H0S   28  -0.447  -0.094   0.313
    1UNK    H0T   29  -0.604   0.163   0.255
    1UNK    H0U   30  -0.573   0.093   0.414
    1UNK    H0V   31  -0.735  -0.041   0.190
    1UNK    H0W   32  -0.800   0.039   0.336
    1UNK    H0X   33  -0.792  -0.313   0.417
    1UNK    H0Y   34  -0.824  -0.252   0.253
    1UNK    H0Z   35  -0.901  -0.174   0.395
    1UNK    H10   36  -0.271   0.039   0.347
    1UNK    H11   37  -0.360   0.186   0.308
   1.00000   1.00000   1.00000

