LIGPARGEN GENERATED GRO FILE
   30
    1UNK    C00    1   0.100   0.100   0.000
    1UNK    C01    2  -0.054   0.100   0.000
    1UNK    C02    3  -0.105   0.100   0.144
    1UNK    C03    4  -0.255   0.073   0.165
    1UNK    C04    5  -0.312  -0.043   0.081
    1UNK    C05    6  -0.408  -0.001  -0.031
    1UNK    C06    7  -0.482  -0.126  -0.082
    1UNK    S07    8  -0.333   0.081  -0.174
    1UNK    O08    9  -0.443   0.129  -0.256
    1UNK    O09   10  -0.234  -0.007  -0.232
    1UNK    C0A   11  -0.253   0.228  -0.110
    1UNK    C0B   12  -0.104   0.218  -0.085
    1UNK    H0C   13   0.139   0.013   0.055
    1UNK    H0D   14   0.140   0.191   0.046
    1UNK    H0E   15   0.138   0.093  -0.102
    1UNK    H0F   16  -0.081   0.006  -0.048
    1UNK    H0G   17  -0.080   0.195   0.193
    1UNK    H0H   18  -0.051   0.023   0.200
    1UNK    H0I   19  -0.314   0.164   0.153
    1UNK    H0J   20  -0.267   0.047   0.271
    1UNK    H0K   21  -0.370  -0.104   0.152
    1UNK    H0M   22  -0.233  -0.109   0.044
    1UNK    H0N   23  -0.483   0.069   0.008
    1UNK    H0O   24  -0.412  -0.199  -0.123
    1UNK    H0P   25  -0.554  -0.100  -0.160
    1UNK    H0Q   26  -0.538  -0.174  -0.000
    1UNK    H0R   27  -0.309   0.264  -0.024
    1UNK    H0S   28  -0.267   0.304  -0.188
    1UNK    H0T   29  -0.071   0.312  -0.039
    1UNK    H0U   30  -0.054   0.213  -0.183
   1.00000   1.00000   1.00000

