LIGPARGEN GENERATED GRO FILE
   37
    1UNK    C00    1   0.100   0.100   0.000
    1UNK    C01    2  -0.052   0.100   0.000
    1UNK    C02    3  -0.106   0.100   0.143
    1UNK    C03    4  -0.261   0.106   0.155
    1UNK    C04    5  -0.324  -0.017   0.088
    1UNK    C05    6  -0.310   0.128   0.304
    1UNK    C06    7  -0.464   0.134   0.312
    1UNK    C07    8  -0.264   0.011   0.395
    1UNK    C08    9  -0.253   0.260   0.367
    1UNK    C09   10  -0.286   0.389   0.291
    1UNK    C0A   11  -0.227   0.512   0.358
    1UNK    C0B   12  -0.254   0.645   0.292
    1UNK    O0C   13  -0.160   0.506   0.461
    1UNK    H0D   14   0.138   0.100  -0.103
    1UNK    H0E   15   0.139   0.011   0.051
    1UNK    H0F   16   0.139   0.189   0.051
    1UNK    H0G   17  -0.086   0.011  -0.055
    1UNK    H0H   18  -0.089   0.188  -0.054
    1UNK    H0I   19  -0.062   0.186   0.194
    1UNK    H0J   20  -0.069   0.010   0.194
    1UNK    H0K   21  -0.295   0.193   0.096
    1UNK    H0M   22  -0.291  -0.110   0.135
    1UNK    H0N   23  -0.298  -0.022  -0.018
    1UNK    H0O   24  -0.433  -0.014   0.091
    1UNK    H0P   25  -0.510   0.038   0.285
    1UNK    H0Q   26  -0.505   0.210   0.245
    1UNK    H0R   27  -0.497   0.157   0.414
    1UNK    H0S   28  -0.305  -0.085   0.360
    1UNK    H0T   29  -0.299   0.025   0.498
    1UNK    H0U   30  -0.155   0.002   0.399
    1UNK    H0V   31  -0.144   0.252   0.378
    1UNK    H0W   32  -0.291   0.270   0.469
    1UNK    H0X   33  -0.395   0.403   0.286
    1UNK    H0Y   34  -0.246   0.386   0.189
    1UNK    H0Z   35  -0.315   0.631   0.202
    1UNK    H10   36  -0.159   0.691   0.263
    1UNK    H11   37  -0.309   0.709   0.361
   1.00000   1.00000   1.00000

