LIGPARGEN GENERATED GRO FILE
   39
    1UNK    C00    1   0.100   0.100   0.000
    1UNK    C01    2  -0.052   0.100   0.000
    1UNK    C02    3  -0.108   0.100   0.143
    1UNK    C03    4  -0.264   0.100   0.151
    1UNK    C04    5  -0.322  -0.026   0.082
    1UNK    C05    6  -0.474  -0.033   0.073
    1UNK    C06    7  -0.314   0.114   0.299
    1UNK    C07    8  -0.271  -0.002   0.390
    1UNK    C08    9  -0.273   0.246   0.363
    1UNK    C09   10  -0.329   0.377   0.315
    1UNK    C0A   11  -0.375   0.321   0.447
    1UNK    C0B   12  -0.335   0.388   0.575
    1UNK    C0C   13  -0.393   0.316   0.697
    1UNK    H0D   14   0.138   0.100  -0.103
    1UNK    H0E   15   0.139   0.011   0.050
    1UNK    H0F   16   0.140   0.189   0.051
    1UNK    H0G   17  -0.085   0.011  -0.055
    1UNK    H0H   18  -0.089   0.188  -0.055
    1UNK    H0I   19  -0.069   0.189   0.194
    1UNK    H0J   20  -0.069   0.013   0.196
    1UNK    H0K   21  -0.299   0.188   0.095
    1UNK    H0M   22  -0.284  -0.116   0.132
    1UNK    H0N   23  -0.286  -0.032  -0.021
    1UNK    H0O   24  -0.525   0.007   0.161
    1UNK    H0P   25  -0.505  -0.137   0.062
    1UNK    H0Q   26  -0.510   0.022  -0.014
    1UNK    H0R   27  -0.423   0.114   0.298
    1UNK    H0S   28  -0.163  -0.008   0.400
    1UNK    H0T   29  -0.309  -0.098   0.353
    1UNK    H0U   30  -0.312   0.012   0.491
    1UNK    H0V   31  -0.169   0.245   0.396
    1UNK    H0W   32  -0.400   0.377   0.233
    1UNK    H0X   33  -0.263   0.463   0.316
    1UNK    H0Y   34  -0.477   0.285   0.450
    1UNK    H0Z   35  -0.372   0.491   0.574
    1UNK    H10   36  -0.226   0.393   0.585
    1UNK    H11   37  -0.502   0.314   0.693
    1UNK    H12   38  -0.363   0.367   0.789
    1UNK    H13   39  -0.357   0.213   0.702
   1.00000   1.00000   1.00000

