LIGPARGEN GENERATED GRO FILE
   39
    1UNK    C00    1   0.100   0.100   0.000
    1UNK    C01    2  -0.052   0.100   0.000
    1UNK    C02    3  -0.109   0.100   0.142
    1UNK    C03    4  -0.262   0.100   0.139
    1UNK    C04    5  -0.323   0.100   0.280
    1UNK    C05    6  -0.476   0.100   0.278
    1UNK    C06    7  -0.536  -0.024   0.210
    1UNK    C07    8  -0.678  -0.026   0.261
    1UNK    C08    9  -0.665   0.010   0.408
    1UNK    C09   10  -0.540   0.099   0.419
    1UNK    C0A   11  -0.572   0.242   0.468
    1UNK    C0B   12  -0.635   0.246   0.607
    1UNK    C0C   13  -0.664   0.388   0.651
    1UNK    H0D   14   0.138   0.100  -0.103
    1UNK    H0E   15   0.139   0.011   0.051
    1UNK    H0F   16   0.139   0.189   0.051
    1UNK    H0G   17  -0.087   0.012  -0.054
    1UNK    H0H   18  -0.088   0.188  -0.054
    1UNK    H0I   19  -0.073   0.188   0.196
    1UNK    H0J   20  -0.073   0.012   0.196
    1UNK    H0K   21  -0.296   0.011   0.084
    1UNK    H0M   22  -0.298   0.188   0.084
    1UNK    H0N   23  -0.288   0.188   0.334
    1UNK    H0O   24  -0.286   0.012   0.335
    1UNK    H0P   25  -0.511   0.188   0.222
    1UNK    H0Q   26  -0.483  -0.115   0.241
    1UNK    H0R   27  -0.532  -0.017   0.101
    1UNK    H0S   28  -0.727  -0.123   0.246
    1UNK    H0T   29  -0.738   0.050   0.209
    1UNK    H0U   30  -0.649  -0.081   0.467
    1UNK    H0V   31  -0.757   0.057   0.444
    1UNK    H0W   32  -0.471   0.053   0.491
    1UNK    H0X   33  -0.639   0.291   0.396
    1UNK    H0Y   34  -0.479   0.301   0.469
    1UNK    H0Z   35  -0.567   0.199   0.680
    1UNK    H10   36  -0.728   0.189   0.609
    1UNK    H11   37  -0.573   0.448   0.658
    1UNK    H12   38  -0.712   0.388   0.750
    1UNK    H13   39  -0.733   0.438   0.581
   1.00000   1.00000   1.00000

