
;
; GENERATED BY LigParGen Server
; Jorgensen Lab @ Yale University 
;
[ atomtypes ]
  opls_818  H818     1.0080     0.000    A    2.50000E-01   1.25520E-01
  opls_810  C810    12.0110     0.000    A    3.45000E-01   3.47272E-01
  opls_807  F807    18.9984     0.000    A    2.90000E-01   2.51040E-01
  opls_805  O805    15.9990     0.000    A    2.96000E-01   7.11280E-01
  opls_804  S804    32.0600     0.000    A    3.55000E-01   1.04600E+00
  opls_813  H813     1.0080     0.000    A    2.50000E-01   1.25520E-01
  opls_802  C802    12.0110     0.000    A    3.50000E-01   2.76144E-01
  opls_815  H815     1.0080     0.000    A    2.50000E-01   1.25520E-01
  opls_801  C801    12.0110     0.000    A    3.50000E-01   2.76144E-01
  opls_822  H822     1.0080     0.000    A    2.50000E-01   1.25520E-01
  opls_803  C803    12.0110     0.000    A    3.50000E-01   2.76144E-01
  opls_808  C808    12.0110     0.000    A    3.45000E-01   3.47272E-01
  opls_814  H814     1.0080     0.000    A    2.50000E-01   1.25520E-01
  opls_821  H821     1.0080     0.000    A    2.50000E-01   1.25520E-01
  opls_820  H820     1.0080     0.000    A    2.50000E-01   1.25520E-01
  opls_811  H811     1.0080     0.000    A    2.50000E-01   1.25520E-01
  opls_816  H816     1.0080     0.000    A    2.50000E-01   1.25520E-01
  opls_800  C800    12.0110     0.000    A    3.50000E-01   2.76144E-01
  opls_823  H823     1.0080     0.000    A    2.50000E-01   1.25520E-01
  opls_819  H819     1.0080     0.000    A    2.50000E-01   1.25520E-01
  opls_817  H817     1.0080     0.000    A    2.50000E-01   1.25520E-01
  opls_806  O806    15.9990     0.000    A    2.96000E-01   7.11280E-01
  opls_809  C809    12.0110     0.000    A    3.45000E-01   3.47272E-01
  opls_812  H812     1.0080     0.000    A    2.50000E-01   1.25520E-01
[ moleculetype ]
; Name               nrexcl
UNK                   3
[ atoms ]
;   nr       type  resnr residue  atom   cgnr     charge       mass  
     1   opls_800      1    UNK   C00      1    -0.2509    12.0110 
     2   opls_801      1    UNK   C01      1     0.0363    12.0110 
     3   opls_802      1    UNK   C02      1    -0.2489    12.0110 
     4   opls_803      1    UNK   C03      1    -0.5204    12.0110 
     5   opls_804      1    UNK   S04      1     1.3777    32.0600 
     6   opls_805      1    UNK   O05      1    -0.5469    15.9990 
     7   opls_806      1    UNK   O06      1    -0.5469    15.9990 
     8   opls_807      1    UNK   F07      1    -0.2154    18.9984 
     9   opls_808      1    UNK   C08      1    -0.1692    12.0110 
    10   opls_809      1    UNK   C09      1    -0.2451    12.0110 
    11   opls_810      1    UNK   C0A      1    -0.2333    12.0110 
    12   opls_811      1    UNK   H0B      1     0.0984     1.0080 
    13   opls_812      1    UNK   H0C      1     0.0984     1.0080 
    14   opls_813      1    UNK   H0D      1     0.0984     1.0080 
    15   opls_814      1    UNK   H0E      1     0.0993     1.0080 
    16   opls_815      1    UNK   H0F      1     0.0993     1.0080 
    17   opls_816      1    UNK   H0G      1     0.0993     1.0080 
    18   opls_817      1    UNK   H0H      1     0.1649     1.0080 
    19   opls_818      1    UNK   H0I      1     0.1649     1.0080 
    20   opls_819      1    UNK   H0J      1     0.1407     1.0080 
    21   opls_820      1    UNK   H0K      1     0.1253     1.0080 
    22   opls_821      1    UNK   H0M      1     0.1253     1.0080 
    23   opls_822      1    UNK   H0N      1     0.1244     1.0080 
    24   opls_823      1    UNK   H0O      1     0.1244     1.0080 
[ bonds ]
    2     1     1      0.1529 224262.400
    3     2     1      0.1529 224262.400
    4     2     1      0.1529 224262.400
    5     4     1      0.1770 284512.000
    6     5     1      0.1440 585760.000
    7     5     1      0.1440 585760.000
    8     5     1      0.1600 281934.656
    9     2     1      0.1510 234304.000
   10     9     1      0.1520 217568.000
   11     9     1      0.1520 217568.000
   12     1     1      0.1090 284512.000
   13     1     1      0.1090 284512.000
   14     1     1      0.1090 284512.000
   15     3     1      0.1090 284512.000
   16     3     1      0.1090 284512.000
   17     3     1      0.1090 284512.000
   18     4     1      0.1090 284512.000
   19     4     1      0.1090 284512.000
   20     9     1      0.1088 284512.000
   21    10     1      0.1088 284512.000
   22    10     1      0.1088 284512.000
   23    11     1      0.1088 284512.000
   24    11     1      0.1088 284512.000
   11    10     1      0.1520 217568.000

[ angles ]
;  ai    aj    ak funct            c0            c1            c2            c3 
    1     2     3     1    112.700    488.273
    1     2     4     1    112.700    488.273
    2     4     5     1    108.600    418.400
    4     5     6     1    108.900    619.232
    4     5     7     1    108.900    619.232
    4     5     8     1    104.360    658.311
    1     2     9     1    112.700    488.273
    2     9    10     1    117.200    313.800
    2     9    11     1    117.200    313.800
    2     1    12     1    110.700    313.800
    2     1    13     1    110.700    313.800
    2     1    14     1    110.700    313.800
    2     3    15     1    110.700    313.800
    2     3    16     1    110.700    313.800
    2     3    17     1    110.700    313.800
    2     4    18     1    110.700    313.800
    2     4    19     1    110.700    313.800
    2     9    20     1    114.300    292.880
    9    10    21     1    117.200    313.800
    9    10    22     1    117.200    313.800
    9    11    23     1    117.200    313.800
    9    11    24     1    117.200    313.800
    4     2     9     1    112.700    488.273
   13     1    14     1    107.800    276.144
   11     9    20     1    117.200    313.800
   12     1    14     1    107.800    276.144
   11    10    21     1    117.200    313.800
   23    11    24     1    114.300    292.880
   15     3    16     1    107.800    276.144
    9    11    10     1     83.000    251.040
   10    11    23     1    117.200    313.800
    6     5     7     1    119.000    870.272
   12     1    13     1    107.800    276.144
    3     2     4     1    112.700    488.273
    5     4    19     1    109.500    292.880
   10    11    24     1    117.200    313.800
   11    10    22     1    117.200    313.800
    6     5     8     1    104.360    658.311
   15     3    17     1    107.800    276.144
   21    10    22     1    114.300    292.880
   10     9    11     1     83.000    251.040
    3     2     9     1    112.700    488.273
    7     5     8     1    104.360    658.311
    9    10    11     1     83.000    251.040
   16     3    17     1    107.800    276.144
    5     4    18     1    109.500    292.880
   18     4    19     1    107.800    276.144
   10     9    20     1    117.200    313.800

[ dihedrals ]
; IMPROPER DIHEDRAL ANGLES 
;  ai    aj    ak    al funct            c0            c1            c2            c3            c4            c5

[ dihedrals ]
; PROPER DIHEDRAL ANGLES
;  ai    aj    ak    al funct            c0            c1            c2            c3            c4            c5
    9    2    4    5        3       2.784   0.278   0.828  -3.891  -0.000   0.000
   10    9    2    4        3       0.000   0.000   0.000  -0.000  -0.000   0.000
   11    9    2    1        3       0.000   0.000   0.000  -0.000  -0.000   0.000
   10    9    2    1        3       0.000   0.000   0.000  -0.000  -0.000   0.000
   10    9    2    3        3       0.000   0.000   0.000  -0.000  -0.000   0.000
   11    9    2    4        3       0.000   0.000   0.000  -0.000  -0.000   0.000
   11    9    2    3        3       0.000   0.000   0.000  -0.000  -0.000   0.000
   11    9    2   10        3       0.000   0.000   0.000  -0.000  -0.000   0.000
    8    5    4    2        3       0.000   0.000   0.000  -0.000  -0.000   0.000
   13    1    2    3        3       0.628   1.883   0.000  -2.510  -0.000   0.000
   14    1    2    3        3       0.628   1.883   0.000  -2.510  -0.000   0.000
   18    4    2    3        3       0.628   1.883   0.000  -2.510  -0.000   0.000
   15    3    2    4        3       0.628   1.883   0.000  -2.510  -0.000   0.000
   18    4    2    1        3       0.628   1.883   0.000  -2.510  -0.000   0.000
   19    4    2    3        3       0.628   1.883   0.000  -2.510  -0.000   0.000
   13    1    2    4        3       0.628   1.883   0.000  -2.510  -0.000   0.000
   12    1    2    4        3       0.628   1.883   0.000  -2.510  -0.000   0.000
   16    3    2    1        3       0.628   1.883   0.000  -2.510  -0.000   0.000
   17    3    2    1        3       0.628   1.883   0.000  -2.510  -0.000   0.000
   16    3    2    4        3       0.628   1.883   0.000  -2.510  -0.000   0.000
   12    1    2    3        3       0.628   1.883   0.000  -2.510  -0.000   0.000
   19    4    2    1        3       0.628   1.883   0.000  -2.510  -0.000   0.000
   14    1    2    4        3       0.628   1.883   0.000  -2.510  -0.000   0.000
   15    3    2    1        3       0.628   1.883   0.000  -2.510  -0.000   0.000
   17    3    2    4        3       0.628   1.883   0.000  -2.510  -0.000   0.000
   12    1    2    9        3       0.628   1.883   0.000  -2.510  -0.000   0.000
   18    4    2    9        3       0.628   1.883   0.000  -2.510  -0.000   0.000
   17    3    2    9        3       0.628   1.883   0.000  -2.510  -0.000   0.000
   19    4    2    9        3       0.628   1.883   0.000  -2.510  -0.000   0.000
   13    1    2    9        3       0.628   1.883   0.000  -2.510  -0.000   0.000
   15    3    2    9        3       0.628   1.883   0.000  -2.510  -0.000   0.000
   14    1    2    9        3       0.628   1.883   0.000  -2.510  -0.000   0.000
   16    3    2    9        3       0.628   1.883   0.000  -2.510  -0.000   0.000
   19    4    5    8        3       0.732   2.197   0.000  -2.929  -0.000   0.000
   18    4    5    8        3       0.732   2.197   0.000  -2.929  -0.000   0.000
   18    4    5    7        3       0.732   2.197   0.000  -2.929  -0.000   0.000
   19    4    5    6        3       0.732   2.197   0.000  -2.929  -0.000   0.000
   19    4    5    7        3       0.732   2.197   0.000  -2.929  -0.000   0.000
   18    4    5    6        3       0.732   2.197   0.000  -2.929  -0.000   0.000
   20    9    2    1        3       0.628   1.883   0.000  -2.510  -0.000   0.000
   20    9    2    3        3       0.628   1.883   0.000  -2.510  -0.000   0.000
   20    9    2    4        3       0.628   1.883   0.000  -2.510  -0.000   0.000
   22   10    9    2        3       0.000   0.000   0.000  -0.000  -0.000   0.000
   24   11    9    2        3       0.000   0.000   0.000  -0.000  -0.000   0.000
   21   10    9    2        3       0.000   0.000   0.000  -0.000  -0.000   0.000
   23   11    9    2        3       0.000   0.000   0.000  -0.000  -0.000   0.000
   21   10    9   11        3       0.000   0.000   0.000  -0.000  -0.000   0.000
   22   10    9   11        3       0.000   0.000   0.000  -0.000  -0.000   0.000
   23   11    9   10        3       0.000   0.000   0.000  -0.000  -0.000   0.000
   24   11    9   10        3       0.000   0.000   0.000  -0.000  -0.000   0.000
   20    9   11   10        3       0.000   0.000   0.000  -0.000  -0.000   0.000
   23   11   10    9        3       0.000   0.000   0.000  -0.000  -0.000   0.000
   21   10   11    9        3       0.000   0.000   0.000  -0.000  -0.000   0.000
   22   10   11    9        3       0.000   0.000   0.000  -0.000  -0.000   0.000
   24   11   10    9        3       0.000   0.000   0.000  -0.000  -0.000   0.000
   20    9   10   11        3       0.000   0.000   0.000  -0.000  -0.000   0.000
   21   10    9   20        3       0.000   0.000   0.000  -0.000  -0.000   0.000
   24   11   10   22        3       0.000   0.000   0.000  -0.000  -0.000   0.000
   23   11    9   20        3       0.000   0.000   0.000  -0.000  -0.000   0.000
   24   11   10   21        3       0.000   0.000   0.000  -0.000  -0.000   0.000
   24   11    9   20        3       0.000   0.000   0.000  -0.000  -0.000   0.000
   23   11   10   21        3       0.000   0.000   0.000  -0.000  -0.000   0.000
   23   11   10   22        3       0.000   0.000   0.000  -0.000  -0.000   0.000
   22   10    9   20        3       0.000   0.000   0.000  -0.000  -0.000   0.000
    7    5    4    2        3       0.000   0.000   0.000  -0.000  -0.000   0.000
    6    5    4    2        3       0.000   0.000   0.000  -0.000  -0.000   0.000
    5    4    2    3        3       2.784   0.278   0.828  -3.891  -0.000   0.000
    5    4    2    1        3       2.784   0.278   0.828  -3.891  -0.000   0.000

[ pairs ]
     1     5    1
     3     5    1
     2     6    1
     2     7    1
     2     8    1
     1    10    1
     1    11    1
     3    10    1
     5     9    1
     4    10    1
     3    11    1
     4    11    1
     3    12    1
     4    12    1
     3    13    1
     1    15    1
     4    13    1
     3    14    1
     1    16    1
     4    14    1
     1    17    1
     4    15    1
     1    18    1
     4    16    1
     1    19    1
     9    12    1
     4    17    1
     3    18    1
     1    20    1
     9    13    1
     3    19    1
     9    14    1
     3    20    1
     2    21    1
     9    15    1
     6    18    1
     4    20    1
     2    22    1
     9    16    1
     7    18    1
     6    19    1
     2    23    1
     9    17    1
     8    18    1
     7    19    1
     2    24    1
     9    18    1
     8    19    1
     9    19    1
    20    21    1
    20    22    1
    20    23    1
    21    23    1
    20    24    1
    22    23    1
    21    24    1
    22    24    1

