LIGPARGEN GENERATED GRO FILE
   32
    1UNK    C00    1   0.100   0.100   0.000
    1UNK    C01    2  -0.052   0.100   0.000
    1UNK    O02    3  -0.097   0.100   0.136
    1UNK    C03    4  -0.106  -0.024   0.194
    1UNK    O04    5  -0.111  -0.129   0.131
    1UNK    C05    6  -0.083  -0.011   0.344
    1UNK    C06    7  -0.182   0.084   0.413
    1UNK    C07    8  -0.327   0.040   0.409
    1UNK    C08    9  -0.425   0.126   0.485
    1UNK    O09   10  -0.366  -0.056   0.343
    1UNK    C0A   11  -0.069  -0.144   0.415
    1UNK    C0B   12   0.042  -0.240   0.378
    1UNK    C0C   13   0.047  -0.166   0.509
    1UNK    C0D   14   0.026  -0.240   0.637
    1UNK    H0E   15   0.140   0.107  -0.101
    1UNK    H0F   16   0.139   0.009   0.047
    1UNK    H0G   17   0.138   0.184   0.059
    1UNK    H0H   18  -0.092   0.015  -0.057
    1UNK    H0I   19  -0.089   0.191  -0.047
    1UNK    H0J   20   0.016   0.038   0.350
    1UNK    H0K   21  -0.177   0.183   0.367
    1UNK    H0M   22  -0.154   0.093   0.518
    1UNK    H0N   23  -0.373   0.202   0.543
    1UNK    H0O   24  -0.483   0.063   0.553
    1UNK    H0P   25  -0.492   0.176   0.414
    1UNK    H0Q   26  -0.165  -0.190   0.435
    1UNK    H0R   27   0.111  -0.211   0.300
    1UNK    H0S   28   0.018  -0.345   0.377
    1UNK    H0T   29   0.122  -0.089   0.519
    1UNK    H0U   30  -0.047  -0.320   0.627
    1UNK    H0V   31  -0.010  -0.170   0.714
    1UNK    H0W   32   0.121  -0.283   0.671
   1.00000   1.00000   1.00000

