LIGPARGEN GENERATED GRO FILE
   33
    1UNK    C00    1   0.100   0.100   0.000
    1UNK    C01    2  -0.053   0.100   0.000
    1UNK    C02    3  -0.111   0.100   0.148
    1UNK    C03    4  -0.263   0.064   0.170
    1UNK    C04    5  -0.306  -0.089   0.170
    1UNK    C05    6  -0.283  -0.150   0.031
    1UNK    C06    7  -0.255  -0.292  -0.033
    1UNK    C07    8  -0.110  -0.256  -0.048
    1UNK    C08    9  -0.042  -0.228  -0.181
    1UNK    C09   10  -0.061  -0.076  -0.211
    1UNK    C0A   11  -0.114  -0.013  -0.083
    1UNK    C0B   12  -0.138  -0.127   0.009
    1UNK    C0C   13  -0.032  -0.212   0.074
    1UNK    H0D   14   0.139   0.187   0.054
    1UNK    H0E   15   0.139   0.105  -0.102
    1UNK    H0F   16   0.142   0.011   0.047
    1UNK    H0G   17  -0.083   0.195  -0.047
    1UNK    H0H   18  -0.096   0.202   0.187
    1UNK    H0I   19  -0.050   0.035   0.212
    1UNK    H0J   20  -0.323   0.119   0.096
    1UNK    H0K   21  -0.290   0.103   0.269
    1UNK    H0M   22  -0.412  -0.095   0.196
    1UNK    H0N   23  -0.250  -0.142   0.248
    1UNK    H0O   24  -0.354  -0.098  -0.035
    1UNK    H0P   25  -0.306  -0.308  -0.129
    1UNK    H0Q   26  -0.275  -0.377   0.033
    1UNK    H0R   27  -0.079  -0.291  -0.262
    1UNK    H0S   28   0.066  -0.247  -0.171
    1UNK    H0T   29  -0.139  -0.069  -0.288
    1UNK    H0U   30   0.028  -0.029  -0.252
    1UNK    H0V   31  -0.211   0.031  -0.114
    1UNK    H0W   32  -0.056  -0.262   0.168
    1UNK    H0X   33   0.072  -0.189   0.063
   1.00000   1.00000   1.00000

