LIGPARGEN GENERATED GRO FILE
   47
    1UNK    C00    1   0.100   0.100   0.000
    1UNK    C01    2  -0.054   0.100   0.000
    1UNK    C02    3  -0.099   0.100   0.147
    1UNK    N03    4  -0.111   0.213  -0.080
    1UNK    C04    5  -0.069   0.206  -0.220
    1UNK    C05    6  -0.259   0.210  -0.070
    1UNK    C06    7  -0.341   0.313  -0.149
    1UNK    C07    8  -0.498   0.313  -0.127
    1UNK    C08    9  -0.550   0.434  -0.212
    1UNK    N09   10  -0.567   0.191  -0.184
    1UNK    C0A   11  -0.537   0.159  -0.324
    1UNK    C0B   12  -0.564   0.068  -0.105
    1UNK    C0C   13  -0.538   0.344   0.026
    1UNK    C0D   14  -0.481   0.478   0.079
    1UNK    C0E   15  -0.687   0.339   0.054
    1UNK    O0F   16  -0.694   0.300   0.190
    1UNK    C0G   17  -0.579   0.230   0.217
    1UNK    O0H   18  -0.559   0.166   0.318
    1UNK    O0I   19  -0.491   0.242   0.115
    1UNK    H0J   20   0.138   0.021   0.066
    1UNK    H0K   21   0.140   0.196   0.035
    1UNK    H0M   22   0.141   0.079  -0.099
    1UNK    H0N   23  -0.087   0.005  -0.044
    1UNK    H0O   24  -0.081   0.197   0.195
    1UNK    H0P   25  -0.045   0.024   0.205
    1UNK    H0Q   26  -0.205   0.076   0.158
    1UNK    H0R   27   0.039   0.211  -0.230
    1UNK    H0S   28  -0.106   0.292  -0.277
    1UNK    H0T   29  -0.105   0.114  -0.269
    1UNK    H0U   30  -0.283   0.227   0.035
    1UNK    H0V   31  -0.291   0.110  -0.099
    1UNK    H0W   32  -0.321   0.301  -0.256
    1UNK    H0X   33  -0.301   0.413  -0.125
    1UNK    H0Y   34  -0.520   0.427  -0.317
    1UNK    H0Z   35  -0.508   0.529  -0.178
    1UNK    H10   36  -0.659   0.442  -0.209
    1UNK    H11   37  -0.561   0.242  -0.391
    1UNK    H12   38  -0.601   0.077  -0.359
    1UNK    H13   39  -0.433   0.129  -0.339
    1UNK    H14   40  -0.625   0.076  -0.015
    1UNK    H15   41  -0.464   0.034  -0.076
    1UNK    H16   42  -0.609  -0.016  -0.160
    1UNK    H17   43  -0.525   0.564   0.028
    1UNK    H18   44  -0.372   0.482   0.069
    1UNK    H19   45  -0.501   0.490   0.186
    1UNK    H1A   46  -0.743   0.265  -0.004
    1UNK    H1B   47  -0.736   0.436   0.041
   1.00000   1.00000   1.00000

