LIGPARGEN GENERATED GRO FILE
   30
    1UNK    C00    1   0.100   0.100   0.000
    1UNK    C01    2  -0.054   0.100   0.000
    1UNK    C02    3  -0.100   0.100   0.146
    1UNK    C03    4  -0.111   0.220  -0.084
    1UNK    C04    5  -0.076   0.207  -0.234
    1UNK    C05    6  -0.153   0.095  -0.304
    1UNK    C06    7  -0.305   0.101  -0.283
    1UNK    Cl0    8  -0.379   0.221  -0.395
    1UNK    C08    9  -0.344   0.130  -0.138
    1UNK    C09   10  -0.264   0.240  -0.068
    1UNK    C0A   11  -0.307   0.381  -0.112
    1UNK    H0B   12   0.139   0.018   0.062
    1UNK    H0C   13   0.139   0.194   0.041
    1UNK    H0D   14   0.141   0.086  -0.100
    1UNK    H0E   15  -0.087   0.005  -0.044
    1UNK    H0F   16  -0.076   0.195   0.196
    1UNK    H0G   17  -0.051   0.020   0.202
    1UNK    H0H   18  -0.207   0.082   0.155
    1UNK    H0I   19  -0.061   0.310  -0.046
    1UNK    H0J   20   0.031   0.191  -0.248
    1UNK    H0K   21  -0.098   0.302  -0.285
    1UNK    H0M   22  -0.117  -0.001  -0.267
    1UNK    H0N   23  -0.130   0.097  -0.411
    1UNK    H0O   24  -0.348   0.005  -0.313
    1UNK    H0P   25  -0.327   0.037  -0.081
    1UNK    H0Q   26  -0.451   0.150  -0.130
    1UNK    H0R   27  -0.290   0.237   0.038
    1UNK    H0S   28  -0.278   0.405  -0.215
    1UNK    H0T   29  -0.260   0.456  -0.048
    1UNK    H0U   30  -0.415   0.393  -0.103
   1.00000   1.00000   1.00000

