
;
; GENERATED BY LigParGen Server
; Jorgensen Lab @ Yale University 
;
[ atomtypes ]
  opls_818  H818     1.0080     0.000    A    2.50000E-01   1.25520E-01
  opls_824  H824     1.0080     0.000    A    2.50000E-01   1.25520E-01
  opls_805  C805    12.0110     0.000    A    3.50000E-01   2.76144E-01
  opls_828  H828     1.0080     0.000    A    2.50000E-01   1.25520E-01
  opls_813  H813     1.0080     0.000    A    2.50000E-01   1.25520E-01
  opls_802  C802    12.0110     0.000    A    3.50000E-01   2.76144E-01
  opls_815  H815     1.0080     0.000    A    2.50000E-01   1.25520E-01
  opls_809  C809    12.0110     0.000    A    3.50000E-01   2.76144E-01
  opls_822  H822     1.0080     0.000    A    2.50000E-01   1.25520E-01
  opls_803  C803    12.0110     0.000    A    3.50000E-01   2.76144E-01
  opls_807 Cl807    35.4500     0.000    A    3.40000E-01   1.25520E+00
  opls_825  H825     1.0080     0.000    A    2.50000E-01   1.25520E-01
  opls_814  H814     1.0080     0.000    A    2.50000E-01   1.25520E-01
  opls_810  C810    12.0110     0.000    A    3.50000E-01   2.76144E-01
  opls_820  H820     1.0080     0.000    A    2.50000E-01   1.25520E-01
  opls_811  H811     1.0080     0.000    A    2.50000E-01   1.25520E-01
  opls_821  H821     1.0080     0.000    A    2.50000E-01   1.25520E-01
  opls_816  H816     1.0080     0.000    A    2.50000E-01   1.25520E-01
  opls_800  C800    12.0110     0.000    A    3.50000E-01   2.76144E-01
  opls_806  C806    12.0110     0.000    A    3.50000E-01   2.76144E-01
  opls_823  H823     1.0080     0.000    A    2.50000E-01   1.25520E-01
  opls_826  H826     1.0080     0.000    A    2.50000E-01   1.25520E-01
  opls_819  H819     1.0080     0.000    A    2.50000E-01   1.25520E-01
  opls_804  C804    12.0110     0.000    A    3.50000E-01   2.76144E-01
  opls_827  H827     1.0080     0.000    A    2.50000E-01   1.25520E-01
  opls_801  C801    12.0110     0.000    A    3.50000E-01   2.76144E-01
  opls_808  C808    12.0110     0.000    A    3.50000E-01   2.76144E-01
  opls_817  H817     1.0080     0.000    A    2.50000E-01   1.25520E-01
  opls_812  H812     1.0080     0.000    A    2.50000E-01   1.25520E-01
  opls_829  H829     1.0080     0.000    A    2.50000E-01   1.25520E-01
[ moleculetype ]
; Name               nrexcl
UNK                   3
[ atoms ]
;   nr       type  resnr residue  atom   cgnr     charge       mass  
     1   opls_800      1    UNK   C00      1    -0.2373    12.0110 
     2   opls_801      1    UNK   C01      1    -0.1125    12.0110 
     3   opls_802      1    UNK   C02      1    -0.2362    12.0110 
     4   opls_803      1    UNK   C03      1    -0.0979    12.0110 
     5   opls_804      1    UNK   C04      1    -0.1717    12.0110 
     6   opls_805      1    UNK   C05      1    -0.1794    12.0110 
     7   opls_806      1    UNK   C06      1     0.0967    12.0110 
     8   opls_807      1    UNK   Cl0      1    -0.3038    35.4500 
     9   opls_808      1    UNK   C08      1    -0.1723    12.0110 
    10   opls_809      1    UNK   C09      1    -0.1053    12.0110 
    11   opls_810      1    UNK   C0A      1    -0.2371    12.0110 
    12   opls_811      1    UNK   H0B      1     0.0814     1.0080 
    13   opls_812      1    UNK   H0C      1     0.0814     1.0080 
    14   opls_813      1    UNK   H0D      1     0.0814     1.0080 
    15   opls_814      1    UNK   H0E      1     0.0943     1.0080 
    16   opls_815      1    UNK   H0F      1     0.0816     1.0080 
    17   opls_816      1    UNK   H0G      1     0.0816     1.0080 
    18   opls_817      1    UNK   H0H      1     0.0816     1.0080 
    19   opls_818      1    UNK   H0I      1     0.1005     1.0080 
    20   opls_819      1    UNK   H0J      1     0.0966     1.0080 
    21   opls_820      1    UNK   H0K      1     0.0966     1.0080 
    22   opls_821      1    UNK   H0M      1     0.1017     1.0080 
    23   opls_822      1    UNK   H0N      1     0.1017     1.0080 
    24   opls_823      1    UNK   H0O      1     0.1174     1.0080 
    25   opls_824      1    UNK   H0P      1     0.1015     1.0080 
    26   opls_825      1    UNK   H0Q      1     0.1015     1.0080 
    27   opls_826      1    UNK   H0R      1     0.0984     1.0080 
    28   opls_827      1    UNK   H0S      1     0.0858     1.0080 
    29   opls_828      1    UNK   H0T      1     0.0858     1.0080 
    30   opls_829      1    UNK   H0U      1     0.0858     1.0080 
[ bonds ]
    2     1     1      0.1529 224262.400
    3     2     1      0.1529 224262.400
    4     2     1      0.1529 224262.400
    5     4     1      0.1529 224262.400
    6     5     1      0.1529 224262.400
    7     6     1      0.1529 224262.400
    8     7     1      0.1781 205016.000
    9     7     1      0.1529 224262.400
   10     4     1      0.1529 224262.400
   11    10     1      0.1529 224262.400
   12     1     1      0.1090 284512.000
   13     1     1      0.1090 284512.000
   14     1     1      0.1090 284512.000
   15     2     1      0.1090 284512.000
   16     3     1      0.1090 284512.000
   17     3     1      0.1090 284512.000
   18     3     1      0.1090 284512.000
   19     4     1      0.1090 284512.000
   20     5     1      0.1090 284512.000
   21     5     1      0.1090 284512.000
   22     6     1      0.1090 284512.000
   23     6     1      0.1090 284512.000
   24     7     1      0.1090 284512.000
   25     9     1      0.1090 284512.000
   26     9     1      0.1090 284512.000
   27    10     1      0.1090 284512.000
   28    11     1      0.1090 284512.000
   29    11     1      0.1090 284512.000
   30    11     1      0.1090 284512.000
   10     9     1      0.1529 224262.400

[ angles ]
;  ai    aj    ak funct            c0            c1            c2            c3 
    1     2     3     1    112.700    488.273
    1     2     4     1    112.700    488.273
    2     4     5     1    112.700    488.273
    4     5     6     1    112.700    488.273
    5     6     7     1    112.700    488.273
    6     7     8     1    109.800    577.392
    6     7     9     1    112.700    488.273
    2     4    10     1    112.700    488.273
    4    10    11     1    112.700    488.273
    2     1    12     1    110.700    313.800
    2     1    13     1    110.700    313.800
    2     1    14     1    110.700    313.800
    1     2    15     1    110.700    313.800
    2     3    16     1    110.700    313.800
    2     3    17     1    110.700    313.800
    2     3    18     1    110.700    313.800
    2     4    19     1    110.700    313.800
    4     5    20     1    110.700    313.800
    4     5    21     1    110.700    313.800
    5     6    22     1    110.700    313.800
    5     6    23     1    110.700    313.800
    6     7    24     1    110.700    313.800
    7     9    25     1    110.700    313.800
    7     9    26     1    110.700    313.800
    4    10    27     1    110.700    313.800
   10    11    28     1    110.700    313.800
   10    11    29     1    110.700    313.800
   10    11    30     1    110.700    313.800
   25     9    26     1    107.800    276.144
   11    10    27     1    110.700    313.800
   16     3    17     1    107.800    276.144
    3     2    15     1    110.700    313.800
   13     1    14     1    107.800    276.144
    9     7    24     1    110.700    313.800
    9    10    27     1    110.700    313.800
   12     1    13     1    107.800    276.144
   28    11    29     1    107.800    276.144
   28    11    30     1    107.800    276.144
    8     7     9     1    109.800    577.392
    7     6    23     1    110.700    313.800
   12     1    14     1    107.800    276.144
    4    10     9     1    112.700    488.273
   16     3    18     1    107.800    276.144
    6     5    20     1    110.700    313.800
   10     4    19     1    110.700    313.800
    4     2    15     1    110.700    313.800
    3     2     4     1    112.700    488.273
    5     4    19     1    110.700    313.800
   10     9    25     1    110.700    313.800
   29    11    30     1    107.800    276.144
    6     5    21     1    110.700    313.800
   10     9    26     1    110.700    313.800
    9    10    11     1    112.700    488.273
   17     3    18     1    107.800    276.144
    8     7    24     1    107.600    426.768
    7     9    10     1    112.700    488.273
    5     4    10     1    112.700    488.273
   20     5    21     1    107.800    276.144
   22     6    23     1    107.800    276.144
    7     6    22     1    110.700    313.800

[ dihedrals ]
; IMPROPER DIHEDRAL ANGLES 
;  ai    aj    ak    al funct            c0            c1            c2            c3            c4            c5

[ dihedrals ]
; PROPER DIHEDRAL ANGLES
;  ai    aj    ak    al funct            c0            c1            c2            c3            c4            c5
    5    4    2    3        3       2.301  -1.464   0.837  -1.674  -0.000   0.000
   11   10    9    7        3       2.301  -1.464   0.837  -1.674  -0.000   0.000
   11   10    4    5        3       2.301  -1.464   0.837  -1.674  -0.000   0.000
    9    7    6    5        3       2.301  -1.464   0.837  -1.674  -0.000   0.000
   10    4    2    3        3       2.301  -1.464   0.837  -1.674  -0.000   0.000
    9   10    4    2        3       2.301  -1.464   0.837  -1.674  -0.000   0.000
   10    4    2    1        3       2.301  -1.464   0.837  -1.674  -0.000   0.000
   10    9    7    6        3       2.301  -1.464   0.837  -1.674  -0.000   0.000
    7    9   10    4        3       2.301  -1.464   0.837  -1.674  -0.000   0.000
   11   10    4    2        3       2.301  -1.464   0.837  -1.674  -0.000   0.000
    9   10    4    5        3       2.301  -1.464   0.837  -1.674  -0.000   0.000
    5    4    2    1        3       2.301  -1.464   0.837  -1.674  -0.000   0.000
   10    4    5    6        3       2.301  -1.464   0.837  -1.674  -0.000   0.000
    6    5    4    2        3       2.301  -1.464   0.837  -1.674  -0.000   0.000
    7    6    5    4        3       2.301  -1.464   0.837  -1.674  -0.000   0.000
   10    9    7    8        3       0.837   2.510   0.000  -3.347  -0.000   0.000
    8    7    6    5        3       0.837   2.510   0.000  -3.347  -0.000   0.000
   18    3    2    1        3       0.628   1.883   0.000  -2.510  -0.000   0.000
   21    5    6    7        3       0.628   1.883   0.000  -2.510  -0.000   0.000
   23    6    7    9        3       0.628   1.883   0.000  -2.510  -0.000   0.000
   27   10    4    5        3       0.628   1.883   0.000  -2.510  -0.000   0.000
   20    5    6    7        3       0.628   1.883   0.000  -2.510  -0.000   0.000
   25    9   10   11        3       0.628   1.883   0.000  -2.510  -0.000   0.000
   21    5    4   10        3       0.628   1.883   0.000  -2.510  -0.000   0.000
   26    9   10   11        3       0.628   1.883   0.000  -2.510  -0.000   0.000
   19    4    5    6        3       0.628   1.883   0.000  -2.510  -0.000   0.000
   15    2    4   10        3       0.628   1.883   0.000  -2.510  -0.000   0.000
   14    1    2    3        3       0.628   1.883   0.000  -2.510  -0.000   0.000
   13    1    2    4        3       0.628   1.883   0.000  -2.510  -0.000   0.000
   17    3    2    1        3       0.628   1.883   0.000  -2.510  -0.000   0.000
   18    3    2    4        3       0.628   1.883   0.000  -2.510  -0.000   0.000
   25    9    7    6        3       0.628   1.883   0.000  -2.510  -0.000   0.000
   21    5    4    2        3       0.628   1.883   0.000  -2.510  -0.000   0.000
   26    9    7    6        3       0.628   1.883   0.000  -2.510  -0.000   0.000
   30   11   10    4        3       0.628   1.883   0.000  -2.510  -0.000   0.000
   26    9   10    4        3       0.628   1.883   0.000  -2.510  -0.000   0.000
   20    5    4   10        3       0.628   1.883   0.000  -2.510  -0.000   0.000
   14    1    2    4        3       0.628   1.883   0.000  -2.510  -0.000   0.000
   29   11   10    4        3       0.628   1.883   0.000  -2.510  -0.000   0.000
   19    4   10    9        3       0.628   1.883   0.000  -2.510  -0.000   0.000
   27   10    9    7        3       0.628   1.883   0.000  -2.510  -0.000   0.000
   24    7    6    5        3       0.628   1.883   0.000  -2.510  -0.000   0.000
   19    4    2    3        3       0.628   1.883   0.000  -2.510  -0.000   0.000
   28   11   10    9        3       0.628   1.883   0.000  -2.510  -0.000   0.000
   20    5    4    2        3       0.628   1.883   0.000  -2.510  -0.000   0.000
   16    3    2    4        3       0.628   1.883   0.000  -2.510  -0.000   0.000
   24    7    9   10        3       0.628   1.883   0.000  -2.510  -0.000   0.000
   19    4   10   11        3       0.628   1.883   0.000  -2.510  -0.000   0.000
   15    2    4    5        3       0.628   1.883   0.000  -2.510  -0.000   0.000
   19    4    2    1        3       0.628   1.883   0.000  -2.510  -0.000   0.000
   17    3    2    4        3       0.628   1.883   0.000  -2.510  -0.000   0.000
   23    6    5    4        3       0.628   1.883   0.000  -2.510  -0.000   0.000
   22    6    7    9        3       0.628   1.883   0.000  -2.510  -0.000   0.000
   28   11   10    4        3       0.628   1.883   0.000  -2.510  -0.000   0.000
   16    3    2    1        3       0.628   1.883   0.000  -2.510  -0.000   0.000
   12    1    2    3        3       0.628   1.883   0.000  -2.510  -0.000   0.000
   22    6    5    4        3       0.628   1.883   0.000  -2.510  -0.000   0.000
   29   11   10    9        3       0.628   1.883   0.000  -2.510  -0.000   0.000
   27   10    4    2        3       0.628   1.883   0.000  -2.510  -0.000   0.000
   13    1    2    3        3       0.628   1.883   0.000  -2.510  -0.000   0.000
   25    9   10    4        3       0.628   1.883   0.000  -2.510  -0.000   0.000
   30   11   10    9        3       0.628   1.883   0.000  -2.510  -0.000   0.000
   12    1    2    4        3       0.628   1.883   0.000  -2.510  -0.000   0.000
   26    9    7    8        3       0.837   2.510   0.000  -3.347  -0.000   0.000
   25    9    7    8        3       0.837   2.510   0.000  -3.347  -0.000   0.000
   23    6    7    8        3       0.837   2.510   0.000  -3.347  -0.000   0.000
   22    6    7    8        3       0.837   2.510   0.000  -3.347  -0.000   0.000
   25    9    7   24        3       0.628   1.883   0.000  -2.510  -0.000   0.000
   16    3    2   15        3       0.628   1.883   0.000  -2.510  -0.000   0.000
   15    2    1   12        3       0.628   1.883   0.000  -2.510  -0.000   0.000
   15    2    1   14        3       0.628   1.883   0.000  -2.510  -0.000   0.000
   18    3    2   15        3       0.628   1.883   0.000  -2.510  -0.000   0.000
   22    6    5   20        3       0.628   1.883   0.000  -2.510  -0.000   0.000
   20    5    4   19        3       0.628   1.883   0.000  -2.510  -0.000   0.000
   23    6    5   20        3       0.628   1.883   0.000  -2.510  -0.000   0.000
   30   11   10   27        3       0.628   1.883   0.000  -2.510  -0.000   0.000
   21    5    4   19        3       0.628   1.883   0.000  -2.510  -0.000   0.000
   27   10    4   19        3       0.628   1.883   0.000  -2.510  -0.000   0.000
   15    2    1   13        3       0.628   1.883   0.000  -2.510  -0.000   0.000
   23    6    5   21        3       0.628   1.883   0.000  -2.510  -0.000   0.000
   24    7    6   23        3       0.628   1.883   0.000  -2.510  -0.000   0.000
   28   11   10   27        3       0.628   1.883   0.000  -2.510  -0.000   0.000
   17    3    2   15        3       0.628   1.883   0.000  -2.510  -0.000   0.000
   19    4    2   15        3       0.628   1.883   0.000  -2.510  -0.000   0.000
   27   10    9   25        3       0.628   1.883   0.000  -2.510  -0.000   0.000
   24    7    6   22        3       0.628   1.883   0.000  -2.510  -0.000   0.000
   26    9    7   24        3       0.628   1.883   0.000  -2.510  -0.000   0.000
   29   11   10   27        3       0.628   1.883   0.000  -2.510  -0.000   0.000
   22    6    5   21        3       0.628   1.883   0.000  -2.510  -0.000   0.000
   27   10    9   26        3       0.628   1.883   0.000  -2.510  -0.000   0.000

[ pairs ]
     1     5    1
     3     5    1
     2     6    1
     4     7    1
     2     9    1
     1    10    1
     5     8    1
     3    10    1
     2    11    1
     5     9    1
     3    12    1
     6    10    1
     5    11    1
     4    12    1
     3    13    1
     4    13    1
     3    14    1
     1    16    1
     8    10    1
     7    11    1
     4    14    1
     1    17    1
     1    18    1
     5    15    1
     4    16    1
     1    19    1
     4    17    1
     4    18    1
     3    19    1
     2    20    1
     2    21    1
    10    15    1
     6    19    1
     4    22    1
    12    15    1
     7    20    1
     4    23    1
    13    15    1
     9    19    1
     7    21    1
    14    15    1
     5    24    1
     4    25    1
     2    27    1
    11    19    1
    10    20    1
     8    22    1
     4    26    1
    15    16    1
    10    21    1
     9    22    1
     8    23    1
     6    25    1
    15    17    1
     9    23    1
     6    26    1
     5    27    1
     4    28    1
    15    18    1
     8    25    1
     4    29    1
    15    19    1
    10    24    1
     8    26    1
     7    27    1
     4    30    1
    11    25    1
    11    26    1
     9    28    1
     9    29    1
    19    20    1
     9    30    1
    19    21    1
    20    22    1
    21    22    1
    20    23    1
    21    23    1
    22    24    1
    19    27    1
    23    24    1
    24    25    1
    24    26    1
    25    27    1
    26    27    1
    27    28    1
    27    29    1
    27    30    1

