LIGPARGEN GENERATED GRO FILE
   32
    1UNK    C00    1   0.100   0.100   0.000
    1UNK    C01    2  -0.052   0.100   0.000
    1UNK    Cl0    3  -0.110   0.100   0.170
    1UNK    C03    4  -0.113   0.221  -0.072
    1UNK    C04    5  -0.078   0.234  -0.222
    1UNK    C05    6  -0.123   0.110  -0.301
    1UNK    C06    7  -0.144   0.359  -0.285
    1UNK    C07    8  -0.101   0.496  -0.227
    1UNK    C08    9   0.051   0.516  -0.237
    1UNK    C09   10  -0.173   0.612  -0.298
    1UNK    C0A   11  -0.324   0.612  -0.279
    1UNK    F0B   12  -0.374   0.725  -0.336
    1UNK    H0C   13   0.139   0.015   0.057
    1UNK    H0D   14   0.140   0.192   0.044
    1UNK    H0E   15   0.140   0.091  -0.102
    1UNK    H0F   16  -0.089   0.007  -0.043
    1UNK    H0G   17  -0.080   0.312  -0.020
    1UNK    H0H   18  -0.222   0.218  -0.062
    1UNK    H0I   19   0.031   0.242  -0.234
    1UNK    H0J   20  -0.231   0.094  -0.291
    1UNK    H0K   21  -0.072   0.020  -0.267
    1UNK    H0M   22  -0.101   0.122  -0.408
    1UNK    H0N   23  -0.253   0.348  -0.276
    1UNK    H0O   24  -0.123   0.360  -0.393
    1UNK    H0P   25  -0.129   0.500  -0.121
    1UNK    H0Q   26   0.087   0.490  -0.337
    1UNK    H0R   27   0.103   0.453  -0.164
    1UNK    H0S   28   0.078   0.620  -0.216
    1UNK    H0T   29  -0.150   0.612  -0.405
    1UNK    H0U   30  -0.135   0.708  -0.260
    1UNK    H0V   31  -0.351   0.613  -0.173
    1UNK    H0W   32  -0.372   0.527  -0.328
   1.00000   1.00000   1.00000

