LIGPARGEN GENERATED GRO FILE
   29
    1UNK    C00    1   0.100   0.100   0.000
    1UNK    C01    2  -0.055   0.100   0.000
    1UNK    C02    3  -0.146   0.100   0.153
    1UNK    C03    4  -0.064   0.183   0.216
    1UNK    C04    5  -0.238   0.186   0.179
    1UNK    C05    6  -0.300   0.040   0.055
    1UNK    C06    7  -0.317   0.066  -0.094
    1UNK    C07    8  -0.177  -0.088   0.125
    1UNK    C08    9  -0.021  -0.005   0.212
    1UNK    C09   10  -0.117   0.017   0.319
    1UNK    C0A   11  -0.228   0.133   0.330
    1UNK    C0B   12  -0.305   0.037   0.264
    1UNK    C0C   13  -0.221  -0.084   0.271
    1UNK    H0D   14   0.136   0.117  -0.102
    1UNK    H0E   15   0.141   0.003   0.029
    1UNK    H0F   16   0.145   0.177   0.063
    1UNK    H0G   17  -0.080   0.012  -0.059
    1UNK    H0H   18  -0.086   0.192  -0.052
    1UNK    H0I   19  -0.014   0.260   0.158
    1UNK    H0J   20  -0.283   0.287   0.166
    1UNK    H0K   21  -0.401   0.001   0.082
    1UNK    H0M   22  -0.231   0.095  -0.154
    1UNK    H0N   23  -0.390   0.147  -0.107
    1UNK    H0O   24  -0.358  -0.023  -0.142
    1UNK    H0P   25  -0.171  -0.182   0.069
    1UNK    H0Q   26   0.070  -0.054   0.244
    1UNK    H0R   27  -0.268   0.176   0.421
    1UNK    H0S   28  -0.413   0.048   0.260
    1UNK    H0T   29  -0.246  -0.171   0.330
   1.00000   1.00000   1.00000

