
;
; GENERATED BY LigParGen Server
; Jorgensen Lab @ Yale University 
;
[ atomtypes ]
  opls_818  H818     1.0080     0.000    A    2.50000E-01   1.25520E-01
  opls_812  C812    12.0110     0.000    A    3.45000E-01   3.47272E-01
  opls_824  H824     1.0080     0.000    A    2.50000E-01   1.25520E-01
  opls_805  C805    12.0110     0.000    A    3.50000E-01   2.76144E-01
  opls_810  C810    12.0110     0.000    A    3.45000E-01   3.47272E-01
  opls_828  H828     1.0080     0.000    A    2.50000E-01   1.25520E-01
  opls_813  H813     1.0080     0.000    A    2.50000E-01   1.25520E-01
  opls_807  C807    12.0110     0.000    A    3.45000E-01   3.47272E-01
  opls_802  C802    12.0110     0.000    A    3.50000E-01   2.76144E-01
  opls_815  H815     1.0080     0.000    A    2.50000E-01   1.25520E-01
  opls_801  C801    12.0110     0.000    A    3.50000E-01   2.76144E-01
  opls_822  H822     1.0080     0.000    A    2.50000E-01   1.25520E-01
  opls_808  C808    12.0110     0.000    A    3.45000E-01   3.47272E-01
  opls_825  H825     1.0080     0.000    A    2.50000E-01   1.25520E-01
  opls_826  H826     1.0080     0.000    A    2.50000E-01   1.25520E-01
  opls_814  H814     1.0080     0.000    A    2.50000E-01   1.25520E-01
  opls_821  H821     1.0080     0.000    A    2.50000E-01   1.25520E-01
  opls_820  H820     1.0080     0.000    A    2.50000E-01   1.25520E-01
  opls_803  C803    12.0110     0.000    A    3.45000E-01   3.47272E-01
  opls_816  H816     1.0080     0.000    A    2.50000E-01   1.25520E-01
  opls_800  C800    12.0110     0.000    A    3.50000E-01   2.76144E-01
  opls_806  C806    12.0110     0.000    A    3.50000E-01   2.76144E-01
  opls_823  H823     1.0080     0.000    A    2.50000E-01   1.25520E-01
  opls_811  C811    12.0110     0.000    A    3.45000E-01   3.47272E-01
  opls_819  H819     1.0080     0.000    A    2.50000E-01   1.25520E-01
  opls_804  C804    12.0110     0.000    A    3.50000E-01   2.76144E-01
  opls_827  H827     1.0080     0.000    A    2.50000E-01   1.25520E-01
  opls_817  H817     1.0080     0.000    A    2.50000E-01   1.25520E-01
  opls_809  C809    12.0110     0.000    A    3.45000E-01   3.47272E-01
[ moleculetype ]
; Name               nrexcl
UNK                   3
[ atoms ]
;   nr       type  resnr residue  atom   cgnr     charge       mass  
     1   opls_800      1    UNK   C00      1    -0.2402    12.0110 
     2   opls_801      1    UNK   C01      1    -0.1944    12.0110 
     3   opls_802      1    UNK   C02      1     0.0197    12.0110 
     4   opls_803      1    UNK   C03      1    -0.4377    12.0110 
     5   opls_804      1    UNK   C04      1    -0.1197    12.0110 
     6   opls_805      1    UNK   C05      1    -0.2044    12.0110 
     7   opls_806      1    UNK   C06      1    -0.2178    12.0110 
     8   opls_807      1    UNK   C07      1    -0.1666    12.0110 
     9   opls_808      1    UNK   C08      1     0.0343    12.0110 
    10   opls_809      1    UNK   C09      1    -0.2468    12.0110 
    11   opls_810      1    UNK   C0A      1     0.0474    12.0110 
    12   opls_811      1    UNK   C0B      1    -0.0066    12.0110 
    13   opls_812      1    UNK   C0C      1       -0.2    12.0110 
    14   opls_813      1    UNK   H0D      1     0.0834     1.0080 
    15   opls_814      1    UNK   H0E      1     0.0834     1.0080 
    16   opls_815      1    UNK   H0F      1     0.0834     1.0080 
    17   opls_816      1    UNK   H0G      1     0.0824     1.0080 
    18   opls_817      1    UNK   H0H      1     0.0824     1.0080 
    19   opls_818      1    UNK   H0I      1     0.0932     1.0080 
    20   opls_819      1    UNK   H0J      1       0.23     1.0080 
    21   opls_820      1    UNK   H0K      1     0.0668     1.0080 
    22   opls_821      1    UNK   H0M      1     0.0905     1.0080 
    23   opls_822      1    UNK   H0N      1     0.0905     1.0080 
    24   opls_823      1    UNK   H0O      1     0.0905     1.0080 
    25   opls_824      1    UNK   H0P      1     0.1332     1.0080 
    26   opls_825      1    UNK   H0Q      1     0.2247     1.0080 
    27   opls_826      1    UNK   H0R      1     0.1965     1.0080 
    28   opls_827      1    UNK   H0S      1     0.1261     1.0080 
    29   opls_828      1    UNK   H0T      1     0.1759     1.0080 
[ bonds ]
    2     1     1      0.1529 224262.400
    3     2     1      0.1529 224262.400
    4     3     1      0.1510 234304.000
    5     4     1      0.1510 234304.000
    6     5     1      0.1529 224262.400
    7     6     1      0.1529 224262.400
    8     6     1      0.1510 234304.000
    9     4     1      0.1520 217568.000
   10     3     1      0.1510 234304.000
   11     5     1      0.1510 234304.000
   12     3     1      0.1510 234304.000
   13     8     1      0.1520 217568.000
   14     1     1      0.1090 284512.000
   15     1     1      0.1090 284512.000
   16     1     1      0.1090 284512.000
   17     2     1      0.1090 284512.000
   18     2     1      0.1090 284512.000
   19     4     1      0.1088 284512.000
   20     5     1      0.1090 284512.000
   21     6     1      0.1090 284512.000
   22     7     1      0.1090 284512.000
   23     7     1      0.1090 284512.000
   24     7     1      0.1090 284512.000
   25     8     1      0.1088 284512.000
   26     9     1      0.1088 284512.000
   27    11     1      0.1088 284512.000
   28    12     1      0.1088 284512.000
   29    13     1      0.1088 284512.000
    9     8     1      0.1520 217568.000
   10     9     1      0.1520 217568.000
   11    10     1      0.1520 217568.000
   13    10     1      0.1520 217568.000
   12    11     1      0.1520 217568.000
   13    12     1      0.1520 217568.000

[ angles ]
;  ai    aj    ak funct            c0            c1            c2            c3 
    1     2     3     1    112.700    488.273
    2     3     4     1    112.700    488.273
    3     4     5     1    114.300    292.880
    4     5     6     1    112.700    488.273
    5     6     7     1    112.700    488.273
    5     6     8     1    112.700    488.273
    3     4     9     1    117.200    313.800
    2     3    10     1    112.700    488.273
    4     5    11     1    112.700    488.273
    2     3    12     1    112.700    488.273
    6     8    13     1    117.200    313.800
    2     1    14     1    110.700    313.800
    2     1    15     1    110.700    313.800
    2     1    16     1    110.700    313.800
    1     2    17     1    110.700    313.800
    1     2    18     1    110.700    313.800
    3     4    19     1    114.300    292.880
    4     5    20     1    110.700    313.800
    5     6    21     1    110.700    313.800
    6     7    22     1    110.700    313.800
    6     7    23     1    110.700    313.800
    6     7    24     1    110.700    313.800
    6     8    25     1    114.300    292.880
    4     9    26     1    117.200    313.800
    5    11    27     1    114.300    292.880
    3    12    28     1    114.300    292.880
    8    13    29     1    117.200    313.800
   23     7    24     1    107.800    276.144
   10     3    12     1    112.700    488.273
   22     7    24     1    107.800    276.144
    5    11    10     1    117.200    313.800
    8    13    10     1     83.000    251.040
   15     1    16     1    107.800    276.144
    8     9    26     1    117.200    313.800
    5    11    12     1    117.200    313.800
    8     6    21     1    110.700    313.800
    3     2    18     1    110.700    313.800
   10    11    27     1    117.200    313.800
    3    12    13     1    117.200    313.800
    9    10    13     1     83.000    251.040
    3     2    17     1    110.700    313.800
    5     4     9     1    117.200    313.800
    4     9    10     1     83.000    251.040
   22     7    23     1    107.800    276.144
   14     1    16     1    107.800    276.144
    8    13    12     1     83.000    251.040
    6     5    11     1    112.700    488.273
    9     8    13     1     83.000    251.040
    4     3    10     1    112.700    488.273
    4     9     8     1     83.000    251.040
   12    11    27     1    117.200    313.800
    9     8    25     1    117.200    313.800
   17     2    18     1    107.800    276.144
   14     1    15     1    107.800    276.144
    6     5    20     1    110.700    313.800
   10    11    12     1     83.000    251.040
    5     4    19     1    114.300    292.880
    7     6     8     1    112.700    488.273
   12    13    29     1    117.200    313.800
    3    10     9     1    117.200    313.800
   10    13    12     1     83.000    251.040
   10     9    26     1    117.200    313.800
    4     3    12     1    112.700    488.273
   11    10    13     1     83.000    251.040
    6     8     9     1    117.200    313.800
    9    10    11     1     83.000    251.040
   11    12    28     1    117.200    313.800
   13    12    28     1    117.200    313.800
    3    10    11     1    117.200    313.800
   11     5    20     1    110.700    313.800
   13     8    25     1    117.200    313.800
   11    12    13     1     83.000    251.040
    8     9    10     1     83.000    251.040
   10    13    29     1    117.200    313.800
    3    10    13     1    117.200    313.800
    9     4    19     1    117.200    313.800
    7     6    21     1    110.700    313.800
    3    12    11     1    117.200    313.800

[ dihedrals ]
; IMPROPER DIHEDRAL ANGLES 
;  ai    aj    ak    al funct            c0            c1            c2            c3            c4            c5

[ dihedrals ]
; PROPER DIHEDRAL ANGLES
;  ai    aj    ak    al funct            c0            c1            c2            c3            c4            c5
    7    6    5    4        3       2.301  -1.464   0.837  -1.674  -0.000   0.000
    6    5    4    3        3       0.000   0.000   0.000  -0.000  -0.000   0.000
    5    4    3    2        3       0.000   0.000   0.000  -0.000  -0.000   0.000
    5   11   12    3        3       0.000   0.000   0.000  -0.000  -0.000   0.000
    5   11   10    3        3       0.000   0.000   0.000  -0.000  -0.000   0.000
    6    8    9    4        3       0.000   0.000   0.000  -0.000  -0.000   0.000
   10    3    2    1        3       2.301  -1.464   0.837  -1.674  -0.000   0.000
   12    3    2    1        3       2.301  -1.464   0.837  -1.674  -0.000   0.000
    4    3    2    1        3       2.301  -1.464   0.837  -1.674  -0.000   0.000
   11    5    6    7        3       2.301  -1.464   0.837  -1.674  -0.000   0.000
   11    5    6    8        3       2.301  -1.464   0.837  -1.674  -0.000   0.000
    8    6    5    4        3       2.301  -1.464   0.837  -1.674  -0.000   0.000
   11    5    4    3        3       0.000   0.000   0.000  -0.000  -0.000   0.000
   12    3    4    5        3       0.000   0.000   0.000  -0.000  -0.000   0.000
   10    3    4    5        3       0.000   0.000   0.000  -0.000  -0.000   0.000
   12    3   10    9        3       0.000   0.000   0.000  -0.000  -0.000   0.000
   12    3    4    9        3       0.000   0.000   0.000  -0.000  -0.000   0.000
   11    5    4    9        3       0.000   0.000   0.000  -0.000  -0.000   0.000
   11   12    3    2        3       0.000   0.000   0.000  -0.000  -0.000   0.000
   13   12    3    2        3       0.000   0.000   0.000  -0.000  -0.000   0.000
    9    4    5    6        3       0.000   0.000   0.000  -0.000  -0.000   0.000
   13    8    6    5        3       0.000   0.000   0.000  -0.000  -0.000   0.000
   10   11    5    6        3       0.000   0.000   0.000  -0.000  -0.000   0.000
    9    8    6    5        3       0.000   0.000   0.000  -0.000  -0.000   0.000
    9    8    6    7        3       0.000   0.000   0.000  -0.000  -0.000   0.000
   13    8    6    7        3       0.000   0.000   0.000  -0.000  -0.000   0.000
    9    4    3    2        3       0.000   0.000   0.000  -0.000  -0.000   0.000
   13   10    3    2        3       0.000   0.000   0.000  -0.000  -0.000   0.000
    9   10    3    2        3       0.000   0.000   0.000  -0.000  -0.000   0.000
   11   10    3    2        3       0.000   0.000   0.000  -0.000  -0.000   0.000
   12   11    5    6        3       0.000   0.000   0.000  -0.000  -0.000   0.000
   12   11    5    4        3       0.000   0.000   0.000  -0.000  -0.000   0.000
   10   11    5    4        3       0.000   0.000   0.000  -0.000  -0.000   0.000
   11   10    3    4        3       0.000   0.000   0.000  -0.000  -0.000   0.000
   11   12    3    4        3       0.000   0.000   0.000  -0.000  -0.000   0.000
   13   10    3    4        3       0.000   0.000   0.000  -0.000  -0.000   0.000
   13   12    3    4        3       0.000   0.000   0.000  -0.000  -0.000   0.000
    8    9    4    5        3       0.000   0.000   0.000  -0.000  -0.000   0.000
   13   12   11    5        3       0.000   0.000   0.000  -0.000  -0.000   0.000
   10   13    8    6        3       0.000   0.000   0.000  -0.000  -0.000   0.000
   10    9    8    6        3       0.000   0.000   0.000  -0.000  -0.000   0.000
   10    9    4    5        3       0.000   0.000   0.000  -0.000  -0.000   0.000
    8    9    4    3        3       0.000   0.000   0.000  -0.000  -0.000   0.000
   13   10   11    5        3       0.000   0.000   0.000  -0.000  -0.000   0.000
    8    9   10    3        3       0.000   0.000   0.000  -0.000  -0.000   0.000
    8   13   10    3        3       0.000   0.000   0.000  -0.000  -0.000   0.000
    9   10   11    5        3       0.000   0.000   0.000  -0.000  -0.000   0.000
    8   13   12    3        3       0.000   0.000   0.000  -0.000  -0.000   0.000
   12   13    8    6        3       0.000   0.000   0.000  -0.000  -0.000   0.000
   13    8    9    4        3       0.000   0.000   0.000  -0.000  -0.000   0.000
   12   11   10    9        3       0.000   0.000   0.000  -0.000  -0.000   0.000
   11   10    9    4        3       0.000   0.000   0.000  -0.000  -0.000   0.000
   11   10    9    8        3       0.000   0.000   0.000  -0.000  -0.000   0.000
   13   10    9    4        3       0.000   0.000   0.000  -0.000  -0.000   0.000
   12   13   10    9        3       0.000   0.000   0.000  -0.000  -0.000   0.000
   11   12   13    8        3       0.000   0.000   0.000  -0.000  -0.000   0.000
   11   10   13    8        3       0.000   0.000   0.000  -0.000  -0.000   0.000
   12   13    8    9        3       0.000   0.000   0.000  -0.000  -0.000   0.000
   23    7    6    5        3       0.628   1.883   0.000  -2.510  -0.000   0.000
   20    5    6    7        3       0.628   1.883   0.000  -2.510  -0.000   0.000
   24    7    6    5        3       0.628   1.883   0.000  -2.510  -0.000   0.000
   22    7    6    5        3       0.628   1.883   0.000  -2.510  -0.000   0.000
   15    1    2    3        3       0.628   1.883   0.000  -2.510  -0.000   0.000
   16    1    2    3        3       0.628   1.883   0.000  -2.510  -0.000   0.000
   14    1    2    3        3       0.628   1.883   0.000  -2.510  -0.000   0.000
   23    7    6    8        3       0.628   1.883   0.000  -2.510  -0.000   0.000
   17    2    3   10        3       0.628   1.883   0.000  -2.510  -0.000   0.000
   21    6    5    4        3       0.628   1.883   0.000  -2.510  -0.000   0.000
   17    2    3    4        3       0.628   1.883   0.000  -2.510  -0.000   0.000
   17    2    3   12        3       0.628   1.883   0.000  -2.510  -0.000   0.000
   20    5    6    8        3       0.628   1.883   0.000  -2.510  -0.000   0.000
   21    6    5   11        3       0.628   1.883   0.000  -2.510  -0.000   0.000
   18    2    3   12        3       0.628   1.883   0.000  -2.510  -0.000   0.000
   18    2    3    4        3       0.628   1.883   0.000  -2.510  -0.000   0.000
   24    7    6    8        3       0.628   1.883   0.000  -2.510  -0.000   0.000
   22    7    6    8        3       0.628   1.883   0.000  -2.510  -0.000   0.000
   18    2    3   10        3       0.628   1.883   0.000  -2.510  -0.000   0.000
   21    6    5   20        3       0.628   1.883   0.000  -2.510  -0.000   0.000
   23    7    6   21        3       0.628   1.883   0.000  -2.510  -0.000   0.000
   17    2    1   14        3       0.628   1.883   0.000  -2.510  -0.000   0.000
   22    7    6   21        3       0.628   1.883   0.000  -2.510  -0.000   0.000
   17    2    1   16        3       0.628   1.883   0.000  -2.510  -0.000   0.000
   24    7    6   21        3       0.628   1.883   0.000  -2.510  -0.000   0.000
   18    2    1   14        3       0.628   1.883   0.000  -2.510  -0.000   0.000
   17    2    1   15        3       0.628   1.883   0.000  -2.510  -0.000   0.000
   18    2    1   15        3       0.628   1.883   0.000  -2.510  -0.000   0.000
   18    2    1   16        3       0.628   1.883   0.000  -2.510  -0.000   0.000
   20    5    4    3        3       0.000   0.000   0.000  -0.000  -0.000   0.000
   21    6    8    9        3       0.628   1.883   0.000  -2.510  -0.000   0.000
   20    5   11   10        3       0.628   1.883   0.000  -2.510  -0.000   0.000
   20    5    4    9        3       0.628   1.883   0.000  -2.510  -0.000   0.000
   21    6    8   13        3       0.628   1.883   0.000  -2.510  -0.000   0.000
   20    5   11   12        3       0.628   1.883   0.000  -2.510  -0.000   0.000
   20    5    4   19        3       0.628   1.883   0.000  -2.510  -0.000   0.000
   19    4    3    2        3       0.628   1.883   0.000  -2.510  -0.000   0.000
   25    8    6    7        3       0.628   1.883   0.000  -2.510  -0.000   0.000
   25    8    6    5        3       0.628   1.883   0.000  -2.510  -0.000   0.000
   28   12    3    2        3       0.628   1.883   0.000  -2.510  -0.000   0.000
   27   11    5    6        3       0.628   1.883   0.000  -2.510  -0.000   0.000
   19    4    5    6        3       0.628   1.883   0.000  -2.510  -0.000   0.000
   28   12    3   10        3       0.000   0.000   0.000  -0.000  -0.000   0.000
   28   12    3    4        3       0.000   0.000   0.000  -0.000  -0.000   0.000
   19    4    5   11        3       0.000   0.000   0.000  -0.000  -0.000   0.000
   27   11    5    4        3       0.000   0.000   0.000  -0.000  -0.000   0.000
   19    4    3   10        3       0.000   0.000   0.000  -0.000  -0.000   0.000
   19    4    3   12        3       0.000   0.000   0.000  -0.000  -0.000   0.000
   27   11    5   20        3       0.628   1.883   0.000  -2.510  -0.000   0.000
   25    8    6   21        3       0.628   1.883   0.000  -2.510  -0.000   0.000
   27   11   10    3        3       0.000   0.000   0.000  -0.000  -0.000   0.000
   26    9    4    3        3       0.000   0.000   0.000  -0.000  -0.000   0.000
   26    9    8    6        3       0.000   0.000   0.000  -0.000  -0.000   0.000
   29   13   12    3        3       0.000   0.000   0.000  -0.000  -0.000   0.000
   26    9    4    5        3       0.000   0.000   0.000  -0.000  -0.000   0.000
   27   11   12    3        3       0.000   0.000   0.000  -0.000  -0.000   0.000
   29   13    8    6        3       0.000   0.000   0.000  -0.000  -0.000   0.000
   29   13   10    3        3       0.000   0.000   0.000  -0.000  -0.000   0.000
   26    9   10    3        3       0.000   0.000   0.000  -0.000  -0.000   0.000
   28   12   11    5        3       0.000   0.000   0.000  -0.000  -0.000   0.000
   28   12   11   10        3       0.000   0.000   0.000  -0.000  -0.000   0.000
   29   13    8    9        3       0.000   0.000   0.000  -0.000  -0.000   0.000
   26    9   10   13        3       0.000   0.000   0.000  -0.000  -0.000   0.000
   19    4    9    8        3       0.000   0.000   0.000  -0.000  -0.000   0.000
   19    4    9   10        3       0.000   0.000   0.000  -0.000  -0.000   0.000
   29   13   12   11        3       0.000   0.000   0.000  -0.000  -0.000   0.000
   29   13   10   11        3       0.000   0.000   0.000  -0.000  -0.000   0.000
   27   11   12   13        3       0.000   0.000   0.000  -0.000  -0.000   0.000
   28   12   13   10        3       0.000   0.000   0.000  -0.000  -0.000   0.000
   25    8    9   10        3       0.000   0.000   0.000  -0.000  -0.000   0.000
   27   11   10   13        3       0.000   0.000   0.000  -0.000  -0.000   0.000
   28   12   13    8        3       0.000   0.000   0.000  -0.000  -0.000   0.000
   25    8   13   12        3       0.000   0.000   0.000  -0.000  -0.000   0.000
   25    8    9    4        3       0.000   0.000   0.000  -0.000  -0.000   0.000
   26    9    8   13        3       0.000   0.000   0.000  -0.000  -0.000   0.000
   29   13   10    9        3       0.000   0.000   0.000  -0.000  -0.000   0.000
   25    8   13   10        3       0.000   0.000   0.000  -0.000  -0.000   0.000
   27   11   10    9        3       0.000   0.000   0.000  -0.000  -0.000   0.000
   26    9   10   11        3       0.000   0.000   0.000  -0.000  -0.000   0.000
   26    9    8   25        3       0.000   0.000   0.000  -0.000  -0.000   0.000
   29   13   12   28        3       0.000   0.000   0.000  -0.000  -0.000   0.000
   29   13    8   25        3       0.000   0.000   0.000  -0.000  -0.000   0.000
   26    9    4   19        3       0.000   0.000   0.000  -0.000  -0.000   0.000
   28   12   11   27        3       0.000   0.000   0.000  -0.000  -0.000   0.000

[ pairs ]
     1     4    1
     2     5    1
     3     6    1
     4     7    1
     3     8    1
     2     9    1
     1    10    1
     2    11    1
     1    12    1
     2    13    1
     7     9    1
     6    10    1
     4    13    1
     3    14    1
     7    11    1
     6    12    1
     5    13    1
     3    15    1
     8    11    1
     3    16    1
     7    13    1
     9    12    1
     4    17    1
     2    19    1
     4    18    1
     3    20    1
     6    19    1
     4    21    1
    10    17    1
     8    19    1
     7    20    1
     5    22    1
    10    18    1
     8    20    1
     5    23    1
    12    17    1
    10    19    1
     9    20    1
     5    24    1
     4    25    1
     3    26    1
    12    18    1
    11    19    1
    10    20    1
     9    21    1
     8    22    1
     5    25    1
     3    27    1
     2    28    1
    14    17    1
    12    19    1
     8    23    1
     5    26    1
     4    27    1
    15    17    1
    14    18    1
    12    20    1
    11    21    1
     8    24    1
     7    25    1
     6    26    1
     4    28    1
     3    29    1
    16    17    1
    15    18    1
     6    27    1
     5    28    1
    16    18    1
    13    21    1
    10    25    1
     6    29    1
     9    27    1
     8    28    1
    12    25    1
    11    26    1
    10    28    1
     9    29    1
    19    20    1
    13    26    1
    13    27    1
    11    29    1
    20    21    1
    21    22    1
    21    23    1
    21    24    1
    19    26    1
    21    25    1
    20    27    1
    25    26    1
    25    29    1
    27    28    1
    28    29    1

