LIGPARGEN GENERATED GRO FILE
   40
    1UNK    C00    1   0.100   0.100   0.000
    1UNK    C01    2  -0.053   0.100   0.000
    1UNK    C02    3  -0.108   0.100   0.144
    1UNK    C03    4  -0.237   0.185   0.168
    1UNK    C04    5  -0.255   0.194   0.323
    1UNK    C05    6  -0.203   0.331   0.123
    1UNK    C06    7  -0.121   0.344  -0.004
    1UNK    C07    8  -0.109   0.215  -0.084
    1UNK    S08    9  -0.265   0.170  -0.162
    1UNK    O09   10  -0.232   0.089  -0.278
    1UNK    O0A   11  -0.343   0.292  -0.182
    1UNK    C0B   12  -0.355   0.066  -0.045
    1UNK    C0C   13  -0.314  -0.083  -0.054
    1UNK    C0D   14  -0.371   0.124   0.100
    1UNK    C0E   15  -0.485   0.229   0.096
    1UNK    C0F   16  -0.429   0.010   0.190
    1UNK    H0G   17   0.138   0.014   0.056
    1UNK    H0H   18   0.141   0.191   0.044
    1UNK    H0I   19   0.138   0.092  -0.102
    1UNK    H0J   20  -0.079   0.006  -0.049
    1UNK    H0K   21  -0.030   0.140   0.210
    1UNK    H0M   22  -0.124  -0.003   0.178
    1UNK    H0N   23  -0.169   0.242   0.371
    1UNK    H0O   24  -0.264   0.095   0.369
    1UNK    H0P   25  -0.343   0.253   0.350
    1UNK    H0Q   26  -0.145   0.381   0.202
    1UNK    H0R   27  -0.293   0.393   0.116
    1UNK    H0S   28  -0.020   0.376   0.024
    1UNK    H0T   29  -0.161   0.425  -0.066
    1UNK    H0U   30  -0.043   0.234  -0.169
    1UNK    H0V   31  -0.456   0.066  -0.091
    1UNK    H0W   32  -0.237  -0.110   0.019
    1UNK    H0X   33  -0.277  -0.111  -0.153
    1UNK    H0Y   34  -0.399  -0.148  -0.032
    1UNK    H0Z   35  -0.464   0.314   0.030
    1UNK    H10   36  -0.507   0.270   0.196
    1UNK    H11   37  -0.579   0.185   0.060
    1UNK    H12   38  -0.355  -0.066   0.214
    1UNK    H13   39  -0.513  -0.040   0.140
    1UNK    H14   40  -0.469   0.048   0.284
   1.00000   1.00000   1.00000

