LIGPARGEN GENERATED GRO FILE
   30
    1UNK    C00    1   0.100   0.100   0.000
    1UNK    C01    2  -0.055   0.100   0.000
    1UNK    C02    3  -0.089   0.100   0.152
    1UNK    C03    4  -0.051   0.229   0.222
    1UNK    N04    5  -0.022   0.330   0.267
    1UNK    C05    6  -0.234   0.096   0.112
    1UNK    C06    7  -0.358   0.117   0.192
    1UNK    C07    8  -0.452   0.126   0.072
    1UNK    C08    9  -0.546   0.244   0.085
    1UNK    C09   10  -0.345   0.125  -0.047
    1UNK    C0A   11  -0.410   0.153  -0.180
    1UNK    C0B   12  -0.276  -0.007  -0.005
    1UNK    C0C   13  -0.202   0.195  -0.009
    1UNK    H0D   14   0.135  -0.001  -0.029
    1UNK    H0E   15   0.144   0.112   0.100
    1UNK    H0F   16   0.145   0.171  -0.069
    1UNK    H0G   17  -0.061   0.003  -0.049
    1UNK    H0H   18  -0.056   0.014   0.208
    1UNK    H0I   19  -0.355   0.208   0.253
    1UNK    H0J   20  -0.380   0.031   0.254
    1UNK    H0K   21  -0.514   0.035   0.066
    1UNK    H0M   22  -0.493   0.339   0.088
    1UNK    H0N   23  -0.602   0.232   0.179
    1UNK    H0O   24  -0.619   0.245   0.004
    1UNK    H0P   25  -0.487   0.079  -0.204
    1UNK    H0Q   26  -0.338   0.154  -0.263
    1UNK    H0R   27  -0.459   0.251  -0.180
    1UNK    H0S   28  -0.222  -0.043  -0.094
    1UNK    H0T   29  -0.338  -0.092   0.025
    1UNK    H0U   30  -0.199   0.302   0.010
   1.00000   1.00000   1.00000

