LIGPARGEN GENERATED GRO FILE
   44
    1UNK    C00    1   0.100   0.100   0.000
    1UNK    C01    2  -0.052   0.100   0.000
    1UNK    C02    3  -0.105   0.100   0.143
    1UNK    C03    4  -0.259   0.100   0.150
    1UNK    C04    5  -0.312   0.093   0.294
    1UNK    C05    6  -0.257   0.206   0.385
    1UNK    C06    7  -0.296   0.348   0.345
    1UNK    C07    8  -0.467   0.093   0.299
    1UNK    C08    9  -0.539  -0.025   0.231
    1UNK    C09   10  -0.496  -0.160   0.292
    1UNK    C0A   11  -0.695  -0.011   0.232
    1UNK    C0B   12  -0.753  -0.011   0.374
    1UNK    C0C   13  -0.747   0.113   0.156
    1UNK    C0D   14  -0.711   0.113   0.008
    1UNK    H0E   15   0.138   0.105  -0.102
    1UNK    H0F   16   0.139   0.009   0.047
    1UNK    H0G   17   0.139   0.186   0.055
    1UNK    H0H   18  -0.089   0.012  -0.054
    1UNK    H0I   19  -0.088   0.189  -0.053
    1UNK    H0J   20  -0.066   0.189   0.193
    1UNK    H0K   21  -0.067   0.012   0.197
    1UNK    H0M   22  -0.295   0.013   0.094
    1UNK    H0N   23  -0.298   0.188   0.098
    1UNK    H0O   24  -0.277  -0.001   0.338
    1UNK    H0P   25  -0.148   0.199   0.390
    1UNK    H0Q   26  -0.291   0.189   0.488
    1UNK    H0R   27  -0.298   0.362   0.237
    1UNK    H0S   28  -0.224   0.420   0.387
    1UNK    H0T   29  -0.395   0.374   0.385
    1UNK    H0U   30  -0.502   0.187   0.255
    1UNK    H0V   31  -0.497   0.096   0.405
    1UNK    H0W   32  -0.508  -0.029   0.126
    1UNK    H0X   33  -0.494  -0.157   0.401
    1UNK    H0Y   34  -0.396  -0.188   0.257
    1UNK    H0Z   35  -0.564  -0.241   0.261
    1UNK    H10   36  -0.736  -0.099   0.181
    1UNK    H11   37  -0.720   0.077   0.431
    1UNK    H12   38  -0.726  -0.101   0.429
    1UNK    H13   39  -0.863  -0.007   0.370
    1UNK    H14   40  -0.710   0.205   0.202
    1UNK    H15   41  -0.856   0.116   0.164
    1UNK    H16   42  -0.603   0.111  -0.009
    1UNK    H17   43  -0.750   0.205  -0.039
    1UNK    H18   44  -0.757   0.028  -0.043
   1.00000   1.00000   1.00000

