LIGPARGEN GENERATED GRO FILE
   34
    1UNK    C00    1   0.100   0.100   0.000
    1UNK    O01    2  -0.042   0.100   0.000
    1UNK    C02    3  -0.095   0.100   0.133
    1UNK    C03    4  -0.248   0.107   0.126
    1UNK    C04    5  -0.302  -0.016   0.051
    1UNK    C05    6  -0.313   0.117   0.266
    1UNK    O06    7  -0.271   0.005   0.345
    1UNK    C07    8  -0.316   0.008   0.472
    1UNK    O08    9  -0.408  -0.059   0.515
    1UNK    O09   10  -0.239   0.093   0.544
    1UNK    C0A   11  -0.298   0.220   0.578
    1UNK    C0B   12  -0.181   0.308   0.624
    1UNK    C0C   13  -0.397   0.203   0.694
    1UNK    C0D   14  -0.368   0.283   0.457
    1UNK    C0E   15  -0.292   0.257   0.330
    1UNK    O0F   16  -0.220   0.344   0.282
    1UNK    H0G   17   0.134   0.100  -0.104
    1UNK    H0H   18   0.138   0.010   0.050
    1UNK    H0I   19   0.138   0.190   0.049
    1UNK    H0J   20  -0.054   0.186   0.186
    1UNK    H0K   21  -0.062   0.009   0.184
    1UNK    H0M   22  -0.276   0.195   0.067
    1UNK    H0N   23  -0.272  -0.109   0.100
    1UNK    H0O   24  -0.266  -0.019  -0.052
    1UNK    H0P   25  -0.412  -0.014   0.047
    1UNK    H0Q   26  -0.421   0.108   0.251
    1UNK    H0R   27  -0.133   0.264   0.712
    1UNK    H0S   28  -0.214   0.409   0.650
    1UNK    H0T   29  -0.104   0.315   0.547
    1UNK    H0U   30  -0.349   0.155   0.780
    1UNK    H0V   31  -0.481   0.140   0.666
    1UNK    H0W   32  -0.437   0.300   0.726
    1UNK    H0X   33  -0.380   0.392   0.470
    1UNK    H0Y   34  -0.469   0.243   0.443
   1.00000   1.00000   1.00000

