LIGPARGEN GENERATED GRO FILE
   32
    1UNK    C00    1   0.100   0.100   0.000
    1UNK    C01    2  -0.053   0.100   0.000
    1UNK    C02    3  -0.121   0.100   0.140
    1UNK    C03    4  -0.080  -0.025   0.219
    1UNK    C04    5  -0.080   0.226   0.219
    1UNK    C05    6  -0.276   0.100   0.116
    1UNK    C06    7  -0.363   0.099   0.242
    1UNK    C07    8  -0.512   0.099   0.210
    1UNK    C08    9  -0.594   0.099   0.340
    1UNK    F09   10  -0.564   0.213   0.408
    1UNK    C0A   11  -0.744   0.096   0.314
    1UNK    F0B   12  -0.809   0.081   0.432
    1UNK    H0C   13   0.137   0.100  -0.103
    1UNK    H0D   14   0.141   0.011   0.049
    1UNK    H0E   15   0.141   0.189   0.049
    1UNK    H0F   16  -0.086   0.012  -0.057
    1UNK    H0G   17  -0.086   0.188  -0.057
    1UNK    H0H   18   0.028  -0.028   0.236
    1UNK    H0I   19  -0.108  -0.117   0.166
    1UNK    H0J   20  -0.126  -0.028   0.318
    1UNK    H0K   21   0.028   0.229   0.236
    1UNK    H0M   22  -0.127   0.228   0.318
    1UNK    H0N   23  -0.108   0.317   0.166
    1UNK    H0O   24  -0.302   0.012   0.055
    1UNK    H0P   25  -0.303   0.187   0.055
    1UNK    H0Q   26  -0.340   0.188   0.303
    1UNK    H0R   27  -0.340   0.011   0.303
    1UNK    H0S   28  -0.537   0.011   0.150
    1UNK    H0T   29  -0.537   0.188   0.152
    1UNK    H0U   30  -0.566   0.015   0.404
    1UNK    H0V   31  -0.772   0.013   0.249
    1UNK    H0W   32  -0.778   0.190   0.269
   1.00000   1.00000   1.00000

