LIGPARGEN GENERATED GRO FILE
   33
    1UNK    C00    1   0.100   0.100   0.000
    1UNK    O01    2  -0.042   0.100   0.000
    1UNK    C02    3  -0.094   0.100   0.133
    1UNK    C03    4  -0.246   0.089   0.134
    1UNK    C04    5  -0.315  -0.022   0.048
    1UNK    C05    6  -0.286  -0.169   0.098
    1UNK    C06    7  -0.365  -0.275   0.018
    1UNK    C07    8  -0.138  -0.209   0.092
    1UNK    C08    9  -0.470   0.006   0.039
    1UNK    C09   10  -0.539   0.010   0.176
    1UNK    C0A   11  -0.505   0.133  -0.040
    1UNK    H0B   12   0.135   0.111  -0.103
    1UNK    H0C   13   0.138   0.005   0.040
    1UNK    H0D   14   0.139   0.184   0.059
    1UNK    H0E   15  -0.066   0.195   0.180
    1UNK    H0F   16  -0.047   0.021   0.192
    1UNK    H0G   17  -0.281   0.186   0.098
    1UNK    H0H   18  -0.278   0.080   0.238
    1UNK    H0I   19  -0.276  -0.015  -0.055
    1UNK    H0J   20  -0.318  -0.177   0.203
    1UNK    H0K   21  -0.352  -0.261  -0.090
    1UNK    H0M   22  -0.472  -0.271   0.041
    1UNK    H0N   23  -0.333  -0.376   0.043
    1UNK    H0O   24  -0.089  -0.169   0.003
    1UNK    H0P   25  -0.126  -0.318   0.091
    1UNK    H0Q   26  -0.086  -0.175   0.181
    1UNK    H0R   27  -0.517  -0.075  -0.018
    1UNK    H0S   28  -0.502   0.092   0.238
    1UNK    H0T   29  -0.526  -0.084   0.230
    1UNK    H0U   30  -0.647   0.026   0.164
    1UNK    H0V   31  -0.457   0.223  -0.001
    1UNK    H0W   32  -0.613   0.151  -0.038
    1UNK    H0X   33  -0.476   0.121  -0.145
   1.00000   1.00000   1.00000

