LIGPARGEN GENERATED GRO FILE
   39
    1UNK    C00    1   0.100   0.100   0.000
    1UNK    C01    2  -0.052   0.100   0.000
    1UNK    C02    3  -0.110   0.100   0.142
    1UNK    C03    4  -0.262   0.100   0.139
    1UNK    C04    5  -0.349   0.089   0.269
    1UNK    C05    6  -0.458   0.051   0.163
    1UNK    C06    7  -0.342  -0.029   0.093
    1UNK    C07    8  -0.321  -0.171   0.149
    1UNK    C08    9  -0.206  -0.243   0.080
    1UNK    N09   10  -0.473   0.178   0.087
    1UNK    C0A   11  -0.549   0.158  -0.036
    1UNK    C0B   12  -0.332   0.214   0.062
    1UNK    C0C   13  -0.297   0.353   0.119
    1UNK    C0D   14  -0.378   0.466   0.057
    1UNK    H0E   15   0.137   0.095  -0.103
    1UNK    H0F   16   0.139   0.014   0.055
    1UNK    H0G   17   0.139   0.192   0.046
    1UNK    H0H   18  -0.088   0.013  -0.055
    1UNK    H0I   19  -0.086   0.189  -0.055
    1UNK    H0J   20  -0.073   0.187   0.197
    1UNK    H0K   21  -0.074   0.012   0.197
    1UNK    H0M   22  -0.368   0.180   0.327
    1UNK    H0N   23  -0.321   0.013   0.342
    1UNK    H0O   24  -0.549   0.000   0.196
    1UNK    H0P   25  -0.351  -0.038  -0.016
    1UNK    H0Q   26  -0.413  -0.229   0.132
    1UNK    H0R   27  -0.303  -0.173   0.257
    1UNK    H0S   28  -0.221  -0.246  -0.029
    1UNK    H0T   29  -0.200  -0.347   0.116
    1UNK    H0U   30  -0.111  -0.195   0.100
    1UNK    H0V   31  -0.651   0.127  -0.012
    1UNK    H0W   32  -0.506   0.083  -0.103
    1UNK    H0X   33  -0.556   0.252  -0.092
    1UNK    H0Y   34  -0.307   0.210  -0.045
    1UNK    H0Z   35  -0.190   0.373   0.100
    1UNK    H10   36  -0.309   0.357   0.227
    1UNK    H11   37  -0.363   0.471  -0.051
    1UNK    H12   38  -0.347   0.562   0.101
    1UNK    H13   39  -0.485   0.454   0.077
   1.00000   1.00000   1.00000

