LIGPARGEN GENERATED GRO FILE
   36
    1UNK    C00    1   0.100   0.100   0.000
    1UNK    C01    2  -0.053   0.100   0.000
    1UNK    C02    3  -0.120   0.100   0.141
    1UNK    C03    4  -0.076   0.225   0.224
    1UNK    C04    5  -0.104   0.360   0.160
    1UNK    C05    6  -0.275   0.102   0.125
    1UNK    C06    7  -0.334  -0.027   0.067
    1UNK    C07    8  -0.487  -0.018   0.065
    1UNK    C08    9  -0.289  -0.150   0.147
    1UNK    C09   10  -0.136  -0.157   0.160
    1UNK    C0A   11  -0.095  -0.280   0.240
    1UNK    C0B   12  -0.081  -0.027   0.222
    1UNK    H0C   13   0.137   0.100  -0.103
    1UNK    H0D   14   0.141   0.011   0.049
    1UNK    H0E   15   0.141   0.189   0.049
    1UNK    H0F   16  -0.085   0.013  -0.058
    1UNK    H0G   17  -0.087   0.187  -0.057
    1UNK    H0H   18   0.032   0.219   0.246
    1UNK    H0I   19  -0.126   0.223   0.321
    1UNK    H0J   20  -0.051   0.372   0.064
    1UNK    H0K   21  -0.070   0.440   0.226
    1UNK    H0M   22  -0.211   0.375   0.143
    1UNK    H0N   23  -0.305   0.186   0.062
    1UNK    H0O   24  -0.320   0.120   0.224
    1UNK    H0P   25  -0.301  -0.038  -0.037
    1UNK    H0Q   26  -0.528  -0.009   0.166
    1UNK    H0R   27  -0.530  -0.107   0.018
    1UNK    H0S   28  -0.520   0.069   0.007
    1UNK    H0T   29  -0.326  -0.241   0.097
    1UNK    H0U   30  -0.334  -0.148   0.247
    1UNK    H0V   31  -0.093  -0.168   0.060
    1UNK    H0W   32  -0.134  -0.277   0.342
    1UNK    H0X   33   0.014  -0.288   0.245
    1UNK    H0Y   34  -0.132  -0.371   0.192
    1UNK    H0Z   35   0.027  -0.035   0.233
    1UNK    H10   36  -0.121  -0.018   0.324
   1.00000   1.00000   1.00000

