LIGPARGEN GENERATED GRO FILE
   33
    1UNK    C00    1   0.100   0.100   0.000
    1UNK    C01    2  -0.053   0.100   0.000
    1UNK    C02    3  -0.049   0.100   0.156
    1UNK    C03    4  -0.065   0.233   0.233
    1UNK    C04    5  -0.201   0.296   0.196
    1UNK    C05    6  -0.312   0.254   0.295
    1UNK    C06    7  -0.269   0.319   0.428
    1UNK    C07    8  -0.197   0.185   0.452
    1UNK    C08    9  -0.128   0.171   0.583
    1UNK    C09   10  -0.011   0.254   0.513
    1UNK    C0A   11  -0.062   0.188   0.380
    1UNK    C0B   12  -0.306   0.116   0.377
    1UNK    C0C   13   0.094   0.042   0.142
    1UNK    H0D   14   0.144   0.200  -0.005
    1UNK    H0E   15   0.147   0.036  -0.076
    1UNK    H0F   16  -0.097   0.009  -0.041
    1UNK    H0G   17  -0.099   0.186  -0.050
    1UNK    H0H   18  -0.119   0.024   0.193
    1UNK    H0I   19   0.018   0.301   0.209
    1UNK    H0J   20  -0.232   0.273   0.094
    1UNK    H0K   21  -0.190   0.405   0.199
    1UNK    H0M   22  -0.411   0.283   0.259
    1UNK    H0N   23  -0.353   0.336   0.497
    1UNK    H0O   24  -0.212   0.412   0.424
    1UNK    H0P   25  -0.100   0.068   0.609
    1UNK    H0Q   26  -0.175   0.219   0.669
    1UNK    H0R   27   0.090   0.227   0.545
    1UNK    H0S   28  -0.022   0.363   0.520
    1UNK    H0T   29  -0.015   0.088   0.382
    1UNK    H0U   30  -0.397   0.096   0.435
    1UNK    H0V   31  -0.281   0.026   0.320
    1UNK    H0W   32   0.098  -0.068   0.145
    1UNK    H0X   33   0.170   0.081   0.211
   1.00000   1.00000   1.00000

