LIGPARGEN GENERATED GRO FILE
   46
    1UNK    C00    1   0.100   0.100   0.000
    1UNK    C01    2  -0.049   0.100   0.000
    1UNK    C02    3  -0.123   0.100   0.131
    1UNK    C03    4  -0.129   0.222   0.041
    1UNK    C04    5  -0.257   0.252  -0.030
    1UNK    O05    6  -0.333   0.161  -0.061
    1UNK    O06    7  -0.276   0.385  -0.054
    1UNK    C07    8  -0.395   0.425  -0.128
    1UNK    C08    9  -0.398   0.357  -0.265
    1UNK    C09   10  -0.521   0.388  -0.047
    1UNK    C0A   11  -0.397   0.582  -0.143
    1UNK    C0B   12  -0.286   0.662  -0.218
    1UNK    C0C   13  -0.153   0.651  -0.142
    1UNK    C0D   14  -0.267   0.618  -0.365
    1UNK    C0E   15  -0.206   0.738  -0.435
    1UNK    C0F   16  -0.278   0.857  -0.375
    1UNK    C0G   17  -0.331   0.812  -0.238
    1UNK    C0H   18  -0.290   0.912  -0.129
    1UNK    H0I   19   0.137  -0.001  -0.022
    1UNK    H0J   20   0.141   0.131   0.097
    1UNK    H0K   21   0.138   0.168  -0.077
    1UNK    H0M   22  -0.088   0.040  -0.081
    1UNK    H0N   23  -0.067   0.107   0.223
    1UNK    H0O   24  -0.211   0.037   0.138
    1UNK    H0P   25  -0.073   0.310   0.073
    1UNK    H0Q   26  -0.418   0.249  -0.258
    1UNK    H0R   27  -0.301   0.363  -0.315
    1UNK    H0S   28  -0.476   0.398  -0.329
    1UNK    H0T   29  -0.530   0.281  -0.029
    1UNK    H0U   30  -0.612   0.420  -0.098
    1UNK    H0V   31  -0.518   0.435   0.052
    1UNK    H0W   32  -0.403   0.625  -0.042
    1UNK    H0X   33  -0.493   0.607  -0.191
    1UNK    H0Y   34  -0.114   0.549  -0.144
    1UNK    H0Z   35  -0.165   0.679  -0.037
    1UNK    H10   36  -0.075   0.715  -0.185
    1UNK    H11   37  -0.363   0.595  -0.411
    1UNK    H12   38  -0.200   0.532  -0.375
    1UNK    H13   39  -0.218   0.732  -0.543
    1UNK    H14   40  -0.098   0.744  -0.414
    1UNK    H15   41  -0.362   0.885  -0.439
    1UNK    H16   42  -0.211   0.944  -0.370
    1UNK    H17   43  -0.440   0.816  -0.244
    1UNK    H18   44  -0.181   0.921  -0.120
    1UNK    H19   45  -0.331   0.884  -0.032
    1UNK    H1A   46  -0.328   1.012  -0.154
   1.00000   1.00000   1.00000

