LIGPARGEN GENERATED GRO FILE
   31
    1UNK    C00    1   0.100   0.100   0.000
    1UNK    C01    2  -0.052   0.100   0.000
    1UNK    C02    3  -0.107   0.100   0.143
    1UNK    C03    4  -0.260   0.100   0.144
    1UNK    C04    5  -0.319   0.091   0.287
    1UNK    C05    6  -0.280   0.213   0.371
    1UNK    C06    7  -0.472   0.079   0.283
    1UNK    C07    8  -0.523  -0.052   0.226
    1UNK    O08    9  -0.449  -0.146   0.199
    1UNK    C09   10  -0.674  -0.062   0.208
    1UNK    C0A   11  -0.716  -0.190   0.137
    1UNK    H0B   12   0.138   0.100  -0.103
    1UNK    H0C   13   0.139   0.011   0.051
    1UNK    H0D   14   0.139   0.189   0.051
    1UNK    H0E   15  -0.088   0.012  -0.054
    1UNK    H0F   16  -0.088   0.189  -0.054
    1UNK    H0G   17  -0.069   0.188   0.195
    1UNK    H0H   18  -0.070   0.012   0.196
    1UNK    H0I   19  -0.295   0.015   0.084
    1UNK    H0J   20  -0.297   0.191   0.095
    1UNK    H0K   21  -0.278   0.002   0.336
    1UNK    H0M   22  -0.309   0.306   0.321
    1UNK    H0N   23  -0.172   0.216   0.389
    1UNK    H0O   24  -0.329   0.211   0.469
    1UNK    H0P   25  -0.515   0.162   0.226
    1UNK    H0Q   26  -0.512   0.085   0.386
    1UNK    H0R   27  -0.708   0.025   0.150
    1UNK    H0S   28  -0.720  -0.058   0.307
    1UNK    H0T   29  -0.671  -0.195   0.037
    1UNK    H0U   30  -0.824  -0.194   0.126
    1UNK    H0V   31  -0.684  -0.278   0.193
   1.00000   1.00000   1.00000

