LIGPARGEN GENERATED GRO FILE
   29
    1UNK    C00    1   0.100   0.100   0.000
    1UNK    C01    2  -0.052   0.100   0.000
    1UNK    C02    3  -0.109   0.100   0.142
    1UNK    C03    4  -0.262   0.100   0.138
    1UNK    C04    5  -0.323   0.100   0.279
    1UNK    C05    6  -0.476   0.100   0.277
    1UNK    C06    7  -0.536  -0.025   0.210
    1UNK    C07    8  -0.679  -0.032   0.262
    1UNK    C08    9  -0.665   0.026   0.400
    1UNK    O09   10  -0.750   0.014   0.487
    1UNK    C0A   11  -0.535   0.100   0.418
    1UNK    H0B   12   0.138   0.100  -0.103
    1UNK    H0C   13   0.139   0.011   0.051
    1UNK    H0D   14   0.139   0.189   0.050
    1UNK    H0E   15  -0.088   0.012  -0.054
    1UNK    H0F   16  -0.088   0.188  -0.054
    1UNK    H0G   17  -0.073   0.188   0.196
    1UNK    H0H   18  -0.073   0.011   0.196
    1UNK    H0I   19  -0.296   0.011   0.083
    1UNK    H0J   20  -0.298   0.188   0.083
    1UNK    H0K   21  -0.288   0.188   0.334
    1UNK    H0M   22  -0.286   0.012   0.334
    1UNK    H0N   23  -0.512   0.189   0.223
    1UNK    H0O   24  -0.481  -0.115   0.241
    1UNK    H0P   25  -0.533  -0.019   0.101
    1UNK    H0Q   26  -0.716  -0.134   0.265
    1UNK    H0R   27  -0.746   0.032   0.203
    1UNK    H0S   28  -0.473   0.046   0.490
    1UNK    H0T   29  -0.554   0.202   0.453
   1.00000   1.00000   1.00000

