
;
; GENERATED BY LigParGen Server
; Jorgensen Lab @ Yale University 
;
[ atomtypes ]
  opls_807  O807    15.9990     0.000    A    2.96000E-01   8.78640E-01
  opls_818  H818     1.0080     0.000    A    2.50000E-01   1.25520E-01
  opls_814  C814    12.0110     0.000    A    3.50000E-01   2.76144E-01
  opls_824  H824     1.0080     0.000    A    2.50000E-01   1.25520E-01
  opls_805  C805    12.0110     0.000    A    3.50000E-01   2.76144E-01
  opls_836  H836     1.0080     0.000    A    2.50000E-01   1.25520E-01
  opls_834  H834     1.0080     0.000    A    2.50000E-01   1.25520E-01
  opls_828  H828     1.0080     0.000    A    2.50000E-01   1.25520E-01
  opls_812  O812    15.9990     0.000    A    2.90000E-01   5.85760E-01
  opls_815  O815    15.9990     0.000    A    2.90000E-01   5.85760E-01
  opls_802  C802    12.0110     0.000    A    3.50000E-01   2.76144E-01
  opls_827  H827     1.0080     0.000    A    2.50000E-01   1.25520E-01
  opls_809  C809    12.0110     0.000    A    3.50000E-01   2.76144E-01
  opls_838  H838     1.0080     0.000    A    2.50000E-01   1.25520E-01
  opls_822  H822     1.0080     0.000    A    2.50000E-01   1.25520E-01
  opls_803  C803    12.0110     0.000    A    3.50000E-01   2.76144E-01
  opls_825  H825     1.0080     0.000    A    2.50000E-01   1.25520E-01
  opls_830  H830     1.0080     0.000    A    2.50000E-01   1.25520E-01
  opls_810  C810    12.0110     0.000    A    3.50000E-01   2.76144E-01
  opls_820  H820     1.0080     0.000    A    2.50000E-01   1.25520E-01
  opls_837  H837     1.0080     0.000    A    2.50000E-01   1.25520E-01
  opls_821  H821     1.0080     0.000    A    2.50000E-01   1.25520E-01
  opls_831  H831     1.0080     0.000    A    2.50000E-01   1.25520E-01
  opls_832  H832     1.0080     0.000    A    2.50000E-01   1.25520E-01
  opls_800  C800    12.0110     0.000    A    3.50000E-01   2.76144E-01
  opls_811  C811    12.0110     0.000    A    3.50000E-01   2.76144E-01
  opls_806  C806    12.0110     0.000    A    3.55000E-01   2.92880E-01
  opls_823  H823     1.0080     0.000    A    2.50000E-01   1.25520E-01
  opls_813  O813    15.9990     0.000    A    2.90000E-01   5.85760E-01
  opls_808  O808    15.9990     0.000    A    2.90000E-01   5.85760E-01
  opls_826  H826     1.0080     0.000    A    2.50000E-01   1.25520E-01
  opls_835  H835     1.0080     0.000    A    2.50000E-01   1.25520E-01
  opls_841  H841     1.0080     0.000    A    2.50000E-01   1.25520E-01
  opls_819  H819     1.0080     0.000    A    2.50000E-01   1.25520E-01
  opls_804  C804    12.0110     0.000    A    3.50000E-01   2.76144E-01
  opls_833  H833     1.0080     0.000    A    2.50000E-01   1.25520E-01
  opls_839  H839     1.0080     0.000    A    2.50000E-01   1.25520E-01
  opls_817  C817    12.0110     0.000    A    3.50000E-01   2.76144E-01
  opls_801  C801    12.0110     0.000    A    3.50000E-01   2.76144E-01
  opls_840  H840     1.0080     0.000    A    2.50000E-01   1.25520E-01
  opls_829  H829     1.0080     0.000    A    2.50000E-01   1.25520E-01
  opls_816  O816    15.9990     0.000    A    2.90000E-01   5.85760E-01
[ moleculetype ]
; Name               nrexcl
UNK                   3
[ atoms ]
;   nr       type  resnr residue  atom   cgnr     charge       mass  
     1   opls_800      1    UNK   C00      1     -0.239    12.0110 
     2   opls_801      1    UNK   C01      1      -0.18    12.0110 
     3   opls_802      1    UNK   C02      1     -0.175    12.0110 
     4   opls_803      1    UNK   C03      1    -0.1719    12.0110 
     5   opls_804      1    UNK   C04      1    -0.1144    12.0110 
     6   opls_805      1    UNK   C05      1     -0.234    12.0110 
     7   opls_806      1    UNK   C06      1     0.4346    12.0110 
     8   opls_807      1    UNK   O07      1     -0.448    15.9990 
     9   opls_808      1    UNK   O08      1    -0.3454    15.9990 
    10   opls_809      1    UNK   C09      1    -0.0363    12.0110 
    11   opls_810      1    UNK   C0A      1     0.2686    12.0110 
    12   opls_811      1    UNK   C0B      1    -0.2627    12.0110 
    13   opls_812      1    UNK   O0C      1     -0.205    15.9990 
    14   opls_813      1    UNK   O0D      1    -0.2035    15.9990 
    15   opls_814      1    UNK   C0E      1    -0.0775    12.0110 
    16   opls_815      1    UNK   O0F      1    -0.2188    15.9990 
    17   opls_816      1    UNK   O0G      1    -0.2002    15.9990 
    18   opls_817      1    UNK   C0H      1    -0.0777    12.0110 
    19   opls_818      1    UNK   H0I      1      0.082     1.0080 
    20   opls_819      1    UNK   H0J      1      0.082     1.0080 
    21   opls_820      1    UNK   H0K      1      0.082     1.0080 
    22   opls_821      1    UNK   H0M      1     0.0905     1.0080 
    23   opls_822      1    UNK   H0N      1     0.0905     1.0080 
    24   opls_823      1    UNK   H0O      1     0.0925     1.0080 
    25   opls_824      1    UNK   H0P      1     0.0925     1.0080 
    26   opls_825      1    UNK   H0Q      1      0.103     1.0080 
    27   opls_826      1    UNK   H0R      1      0.103     1.0080 
    28   opls_827      1    UNK   H0S      1     0.1333     1.0080 
    29   opls_828      1    UNK   H0T      1     0.0958     1.0080 
    30   opls_829      1    UNK   H0U      1     0.0958     1.0080 
    31   opls_830      1    UNK   H0V      1     0.0958     1.0080 
    32   opls_831      1    UNK   H0W      1     0.1411     1.0080 
    33   opls_832      1    UNK   H0X      2     0.1411     1.0080 
    34   opls_833      1    UNK   H0Y      2     0.1131     1.0080 
    35   opls_834      1    UNK   H0Z      2     0.1131     1.0080 
    36   opls_835      1    UNK   H10      2     0.1131     1.0080 
    37   opls_836      1    UNK   H11      2     0.1024     1.0080 
    38   opls_837      1    UNK   H12      2     0.1024     1.0080 
    39   opls_838      1    UNK   H13      2     0.1024     1.0080 
    40   opls_839      1    UNK   H14      2     0.1063     1.0080 
    41   opls_840      1    UNK   H15      2     0.1063     1.0080 
    42   opls_841      1    UNK   H16      2     0.1063     1.0080 
[ bonds ]
    2     1     1      0.1529 224262.400
    3     2     1      0.1529 224262.400
    4     3     1      0.1529 224262.400
    5     4     1      0.1529 224262.400
    6     5     1      0.1529 224262.400
    7     5     1      0.1522 265265.600
    8     7     1      0.1229 476976.000
    9     7     1      0.1327 179075.200
   10     9     1      0.1410 267776.000
   11    10     1      0.1529 224262.400
   12    11     1      0.1529 224262.400
   13    11     1      0.1380 267776.000
   14    13     1      0.1470 209200.000
   15    14     1      0.1410 267776.000
   16    11     1      0.1380 267776.000
   17    16     1      0.1470 209200.000
   18    17     1      0.1410 267776.000
   19     1     1      0.1090 284512.000
   20     1     1      0.1090 284512.000
   21     1     1      0.1090 284512.000
   22     2     1      0.1090 284512.000
   23     2     1      0.1090 284512.000
   24     3     1      0.1090 284512.000
   25     3     1      0.1090 284512.000
   26     4     1      0.1090 284512.000
   27     4     1      0.1090 284512.000
   28     5     1      0.1090 284512.000
   29     6     1      0.1090 284512.000
   30     6     1      0.1090 284512.000
   31     6     1      0.1090 284512.000
   32    10     1      0.1090 284512.000
   33    10     1      0.1090 284512.000
   34    12     1      0.1090 284512.000
   35    12     1      0.1090 284512.000
   36    12     1      0.1090 284512.000
   37    15     1      0.1090 284512.000
   38    15     1      0.1090 284512.000
   39    15     1      0.1090 284512.000
   40    18     1      0.1090 284512.000
   41    18     1      0.1090 284512.000
   42    18     1      0.1090 284512.000

[ angles ]
;  ai    aj    ak funct            c0            c1            c2            c3 
    1     2     3     1    112.700    488.273
    2     3     4     1    112.700    488.273
    3     4     5     1    112.700    488.273
    4     5     6     1    112.700    488.273
    4     5     7     1    111.100    527.184
    5     7     8     1    120.400    669.440
    5     7     9     1    111.400    677.808
    7     9    10     1    116.900    694.544
    9    10    11     1    109.500    418.400
   10    11    12     1    112.700    488.273
   10    11    13     1    109.500    418.400
   11    13    14     1    114.540    581.660
   13    14    15     1    114.540    581.660
   10    11    16     1    109.500    418.400
   11    16    17     1    114.540    581.660
   16    17    18     1    114.540    581.660
    2     1    19     1    110.700    313.800
    2     1    20     1    110.700    313.800
    2     1    21     1    110.700    313.800
    1     2    22     1    110.700    313.800
    1     2    23     1    110.700    313.800
    2     3    24     1    110.700    313.800
    2     3    25     1    110.700    313.800
    3     4    26     1    110.700    313.800
    3     4    27     1    110.700    313.800
    4     5    28     1    110.700    313.800
    5     6    29     1    110.700    313.800
    5     6    30     1    110.700    313.800
    5     6    31     1    110.700    313.800
    9    10    32     1    109.500    292.880
    9    10    33     1    109.500    292.880
   11    12    34     1    110.700    313.800
   11    12    35     1    110.700    313.800
   11    12    36     1    110.700    313.800
   14    15    37     1    109.500    292.880
   14    15    38     1    109.500    292.880
   14    15    39     1    109.500    292.880
   17    18    40     1    109.500    292.880
   17    18    41     1    109.500    292.880
   17    18    42     1    109.500    292.880
   11    10    33     1    110.700    313.800
   19     1    20     1    107.800    276.144
   40    18    41     1    107.800    276.144
   35    12    36     1    107.800    276.144
   11    10    32     1    110.700    313.800
   34    12    36     1    107.800    276.144
   40    18    42     1    107.800    276.144
   29     6    30     1    107.800    276.144
    5     4    26     1    110.700    313.800
   32    10    33     1    107.800    276.144
   30     6    31     1    107.800    276.144
   41    18    42     1    107.800    276.144
    8     7     9     1    123.400    694.544
   29     6    31     1    107.800    276.144
   20     1    21     1    107.800    276.144
   13    11    16     1    111.550    774.877
    3     2    22     1    110.700    313.800
    3     2    23     1    110.700    313.800
   19     1    21     1    107.800    276.144
   37    15    39     1    107.800    276.144
   22     2    23     1    107.800    276.144
    4     3    25     1    110.700    313.800
    6     5     7     1    111.100    527.184
    4     3    24     1    110.700    313.800
   12    11    16     1    109.500    418.400
   38    15    39     1    107.800    276.144
   37    15    38     1    107.800    276.144
   12    11    13     1    109.500    418.400
    7     5    28     1    109.500    292.880
   34    12    35     1    107.800    276.144
    5     4    27     1    110.700    313.800
    6     5    28     1    110.700    313.800
   26     4    27     1    107.800    276.144
   24     3    25     1    107.800    276.144

[ dihedrals ]
; IMPROPER DIHEDRAL ANGLES 
;  ai    aj    ak    al funct            c0            c1            c2            c3            c4            c5
     9     7     5     8    4        180.000     43.932     2  

[ dihedrals ]
; PROPER DIHEDRAL ANGLES
;  ai    aj    ak    al funct            c0            c1            c2            c3            c4            c5
    7    5    4    3        3      -4.960   6.286   1.310  -2.636  -0.000   0.000
   11   10    9    7        3      -2.197   5.201   0.527  -3.531  -0.000   0.000
   12   11   10    9        3       2.874   0.582   2.092  -5.548  -0.000   0.000
    4    3    2    1        3       2.301  -1.464   0.837  -1.674  -0.000   0.000
    5    4    3    2        3       2.301  -1.464   0.837  -1.674  -0.000   0.000
    6    5    4    3        3       2.301  -1.464   0.837  -1.674  -0.000   0.000
   10    9    7    5        3      31.206  -9.768  -21.439  -0.000  -0.000   0.000
   10    9    7    8        3      21.439   0.000  -21.439  -0.000  -0.000   0.000
   15   14   13   11        3       1.715   2.845   1.046  -5.607  -0.000   0.000
   18   17   16   11        3       1.715   2.845   1.046  -5.607  -0.000   0.000
   28    5    7    8        3       0.000   0.000   0.000  -0.000  -0.000   0.000
   28    5    7    9        3       0.276   0.828   0.000  -1.105  -0.000   0.000
   35   12   11   10        3       0.628   1.883   0.000  -2.510  -0.000   0.000
   36   12   11   10        3       0.628   1.883   0.000  -2.510  -0.000   0.000
   32   10   11   12        3       0.628   1.883   0.000  -2.510  -0.000   0.000
   34   12   11   10        3       0.628   1.883   0.000  -2.510  -0.000   0.000
   33   10   11   12        3       0.628   1.883   0.000  -2.510  -0.000   0.000
   36   12   11   16        3       0.979   2.937   0.000  -3.916  -0.000   0.000
   34   12   11   16        3       0.979   2.937   0.000  -3.916  -0.000   0.000
   35   12   11   13        3       0.979   2.937   0.000  -3.916  -0.000   0.000
   32   10   11   16        3       0.979   2.937   0.000  -3.916  -0.000   0.000
   32   10   11   13        3       0.979   2.937   0.000  -3.916  -0.000   0.000
   33   10   11   13        3       0.979   2.937   0.000  -3.916  -0.000   0.000
   33   10   11   16        3       0.979   2.937   0.000  -3.916  -0.000   0.000
   36   12   11   13        3       0.979   2.937   0.000  -3.916  -0.000   0.000
   35   12   11   16        3       0.979   2.937   0.000  -3.916  -0.000   0.000
   34   12   11   13        3       0.979   2.937   0.000  -3.916  -0.000   0.000
   27    4    5    7        3      -0.209  -0.628   0.000   0.837  -0.000   0.000
   31    6    5    7        3      -0.209  -0.628   0.000   0.837  -0.000   0.000
   29    6    5    7        3      -0.209  -0.628   0.000   0.837  -0.000   0.000
   26    4    5    7        3      -0.209  -0.628   0.000   0.837  -0.000   0.000
   30    6    5    7        3      -0.209  -0.628   0.000   0.837  -0.000   0.000
   27    4    5    6        3       0.628   1.883   0.000  -2.510  -0.000   0.000
   21    1    2    3        3       0.628   1.883   0.000  -2.510  -0.000   0.000
   30    6    5    4        3       0.628   1.883   0.000  -2.510  -0.000   0.000
   19    1    2    3        3       0.628   1.883   0.000  -2.510  -0.000   0.000
   27    4    3    2        3       0.628   1.883   0.000  -2.510  -0.000   0.000
   26    4    3    2        3       0.628   1.883   0.000  -2.510  -0.000   0.000
   24    3    4    5        3       0.628   1.883   0.000  -2.510  -0.000   0.000
   23    2    3    4        3       0.628   1.883   0.000  -2.510  -0.000   0.000
   28    5    4    3        3       0.628   1.883   0.000  -2.510  -0.000   0.000
   24    3    2    1        3       0.628   1.883   0.000  -2.510  -0.000   0.000
   20    1    2    3        3       0.628   1.883   0.000  -2.510  -0.000   0.000
   31    6    5    4        3       0.628   1.883   0.000  -2.510  -0.000   0.000
   29    6    5    4        3       0.628   1.883   0.000  -2.510  -0.000   0.000
   26    4    5    6        3       0.628   1.883   0.000  -2.510  -0.000   0.000
   25    3    4    5        3       0.628   1.883   0.000  -2.510  -0.000   0.000
   25    3    2    1        3       0.628   1.883   0.000  -2.510  -0.000   0.000
   22    2    3    4        3       0.628   1.883   0.000  -2.510  -0.000   0.000
   26    4    3   24        3       0.628   1.883   0.000  -2.510  -0.000   0.000
   28    5    4   27        3       0.628   1.883   0.000  -2.510  -0.000   0.000
   29    6    5   28        3       0.628   1.883   0.000  -2.510  -0.000   0.000
   27    4    3   24        3       0.628   1.883   0.000  -2.510  -0.000   0.000
   23    2    1   20        3       0.628   1.883   0.000  -2.510  -0.000   0.000
   25    3    2   22        3       0.628   1.883   0.000  -2.510  -0.000   0.000
   28    5    4   26        3       0.628   1.883   0.000  -2.510  -0.000   0.000
   30    6    5   28        3       0.628   1.883   0.000  -2.510  -0.000   0.000
   26    4    3   25        3       0.628   1.883   0.000  -2.510  -0.000   0.000
   22    2    1   21        3       0.628   1.883   0.000  -2.510  -0.000   0.000
   24    3    2   23        3       0.628   1.883   0.000  -2.510  -0.000   0.000
   22    2    1   19        3       0.628   1.883   0.000  -2.510  -0.000   0.000
   25    3    2   23        3       0.628   1.883   0.000  -2.510  -0.000   0.000
   23    2    1   19        3       0.628   1.883   0.000  -2.510  -0.000   0.000
   22    2    1   20        3       0.628   1.883   0.000  -2.510  -0.000   0.000
   31    6    5   28        3       0.628   1.883   0.000  -2.510  -0.000   0.000
   27    4    3   25        3       0.628   1.883   0.000  -2.510  -0.000   0.000
   24    3    2   22        3       0.628   1.883   0.000  -2.510  -0.000   0.000
   23    2    1   21        3       0.628   1.883   0.000  -2.510  -0.000   0.000
   33   10    9    7        3       0.414   1.243   0.000  -1.657  -0.000   0.000
   32   10    9    7        3       0.414   1.243   0.000  -1.657  -0.000   0.000
   39   15   14   13        3       1.590   4.770   0.000  -6.360  -0.000   0.000
   41   18   17   16        3       1.590   4.770   0.000  -6.360  -0.000   0.000
   40   18   17   16        3       1.590   4.770   0.000  -6.360  -0.000   0.000
   37   15   14   13        3       1.590   4.770   0.000  -6.360  -0.000   0.000
   42   18   17   16        3       1.590   4.770   0.000  -6.360  -0.000   0.000
   38   15   14   13        3       1.590   4.770   0.000  -6.360  -0.000   0.000
    8    7    5    6        3       0.000   0.000   0.000  -0.000  -0.000   0.000
    8    7    5    4        3       0.000   0.000   0.000  -0.000  -0.000   0.000
    9    7    5    4        3      -1.157  -3.471   0.000   4.628  -0.000   0.000
    9    7    5    6        3      -1.157  -3.471   0.000   4.628  -0.000   0.000
   16   11   10    9        3      -1.151   1.151   0.000  -0.000  -0.000   0.000
   13   11   10    9        3      -1.151   1.151   0.000  -0.000  -0.000   0.000
   16   11   13   14        3      -6.458   0.810   5.682  -0.033  -0.000   0.000
   17   16   11   10        3       1.715   2.845   1.046  -5.607  -0.000   0.000
   17   16   11   12        3       1.715   2.845   1.046  -5.607  -0.000   0.000
   14   13   11   12        3       1.715   2.845   1.046  -5.607  -0.000   0.000
   14   13   11   10        3       1.715   2.845   1.046  -5.607  -0.000   0.000
   17   16   11   13        3      -6.458   0.810   5.682  -0.033  -0.000   0.000

[ pairs ]
     1     4    1
     2     5    1
     3     6    1
     3     7    1
     4     8    1
     4     9    1
     6     8    1
     6     9    1
     5    10    1
     8    10    1
     7    11    1
     9    12    1
     9    13    1
     3    19    1
     3    20    1
    10    14    1
     3    21    1
     9    16    1
     1    24    1
    12    14    1
    11    15    1
     4    22    1
     1    25    1
    10    17    1
     4    23    1
     2    26    1
    12    17    1
    11    18    1
     5    24    1
     2    27    1
    14    16    1
    13    17    1
     5    25    1
     3    28    1
     6    26    1
     7    26    1
     6    27    1
     4    29    1
     7    27    1
     4    30    1
     4    31    1
     8    28    1
     7    29    1
     9    28    1
     7    30    1
     7    31    1
     7    32    1
     7    33    1
    19    22    1
    20    22    1
    19    23    1
    21    22    1
    20    23    1
    21    23    1
    12    32    1
    10    34    1
    13    32    1
    12    33    1
    10    35    1
    22    24    1
    13    33    1
    10    36    1
    23    24    1
    22    25    1
    13    34    1
    23    25    1
    16    32    1
    13    35    1
    16    33    1
    13    36    1
    24    26    1
    16    34    1
    13    37    1
    25    26    1
    24    27    1
    16    35    1
    13    38    1
    25    27    1
    16    36    1
    13    39    1
    26    28    1
    27    28    1
    16    40    1
    28    29    1
    16    41    1
    28    30    1
    16    42    1
    28    31    1

