LIGPARGEN GENERATED GRO FILE
   42
    1UNK    C00    1   0.100   0.100   0.000
    1UNK    C01    2  -0.052   0.100   0.000
    1UNK    C02    3  -0.107   0.100   0.143
    1UNK    C03    4  -0.261   0.100   0.142
    1UNK    C04    5  -0.323   0.100   0.283
    1UNK    C05    6  -0.282   0.222   0.365
    1UNK    C06    7  -0.475   0.096   0.270
    1UNK    O07    8  -0.549   0.188   0.303
    1UNK    O08    9  -0.515  -0.022   0.217
    1UNK    C09   10  -0.657  -0.039   0.200
    1UNK    C0A   11  -0.698  -0.047   0.051
    1UNK    C0B   12  -0.647   0.072  -0.032
    1UNK    O0C   13  -0.635  -0.163  -0.009
    1UNK    O0D   14  -0.698  -0.281   0.052
    1UNK    C0E   15  -0.634  -0.393  -0.008
    1UNK    O0F   16  -0.842  -0.055   0.037
    1UNK    O0G   17  -0.897   0.067   0.097
    1UNK    C0H   18  -1.038   0.050   0.094
    1UNK    H0I   19   0.138   0.100  -0.103
    1UNK    H0J   20   0.139   0.011   0.051
    1UNK    H0K   21   0.139   0.189   0.051
    1UNK    H0M   22  -0.088   0.012  -0.054
    1UNK    H0N   23  -0.088   0.189  -0.054
    1UNK    H0O   24  -0.070   0.189   0.194
    1UNK    H0P   25  -0.071   0.012   0.197
    1UNK    H0Q   26  -0.295   0.011   0.087
    1UNK    H0R   27  -0.297   0.187   0.086
    1UNK    H0S   28  -0.292   0.010   0.337
    1UNK    H0T   29  -0.308   0.315   0.314
    1UNK    H0U   30  -0.174   0.223   0.386
    1UNK    H0V   31  -0.333   0.223   0.462
    1UNK    H0W   32  -0.714   0.039   0.252
    1UNK    H0X   33  -0.683  -0.132   0.251
    1UNK    H0Y   34  -0.538   0.077  -0.032
    1UNK    H0Z   35  -0.687   0.167   0.004
    1UNK    H10   36  -0.678   0.061  -0.136
    1UNK    H11   37  -0.676  -0.484   0.034
    1UNK    H12   38  -0.526  -0.391   0.013
    1UNK    H13   39  -0.651  -0.392  -0.116
    1UNK    H14   40  -1.084   0.134   0.146
    1UNK    H15   41  -1.066  -0.043   0.145
    1UNK    H16   42  -1.073   0.048  -0.009
   1.00000   1.00000   1.00000

