LIGPARGEN GENERATED GRO FILE
   40
    1UNK    C00    1   0.100   0.100   0.000
    1UNK    C01    2  -0.052   0.100   0.000
    1UNK    C02    3  -0.109   0.100   0.142
    1UNK    C03    4  -0.264   0.113   0.158
    1UNK    C04    5  -0.318   0.239   0.089
    1UNK    C05    6  -0.345  -0.009   0.109
    1UNK    C06    7  -0.352  -0.056  -0.041
    1UNK    C07    8  -0.374  -0.199   0.013
    1UNK    C08    9  -0.300  -0.155   0.141
    1UNK    C09   10  -0.296   0.111   0.310
    1UNK    C0A   11  -0.237   0.227   0.397
    1UNK    C0B   12  -0.359   0.213   0.490
    1UNK    C0C   13  -0.436   0.151   0.371
    1UNK    C0D   14  -0.532   0.041   0.412
    1UNK    H0E   15   0.137   0.090  -0.102
    1UNK    H0F   16   0.139   0.016   0.059
    1UNK    H0G   17   0.140   0.193   0.041
    1UNK    H0H   18  -0.083   0.010  -0.053
    1UNK    H0I   19  -0.087   0.187  -0.057
    1UNK    H0J   20  -0.063   0.185   0.195
    1UNK    H0K   21  -0.074   0.011   0.194
    1UNK    H0M   22  -0.306   0.233  -0.020
    1UNK    H0N   23  -0.266   0.329   0.124
    1UNK    H0O   24  -0.425   0.253   0.107
    1UNK    H0P   25  -0.449   0.006   0.141
    1UNK    H0Q   26  -0.262  -0.047  -0.101
    1UNK    H0R   27  -0.435  -0.014  -0.099
    1UNK    H0S   28  -0.327  -0.279  -0.045
    1UNK    H0T   29  -0.480  -0.223   0.029
    1UNK    H0U   30  -0.192  -0.173   0.136
    1UNK    H0V   31  -0.339  -0.197   0.234
    1UNK    H0W   32  -0.262   0.015   0.353
    1UNK    H0X   33  -0.232   0.325   0.348
    1UNK    H0Y   34  -0.140   0.206   0.444
    1UNK    H0Z   35  -0.399   0.307   0.529
    1UNK    H10   36  -0.342   0.145   0.574
    1UNK    H11   37  -0.489   0.229   0.313
    1UNK    H12   38  -0.481  -0.039   0.466
    1UNK    H13   39  -0.580  -0.004   0.324
    1UNK    H14   40  -0.611   0.081   0.476
   1.00000   1.00000   1.00000

