LIGPARGEN GENERATED GRO FILE
   23
    1UNK    C00    1   0.100   0.100   0.000
    1UNK    C01    2  -0.051   0.100   0.000
    1UNK    O02    3  -0.112   0.100   0.107
    1UNK    C03    4  -0.126   0.089  -0.134
    1UNK    C04    5  -0.047   0.155  -0.248
    1UNK    C05    6  -0.140  -0.062  -0.162
    1UNK    C06    7  -0.268   0.155  -0.117
    1UNK    C07    8  -0.264   0.304  -0.080
    1UNK    C08    9  -0.351   0.140  -0.240
    1UNK    N09   10  -0.415   0.128  -0.335
    1UNK    H0A   11   0.136   0.111   0.103
    1UNK    H0B   12   0.138   0.184  -0.058
    1UNK    H0C   13   0.137   0.005  -0.040
    1UNK    H0D   14   0.048   0.103  -0.266
    1UNK    H0E   15  -0.022   0.259  -0.226
    1UNK    H0F   16  -0.101   0.152  -0.343
    1UNK    H0G   17  -0.041  -0.110  -0.169
    1UNK    H0H   18  -0.191  -0.082  -0.257
    1UNK    H0I   19  -0.195  -0.112  -0.082
    1UNK    H0J   20  -0.321   0.103  -0.036
    1UNK    H0K   21  -0.218   0.364  -0.159
    1UNK    H0M   22  -0.208   0.321   0.013
    1UNK    H0N   23  -0.365   0.342  -0.065
   1.00000   1.00000   1.00000

