LIGPARGEN GENERATED GRO FILE
   45
    1UNK    C00    1   0.100   0.100   0.000
    1UNK    C01    2  -0.052   0.100   0.000
    1UNK    C02    3  -0.106   0.100   0.144
    1UNK    C03    4  -0.261   0.089   0.155
    1UNK    C04    5  -0.300   0.090   0.299
    1UNK    N05    6  -0.327   0.087   0.412
    1UNK    O06    7  -0.307   0.208   0.081
    1UNK    C07    8  -0.299   0.331   0.138
    1UNK    O08    9  -0.252   0.357   0.248
    1UNK    O09   10  -0.353   0.420   0.051
    1UNK    C0A   11  -0.384   0.548   0.106
    1UNK    C0B   12  -0.529   0.545   0.151
    1UNK    C0C   13  -0.334  -0.044   0.089
    1UNK    C0D   14  -0.282  -0.183   0.156
    1UNK    C0E   15  -0.338  -0.315   0.099
    1UNK    C0F   16  -0.129  -0.204   0.152
    1UNK    N0G   17  -0.487  -0.029   0.090
    1UNK    C0H   18  -0.537   0.088   0.015
    1UNK    C0I   19  -0.565  -0.143   0.042
    1UNK    H0J   20   0.138   0.105  -0.102
    1UNK    H0K   21   0.139   0.009   0.047
    1UNK    H0M   22   0.139   0.186   0.055
    1UNK    H0N   23  -0.088   0.013  -0.056
    1UNK    H0O   24  -0.087   0.189  -0.053
    1UNK    H0P   25  -0.074   0.195   0.188
    1UNK    H0Q   26  -0.054   0.027   0.205
    1UNK    H0R   27  -0.370   0.623   0.027
    1UNK    H0S   28  -0.317   0.576   0.189
    1UNK    H0T   29  -0.594   0.517   0.067
    1UNK    H0U   30  -0.560   0.643   0.190
    1UNK    H0V   31  -0.543   0.470   0.229
    1UNK    H0W   32  -0.305  -0.047  -0.017
    1UNK    H0X   33  -0.311  -0.181   0.262
    1UNK    H0Y   34  -0.343  -0.312  -0.011
    1UNK    H0Z   35  -0.435  -0.340   0.141
    1UNK    H10   36  -0.277  -0.401   0.126
    1UNK    H11   37  -0.087  -0.171   0.057
    1UNK    H12   38  -0.100  -0.309   0.163
    1UNK    H13   39  -0.080  -0.156   0.236
    1UNK    H14   40  -0.523   0.180   0.071
    1UNK    H15   41  -0.646   0.085   0.002
    1UNK    H16   42  -0.493   0.095  -0.085
    1UNK    H17   43  -0.577  -0.216   0.123
    1UNK    H18   44  -0.523  -0.188  -0.048
    1UNK    H19   45  -0.669  -0.117   0.019
   1.00000   1.00000   1.00000

