LIGPARGEN GENERATED GRO FILE
   36
    1UNK    C00    1   0.100   0.100   0.000
    1UNK    C01    2  -0.053   0.100   0.000
    1UNK    C02    3  -0.112   0.100   0.138
    1UNK    C03    4  -0.248   0.038   0.158
    1UNK    C04    5  -0.127  -0.023   0.225
    1UNK    C05    6  -0.086  -0.160   0.182
    1UNK    C06    7   0.058  -0.206   0.216
    1UNK    C07    8   0.164  -0.096   0.260
    1UNK    C08    9   0.284  -0.065   0.166
    1UNK    C09   10   0.250  -0.118   0.030
    1UNK    C0A   11   0.162  -0.029  -0.057
    1UNK    C0B   12   0.310  -0.225  -0.061
    1UNK    C0C   13   0.240  -0.269   0.061
    1UNK    C0D   14   0.103  -0.303   0.102
    1UNK    H0E   15   0.138   0.129   0.098
    1UNK    H0F   16   0.131   0.182  -0.067
    1UNK    H0G   17  -0.094   0.018  -0.061
    1UNK    H0H   18  -0.087   0.192  -0.049
    1UNK    H0I   19  -0.092   0.194   0.189
    1UNK    H0J   20  -0.293  -0.014   0.075
    1UNK    H0K   21  -0.319   0.092   0.220
    1UNK    H0M   22  -0.120  -0.011   0.333
    1UNK    H0N   23  -0.103  -0.168   0.074
    1UNK    H0O   24  -0.155  -0.231   0.229
    1UNK    H0P   25   0.046  -0.268   0.306
    1UNK    H0Q   26   0.207  -0.129   0.356
    1UNK    H0R   27   0.114  -0.002   0.286
    1UNK    H0S   28   0.374  -0.115   0.205
    1UNK    H0T   29   0.309   0.041   0.166
    1UNK    H0U   30   0.085  -0.090  -0.107
    1UNK    H0V   31   0.228   0.005  -0.138
    1UNK    H0W   32   0.418  -0.233  -0.066
    1UNK    H0X   33   0.261  -0.249  -0.155
    1UNK    H0Y   34   0.309  -0.315   0.133
    1UNK    H0Z   35   0.102  -0.406   0.142
    1UNK    H10   36   0.036  -0.304   0.016
   1.00000   1.00000   1.00000

