
;
; GENERATED BY LigParGen Server
; Jorgensen Lab @ Yale University 
;
[ atomtypes ]
  opls_818  H818     1.0080     0.000    A    2.50000E-01   1.25520E-01
  opls_824  H824     1.0080     0.000    A    2.50000E-01   1.25520E-01
  opls_815  C815    12.0110     0.000    A    3.50000E-01   2.76144E-01
  opls_804  C804    12.0110     0.000    A    3.50000E-01   2.76144E-01
  opls_848  H848     1.0080     0.000    A    2.50000E-01   1.25520E-01
  opls_843  H843     1.0080     0.000    A    2.50000E-01   1.25520E-01
  opls_836  H836     1.0080     0.000    A    2.50000E-01   1.25520E-01
  opls_834  H834     1.0080     0.000    A    2.50000E-01   1.25520E-01
  opls_810  C810    12.0110     0.000    A    3.50000E-01   2.76144E-01
  opls_828  H828     1.0080     0.000    A    2.50000E-01   1.25520E-01
  opls_851  H851     1.0080     0.000    A    2.50000E-01   1.25520E-01
  opls_812  C812    12.0110     0.000    A    3.50000E-01   2.76144E-01
  opls_802  C802    12.0110     0.000    A    3.50000E-01   2.76144E-01
  opls_827  H827     1.0080     0.000    A    2.50000E-01   1.25520E-01
  opls_809  C809    12.0110     0.000    A    3.50000E-01   2.76144E-01
  opls_806  C806    12.0110     0.000    A    3.50000E-01   2.76144E-01
  opls_822  H822     1.0080     0.000    A    2.50000E-01   1.25520E-01
  opls_803  C803    12.0110     0.000    A    3.50000E-01   2.76144E-01
  opls_838  H838     1.0080     0.000    A    2.50000E-01   1.25520E-01
  opls_825  H825     1.0080     0.000    A    2.50000E-01   1.25520E-01
  opls_830  H830     1.0080     0.000    A    2.50000E-01   1.25520E-01
  opls_821  H821     1.0080     0.000    A    2.50000E-01   1.25520E-01
  opls_842  H842     1.0080     0.000    A    2.50000E-01   1.25520E-01
  opls_820  H820     1.0080     0.000    A    2.50000E-01   1.25520E-01
  opls_837  H837     1.0080     0.000    A    2.50000E-01   1.25520E-01
  opls_813  C813    12.0110     0.000    A    3.55000E-01   2.92880E-01
  opls_829  H829     1.0080     0.000    A    2.50000E-01   1.25520E-01
  opls_831  H831     1.0080     0.000    A    2.50000E-01   1.25520E-01
  opls_832  H832     1.0080     0.000    A    2.50000E-01   1.25520E-01
  opls_800  C800    12.0110     0.000    A    3.50000E-01   2.76144E-01
  opls_805  C805    12.0110     0.000    A    3.50000E-01   2.76144E-01
  opls_846  H846     1.0080     0.000    A    2.50000E-01   1.25520E-01
  opls_811  C811    12.0110     0.000    A    3.50000E-01   2.76144E-01
  opls_823  H823     1.0080     0.000    A    2.50000E-01   1.25520E-01
  opls_849  H849     1.0080     0.000    A    2.50000E-01   1.25520E-01
  opls_826  H826     1.0080     0.000    A    2.50000E-01   1.25520E-01
  opls_835  H835     1.0080     0.000    A    2.50000E-01   1.25520E-01
  opls_841  H841     1.0080     0.000    A    2.50000E-01   1.25520E-01
  opls_819  H819     1.0080     0.000    A    2.50000E-01   1.25520E-01
  opls_816  C816    12.0110     0.000    A    3.50000E-01   2.76144E-01
  opls_833  H833     1.0080     0.000    A    2.50000E-01   1.25520E-01
  opls_839  H839     1.0080     0.000    A    2.50000E-01   1.25520E-01
  opls_817  C817    12.0110     0.000    A    3.50000E-01   2.76144E-01
  opls_801  C801    12.0110     0.000    A    3.50000E-01   2.76144E-01
  opls_808  C808    12.0110     0.000    A    3.50000E-01   2.76144E-01
  opls_850  H850     1.0080     0.000    A    2.50000E-01   1.25520E-01
  opls_840  H840     1.0080     0.000    A    2.50000E-01   1.25520E-01
  opls_814  O814    15.9990     0.000    A    2.96000E-01   8.78640E-01
  opls_847  H847     1.0080     0.000    A    2.50000E-01   1.25520E-01
  opls_844  H844     1.0080     0.000    A    2.50000E-01   1.25520E-01
  opls_845  H845     1.0080     0.000    A    2.50000E-01   1.25520E-01
  opls_807  C807    12.0110     0.000    A    3.50000E-01   2.76144E-01
[ moleculetype ]
; Name               nrexcl
UNK                   3
[ atoms ]
;   nr       type  resnr residue  atom   cgnr     charge       mass  
     1   opls_800      1    UNK   C00      1     -0.239    12.0110 
     2   opls_801      1    UNK   C01      1    -0.1797    12.0110 
     3   opls_802      1    UNK   C02      1    -0.1785    12.0110 
     4   opls_803      1    UNK   C03      1    -0.1803    12.0110 
     5   opls_804      1    UNK   C04      1    -0.1795    12.0110 
     6   opls_805      1    UNK   C05      1    -0.1812    12.0110 
     7   opls_806      1    UNK   C06      1    -0.1759    12.0110 
     8   opls_807      1    UNK   C07      1    -0.1752    12.0110 
     9   opls_808      1    UNK   C08      1    -0.1814    12.0110 
    10   opls_809      1    UNK   C09      1    -0.1637    12.0110 
    11   opls_810      1    UNK   C0A      1    -0.0887    12.0110 
    12   opls_811      1    UNK   C0B      1    -0.2285    12.0110 
    13   opls_812      1    UNK   C0C      1    -0.2283    12.0110 
    14   opls_813      1    UNK   C0D      1     0.3735    12.0110 
    15   opls_814      1    UNK   O0E      1    -0.4481    15.9990 
    16   opls_815      1    UNK   C0F      1    -0.1599    12.0110 
    17   opls_816      1    UNK   C0G      1    -0.2321    12.0110 
    18   opls_817      1    UNK   C0H      1    -0.2312    12.0110 
    19   opls_818      1    UNK   H0I      1     0.0809     1.0080 
    20   opls_819      1    UNK   H0J      1     0.0809     1.0080 
    21   opls_820      1    UNK   H0K      1     0.0809     1.0080 
    22   opls_821      1    UNK   H0M      1     0.0883     1.0080 
    23   opls_822      1    UNK   H0N      1     0.0883     1.0080 
    24   opls_823      1    UNK   H0O      1     0.0899     1.0080 
    25   opls_824      1    UNK   H0P      1     0.0899     1.0080 
    26   opls_825      1    UNK   H0Q      1     0.0888     1.0080 
    27   opls_826      1    UNK   H0R      1     0.0888     1.0080 
    28   opls_827      1    UNK   H0S      1     0.0902     1.0080 
    29   opls_828      1    UNK   H0T      1     0.0902     1.0080 
    30   opls_829      1    UNK   H0U      1     0.0895     1.0080 
    31   opls_830      1    UNK   H0V      1     0.0895     1.0080 
    32   opls_831      1    UNK   H0W      1     0.0888     1.0080 
    33   opls_832      1    UNK   H0X      2     0.0888     1.0080 
    34   opls_833      1    UNK   H0Y      2     0.0913     1.0080 
    35   opls_834      1    UNK   H0Z      2     0.0913     1.0080 
    36   opls_835      1    UNK   H10      2     0.0886     1.0080 
    37   opls_836      1    UNK   H11      2     0.0886     1.0080 
    38   opls_837      1    UNK   H12      2      0.104     1.0080 
    39   opls_838      1    UNK   H13      2      0.104     1.0080 
    40   opls_839      1    UNK   H14      2     0.0891     1.0080 
    41   opls_840      1    UNK   H15      2     0.0891     1.0080 
    42   opls_841      1    UNK   H16      2     0.0891     1.0080 
    43   opls_842      1    UNK   H17      2     0.0891     1.0080 
    44   opls_843      1    UNK   H18      2     0.0891     1.0080 
    45   opls_844      1    UNK   H19      2     0.0891     1.0080 
    46   opls_845      1    UNK   H1A      2     0.1118     1.0080 
    47   opls_846      1    UNK   H1B      2     0.0917     1.0080 
    48   opls_847      1    UNK   H1C      2     0.0917     1.0080 
    49   opls_848      1    UNK   H1D      2     0.0917     1.0080 
    50   opls_849      1    UNK   H1E      2     0.0915     1.0080 
    51   opls_850      1    UNK   H1F      2     0.0915     1.0080 
    52   opls_851      1    UNK   H1G      2     0.0915     1.0080 
[ bonds ]
    2     1     1      0.1529 224262.400
    3     2     1      0.1529 224262.400
    4     3     1      0.1529 224262.400
    5     4     1      0.1529 224262.400
    6     5     1      0.1529 224262.400
    7     6     1      0.1529 224262.400
    8     7     1      0.1529 224262.400
    9     8     1      0.1529 224262.400
   10     9     1      0.1529 224262.400
   11    10     1      0.1529 224262.400
   12    11     1      0.1529 224262.400
   13    11     1      0.1529 224262.400
   14    11     1      0.1522 265265.600
   15    14     1      0.1229 476976.000
   16    14     1      0.1522 265265.600
   17    16     1      0.1529 224262.400
   18    16     1      0.1529 224262.400
   19     1     1      0.1090 284512.000
   20     1     1      0.1090 284512.000
   21     1     1      0.1090 284512.000
   22     2     1      0.1090 284512.000
   23     2     1      0.1090 284512.000
   24     3     1      0.1090 284512.000
   25     3     1      0.1090 284512.000
   26     4     1      0.1090 284512.000
   27     4     1      0.1090 284512.000
   28     5     1      0.1090 284512.000
   29     5     1      0.1090 284512.000
   30     6     1      0.1090 284512.000
   31     6     1      0.1090 284512.000
   32     7     1      0.1090 284512.000
   33     7     1      0.1090 284512.000
   34     8     1      0.1090 284512.000
   35     8     1      0.1090 284512.000
   36     9     1      0.1090 284512.000
   37     9     1      0.1090 284512.000
   38    10     1      0.1090 284512.000
   39    10     1      0.1090 284512.000
   40    12     1      0.1090 284512.000
   41    12     1      0.1090 284512.000
   42    12     1      0.1090 284512.000
   43    13     1      0.1090 284512.000
   44    13     1      0.1090 284512.000
   45    13     1      0.1090 284512.000
   46    16     1      0.1090 284512.000
   47    17     1      0.1090 284512.000
   48    17     1      0.1090 284512.000
   49    17     1      0.1090 284512.000
   50    18     1      0.1090 284512.000
   51    18     1      0.1090 284512.000
   52    18     1      0.1090 284512.000

[ angles ]
;  ai    aj    ak funct            c0            c1            c2            c3 
    1     2     3     1    112.700    488.273
    2     3     4     1    112.700    488.273
    3     4     5     1    112.700    488.273
    4     5     6     1    112.700    488.273
    5     6     7     1    112.700    488.273
    6     7     8     1    112.700    488.273
    7     8     9     1    112.700    488.273
    8     9    10     1    112.700    488.273
    9    10    11     1    112.700    488.273
   10    11    12     1    112.700    488.273
   10    11    13     1    112.700    488.273
   10    11    14     1    111.100    527.184
   11    14    15     1    120.400    669.440
   11    14    16     1    116.000    585.760
   14    16    17     1    111.100    527.184
   14    16    18     1    111.100    527.184
    2     1    19     1    110.700    313.800
    2     1    20     1    110.700    313.800
    2     1    21     1    110.700    313.800
    1     2    22     1    110.700    313.800
    1     2    23     1    110.700    313.800
    2     3    24     1    110.700    313.800
    2     3    25     1    110.700    313.800
    3     4    26     1    110.700    313.800
    3     4    27     1    110.700    313.800
    4     5    28     1    110.700    313.800
    4     5    29     1    110.700    313.800
    5     6    30     1    110.700    313.800
    5     6    31     1    110.700    313.800
    6     7    32     1    110.700    313.800
    6     7    33     1    110.700    313.800
    7     8    34     1    110.700    313.800
    7     8    35     1    110.700    313.800
    8     9    36     1    110.700    313.800
    8     9    37     1    110.700    313.800
    9    10    38     1    110.700    313.800
    9    10    39     1    110.700    313.800
   11    12    40     1    110.700    313.800
   11    12    41     1    110.700    313.800
   11    12    42     1    110.700    313.800
   11    13    43     1    110.700    313.800
   11    13    44     1    110.700    313.800
   11    13    45     1    110.700    313.800
   14    16    46     1    109.500    292.880
   16    17    47     1    110.700    313.800
   16    17    48     1    110.700    313.800
   16    17    49     1    110.700    313.800
   16    18    50     1    110.700    313.800
   16    18    51     1    110.700    313.800
   16    18    52     1    110.700    313.800
   11    10    38     1    110.700    313.800
   40    12    41     1    107.800    276.144
   18    16    46     1    110.700    313.800
   19     1    21     1    107.800    276.144
   26     4    27     1    107.800    276.144
   41    12    42     1    107.800    276.144
    4     3    24     1    110.700    313.800
   12    11    14     1    111.100    527.184
   51    18    52     1    107.800    276.144
   20     1    21     1    107.800    276.144
    5     4    27     1    110.700    313.800
   48    17    49     1    107.800    276.144
   24     3    25     1    107.800    276.144
   34     8    35     1    107.800    276.144
   15    14    16     1    120.400    669.440
    5     4    26     1    110.700    313.800
    9     8    34     1    110.700    313.800
    8     7    32     1    110.700    313.800
    8     7    33     1    110.700    313.800
   13    11    14     1    111.100    527.184
   47    17    49     1    107.800    276.144
   38    10    39     1    107.800    276.144
    6     5    28     1    110.700    313.800
    7     6    31     1    110.700    313.800
   47    17    48     1    107.800    276.144
   32     7    33     1    107.800    276.144
   44    13    45     1    107.800    276.144
   50    18    51     1    107.800    276.144
   17    16    18     1    112.700    488.273
   40    12    42     1    107.800    276.144
   43    13    45     1    107.800    276.144
   43    13    44     1    107.800    276.144
    4     3    25     1    110.700    313.800
   17    16    46     1    110.700    313.800
   22     2    23     1    107.800    276.144
   28     5    29     1    107.800    276.144
   36     9    37     1    107.800    276.144
    7     6    30     1    110.700    313.800
   30     6    31     1    107.800    276.144
   11    10    39     1    110.700    313.800
    3     2    22     1    110.700    313.800
    3     2    23     1    110.700    313.800
    9     8    35     1    110.700    313.800
   10     9    37     1    110.700    313.800
   10     9    36     1    110.700    313.800
   50    18    52     1    107.800    276.144
   12    11    13     1    112.700    488.273
   19     1    20     1    107.800    276.144
    6     5    29     1    110.700    313.800

[ dihedrals ]
; IMPROPER DIHEDRAL ANGLES 
;  ai    aj    ak    al funct            c0            c1            c2            c3            c4            c5
    16    14    11    15    4        180.000     43.932     2  

[ dihedrals ]
; PROPER DIHEDRAL ANGLES
;  ai    aj    ak    al funct            c0            c1            c2            c3            c4            c5
   14   11   10    9        3      -4.960   6.286   1.310  -2.636  -0.000   0.000
   16   14   11   12        3       0.818  -7.906   0.602   6.485  -0.000   0.000
   16   14   11   13        3       0.818  -7.906   0.602   6.485  -0.000   0.000
   16   14   11   10        3       0.818  -7.906   0.602   6.485  -0.000   0.000
   18   16   14   11        3       0.818  -7.906   0.602   6.485  -0.000   0.000
   17   16   14   11        3       0.818  -7.906   0.602   6.485  -0.000   0.000
   18   16   14   15        3       0.000   0.000   0.000  -0.000  -0.000   0.000
   17   16   14   15        3       0.000   0.000   0.000  -0.000  -0.000   0.000
    4    3    2    1        3       2.301  -1.464   0.837  -1.674  -0.000   0.000
   13   11   10    9        3       2.301  -1.464   0.837  -1.674  -0.000   0.000
    5    4    3    2        3       2.301  -1.464   0.837  -1.674  -0.000   0.000
    6    5    4    3        3       2.301  -1.464   0.837  -1.674  -0.000   0.000
    7    6    5    4        3       2.301  -1.464   0.837  -1.674  -0.000   0.000
    9    8    7    6        3       2.301  -1.464   0.837  -1.674  -0.000   0.000
   10    9    8    7        3       2.301  -1.464   0.837  -1.674  -0.000   0.000
    8    7    6    5        3       2.301  -1.464   0.837  -1.674  -0.000   0.000
   12   11   10    9        3       2.301  -1.464   0.837  -1.674  -0.000   0.000
   11   10    9    8        3       2.301  -1.464   0.837  -1.674  -0.000   0.000
   46   16   14   11        3       0.575   1.726   0.000  -2.301  -0.000   0.000
   46   16   14   15        3       0.000   0.000   0.000  -0.000  -0.000   0.000
   41   12   11   14        3      -0.209  -0.628   0.000   0.837  -0.000   0.000
   39   10   11   14        3      -0.209  -0.628   0.000   0.837  -0.000   0.000
   44   13   11   14        3      -0.209  -0.628   0.000   0.837  -0.000   0.000
   43   13   11   14        3      -0.209  -0.628   0.000   0.837  -0.000   0.000
   52   18   16   14        3      -0.209  -0.628   0.000   0.837  -0.000   0.000
   42   12   11   14        3      -0.209  -0.628   0.000   0.837  -0.000   0.000
   51   18   16   14        3      -0.209  -0.628   0.000   0.837  -0.000   0.000
   48   17   16   14        3      -0.209  -0.628   0.000   0.837  -0.000   0.000
   50   18   16   14        3      -0.209  -0.628   0.000   0.837  -0.000   0.000
   47   17   16   14        3      -0.209  -0.628   0.000   0.837  -0.000   0.000
   49   17   16   14        3      -0.209  -0.628   0.000   0.837  -0.000   0.000
   45   13   11   14        3      -0.209  -0.628   0.000   0.837  -0.000   0.000
   40   12   11   14        3      -0.209  -0.628   0.000   0.837  -0.000   0.000
   38   10   11   14        3      -0.209  -0.628   0.000   0.837  -0.000   0.000
   35    8    7    6        3       0.628   1.883   0.000  -2.510  -0.000   0.000
   21    1    2    3        3       0.628   1.883   0.000  -2.510  -0.000   0.000
   45   13   11   10        3       0.628   1.883   0.000  -2.510  -0.000   0.000
   36    9   10   11        3       0.628   1.883   0.000  -2.510  -0.000   0.000
   39   10    9    8        3       0.628   1.883   0.000  -2.510  -0.000   0.000
   40   12   11   13        3       0.628   1.883   0.000  -2.510  -0.000   0.000
   30    6    7    8        3       0.628   1.883   0.000  -2.510  -0.000   0.000
   33    7    6    5        3       0.628   1.883   0.000  -2.510  -0.000   0.000
   49   17   16   18        3       0.628   1.883   0.000  -2.510  -0.000   0.000
   31    6    5    4        3       0.628   1.883   0.000  -2.510  -0.000   0.000
   28    5    6    7        3       0.628   1.883   0.000  -2.510  -0.000   0.000
   38   10   11   12        3       0.628   1.883   0.000  -2.510  -0.000   0.000
   26    4    3    2        3       0.628   1.883   0.000  -2.510  -0.000   0.000
   41   12   11   13        3       0.628   1.883   0.000  -2.510  -0.000   0.000
   45   13   11   12        3       0.628   1.883   0.000  -2.510  -0.000   0.000
   36    9    8    7        3       0.628   1.883   0.000  -2.510  -0.000   0.000
   37    9   10   11        3       0.628   1.883   0.000  -2.510  -0.000   0.000
   27    4    5    6        3       0.628   1.883   0.000  -2.510  -0.000   0.000
   41   12   11   10        3       0.628   1.883   0.000  -2.510  -0.000   0.000
   43   13   11   12        3       0.628   1.883   0.000  -2.510  -0.000   0.000
   25    3    2    1        3       0.628   1.883   0.000  -2.510  -0.000   0.000
   34    8    9   10        3       0.628   1.883   0.000  -2.510  -0.000   0.000
   48   17   16   18        3       0.628   1.883   0.000  -2.510  -0.000   0.000
   39   10   11   13        3       0.628   1.883   0.000  -2.510  -0.000   0.000
   29    5    6    7        3       0.628   1.883   0.000  -2.510  -0.000   0.000
   24    3    2    1        3       0.628   1.883   0.000  -2.510  -0.000   0.000
   27    4    3    2        3       0.628   1.883   0.000  -2.510  -0.000   0.000
   32    7    6    5        3       0.628   1.883   0.000  -2.510  -0.000   0.000
   33    7    8    9        3       0.628   1.883   0.000  -2.510  -0.000   0.000
   20    1    2    3        3       0.628   1.883   0.000  -2.510  -0.000   0.000
   31    6    7    8        3       0.628   1.883   0.000  -2.510  -0.000   0.000
   50   18   16   17        3       0.628   1.883   0.000  -2.510  -0.000   0.000
   26    4    5    6        3       0.628   1.883   0.000  -2.510  -0.000   0.000
   24    3    4    5        3       0.628   1.883   0.000  -2.510  -0.000   0.000
   29    5    4    3        3       0.628   1.883   0.000  -2.510  -0.000   0.000
   30    6    5    4        3       0.628   1.883   0.000  -2.510  -0.000   0.000
   44   13   11   10        3       0.628   1.883   0.000  -2.510  -0.000   0.000
   22    2    3    4        3       0.628   1.883   0.000  -2.510  -0.000   0.000
   42   12   11   10        3       0.628   1.883   0.000  -2.510  -0.000   0.000
   37    9    8    7        3       0.628   1.883   0.000  -2.510  -0.000   0.000
   52   18   16   17        3       0.628   1.883   0.000  -2.510  -0.000   0.000
   35    8    9   10        3       0.628   1.883   0.000  -2.510  -0.000   0.000
   51   18   16   17        3       0.628   1.883   0.000  -2.510  -0.000   0.000
   42   12   11   13        3       0.628   1.883   0.000  -2.510  -0.000   0.000
   38   10    9    8        3       0.628   1.883   0.000  -2.510  -0.000   0.000
   34    8    7    6        3       0.628   1.883   0.000  -2.510  -0.000   0.000
   25    3    4    5        3       0.628   1.883   0.000  -2.510  -0.000   0.000
   47   17   16   18        3       0.628   1.883   0.000  -2.510  -0.000   0.000
   44   13   11   12        3       0.628   1.883   0.000  -2.510  -0.000   0.000
   39   10   11   12        3       0.628   1.883   0.000  -2.510  -0.000   0.000
   38   10   11   13        3       0.628   1.883   0.000  -2.510  -0.000   0.000
   43   13   11   10        3       0.628   1.883   0.000  -2.510  -0.000   0.000
   32    7    8    9        3       0.628   1.883   0.000  -2.510  -0.000   0.000
   28    5    4    3        3       0.628   1.883   0.000  -2.510  -0.000   0.000
   23    2    3    4        3       0.628   1.883   0.000  -2.510  -0.000   0.000
   40   12   11   10        3       0.628   1.883   0.000  -2.510  -0.000   0.000
   19    1    2    3        3       0.628   1.883   0.000  -2.510  -0.000   0.000
   28    5    4   26        3       0.628   1.883   0.000  -2.510  -0.000   0.000
   36    9    8   34        3       0.628   1.883   0.000  -2.510  -0.000   0.000
   30    6    5   28        3       0.628   1.883   0.000  -2.510  -0.000   0.000
   22    2    1   21        3       0.628   1.883   0.000  -2.510  -0.000   0.000
   25    3    2   22        3       0.628   1.883   0.000  -2.510  -0.000   0.000
   34    8    7   33        3       0.628   1.883   0.000  -2.510  -0.000   0.000
   35    8    7   32        3       0.628   1.883   0.000  -2.510  -0.000   0.000
   29    5    4   26        3       0.628   1.883   0.000  -2.510  -0.000   0.000
   28    5    4   27        3       0.628   1.883   0.000  -2.510  -0.000   0.000
   48   17   16   46        3       0.628   1.883   0.000  -2.510  -0.000   0.000
   52   18   16   46        3       0.628   1.883   0.000  -2.510  -0.000   0.000
   26    4    3   24        3       0.628   1.883   0.000  -2.510  -0.000   0.000
   36    9    8   35        3       0.628   1.883   0.000  -2.510  -0.000   0.000
   37    9    8   34        3       0.628   1.883   0.000  -2.510  -0.000   0.000
   23    2    1   20        3       0.628   1.883   0.000  -2.510  -0.000   0.000
   24    3    2   23        3       0.628   1.883   0.000  -2.510  -0.000   0.000
   34    8    7   32        3       0.628   1.883   0.000  -2.510  -0.000   0.000
   32    7    6   30        3       0.628   1.883   0.000  -2.510  -0.000   0.000
   25    3    2   23        3       0.628   1.883   0.000  -2.510  -0.000   0.000
   47   17   16   46        3       0.628   1.883   0.000  -2.510  -0.000   0.000
   37    9    8   35        3       0.628   1.883   0.000  -2.510  -0.000   0.000
   39   10    9   36        3       0.628   1.883   0.000  -2.510  -0.000   0.000
   33    7    6   30        3       0.628   1.883   0.000  -2.510  -0.000   0.000
   23    2    1   21        3       0.628   1.883   0.000  -2.510  -0.000   0.000
   32    7    6   31        3       0.628   1.883   0.000  -2.510  -0.000   0.000
   23    2    1   19        3       0.628   1.883   0.000  -2.510  -0.000   0.000
   30    6    5   29        3       0.628   1.883   0.000  -2.510  -0.000   0.000
   24    3    2   22        3       0.628   1.883   0.000  -2.510  -0.000   0.000
   22    2    1   20        3       0.628   1.883   0.000  -2.510  -0.000   0.000
   27    4    3   25        3       0.628   1.883   0.000  -2.510  -0.000   0.000
   38   10    9   36        3       0.628   1.883   0.000  -2.510  -0.000   0.000
   33    7    6   31        3       0.628   1.883   0.000  -2.510  -0.000   0.000
   29    5    4   27        3       0.628   1.883   0.000  -2.510  -0.000   0.000
   31    6    5   28        3       0.628   1.883   0.000  -2.510  -0.000   0.000
   50   18   16   46        3       0.628   1.883   0.000  -2.510  -0.000   0.000
   39   10    9   37        3       0.628   1.883   0.000  -2.510  -0.000   0.000
   31    6    5   29        3       0.628   1.883   0.000  -2.510  -0.000   0.000
   35    8    7   33        3       0.628   1.883   0.000  -2.510  -0.000   0.000
   38   10    9   37        3       0.628   1.883   0.000  -2.510  -0.000   0.000
   51   18   16   46        3       0.628   1.883   0.000  -2.510  -0.000   0.000
   49   17   16   46        3       0.628   1.883   0.000  -2.510  -0.000   0.000
   27    4    3   24        3       0.628   1.883   0.000  -2.510  -0.000   0.000
   26    4    3   25        3       0.628   1.883   0.000  -2.510  -0.000   0.000
   22    2    1   19        3       0.628   1.883   0.000  -2.510  -0.000   0.000
   15   14   11   13        3       0.000   0.000   0.000  -0.000  -0.000   0.000
   15   14   11   10        3       0.000   0.000   0.000  -0.000  -0.000   0.000
   15   14   11   12        3       0.000   0.000   0.000  -0.000  -0.000   0.000

[ pairs ]
     1     4    1
     2     5    1
     3     6    1
     4     7    1
     5     8    1
     6     9    1
     7    10    1
     8    11    1
     9    12    1
     9    13    1
     3    19    1
     9    14    1
     3    20    1
     3    21    1
    10    15    1
     1    24    1
    10    16    1
     4    22    1
     1    25    1
    12    15    1
     4    23    1
    13    15    1
    12    16    1
    11    17    1
     2    26    1
    13    16    1
    11    18    1
     5    24    1
     2    27    1
     5    25    1
     3    28    1
    15    17    1
     6    26    1
     3    29    1
    15    18    1
     6    27    1
     4    30    1
     7    28    1
     4    31    1
     7    29    1
     5    32    1
     8    30    1
     5    33    1
     8    31    1
     6    34    1
    19    22    1
     9    32    1
     6    35    1
    20    22    1
    19    23    1
     9    33    1
    21    22    1
    20    23    1
     7    36    1
    21    23    1
    10    34    1
     7    37    1
    10    35    1
    22    24    1
     8    38    1
    23    24    1
    22    25    1
    11    36    1
     8    39    1
    23    25    1
    11    37    1
    24    26    1
    12    38    1
    10    40    1
    25    26    1
    24    27    1
    13    38    1
    12    39    1
    10    41    1
    25    27    1
    14    38    1
    13    39    1
    10    42    1
    14    39    1
    13    40    1
    10    43    1
    26    28    1
    14    40    1
    13    41    1
    10    44    1
    27    28    1
    26    29    1
    14    41    1
    13    42    1
    12    43    1
    10    45    1
    27    29    1
    14    42    1
    12    44    1
    14    43    1
    12    45    1
    11    46    1
    28    30    1
    14    44    1
    29    30    1
    28    31    1
    14    45    1
    29    31    1
    15    46    1
    14    47    1
    30    32    1
    14    48    1
    31    32    1
    30    33    1
    14    49    1
    31    33    1
    14    50    1
    18    47    1
    14    51    1
    32    34    1
    18    48    1
    14    52    1
    33    34    1
    32    35    1
    18    49    1
    17    50    1
    33    35    1
    17    51    1
    17    52    1
    34    36    1
    35    36    1
    34    37    1
    35    37    1
    36    38    1
    37    38    1
    36    39    1
    37    39    1
    46    47    1
    46    48    1
    46    49    1
    46    50    1
    46    51    1
    46    52    1

