LIGPARGEN GENERATED GRO FILE
   52
    1UNK    C00    1   0.100   0.100   0.000
    1UNK    C01    2  -0.052   0.100   0.000
    1UNK    C02    3  -0.107   0.100   0.143
    1UNK    C03    4  -0.259   0.100   0.143
    1UNK    C04    5  -0.314   0.100   0.285
    1UNK    C05    6  -0.467   0.100   0.282
    1UNK    C06    7  -0.529   0.094   0.421
    1UNK    C07    8  -0.682   0.088   0.417
    1UNK    C08    9  -0.731  -0.037   0.343
    1UNK    C09   10  -0.883  -0.049   0.336
    1UNK    C0A   11  -0.935  -0.172   0.255
    1UNK    C0B   12  -0.883  -0.167   0.110
    1UNK    C0C   13  -0.890  -0.302   0.323
    1UNK    C0D   14  -1.089  -0.167   0.253
    1UNK    O0E   15  -1.151  -0.076   0.310
    1UNK    C0F   16  -1.167  -0.277   0.180
    1UNK    C0G   17  -1.257  -0.351   0.279
    1UNK    C0H   18  -1.248  -0.214   0.067
    1UNK    H0I   19   0.138   0.100  -0.103
    1UNK    H0J   20   0.139   0.011   0.051
    1UNK    H0K   21   0.139   0.189   0.051
    1UNK    H0M   22  -0.088   0.012  -0.054
    1UNK    H0N   23  -0.088   0.188  -0.054
    1UNK    H0O   24  -0.070   0.188   0.196
    1UNK    H0P   25  -0.070   0.012   0.196
    1UNK    H0Q   26  -0.296   0.012   0.089
    1UNK    H0R   27  -0.296   0.188   0.089
    1UNK    H0S   28  -0.278   0.188   0.340
    1UNK    H0T   29  -0.279   0.011   0.339
    1UNK    H0U   30  -0.497   0.014   0.222
    1UNK    H0V   31  -0.503   0.190   0.230
    1UNK    H0W   32  -0.498   0.182   0.479
    1UNK    H0X   33  -0.490   0.006   0.475
    1UNK    H0Y   34  -0.721   0.178   0.369
    1UNK    H0Z   35  -0.721   0.087   0.520
    1UNK    H10   36  -0.688  -0.125   0.392
    1UNK    H11   37  -0.693  -0.034   0.241
    1UNK    H12   38  -0.922   0.043   0.290
    1UNK    H13   39  -0.923  -0.052   0.438
    1UNK    H14   40  -0.774  -0.176   0.105
    1UNK    H15   41  -0.911  -0.072   0.062
    1UNK    H16   42  -0.923  -0.248   0.049
    1UNK    H17   43  -0.782  -0.308   0.333
    1UNK    H18   44  -0.920  -0.390   0.265
    1UNK    H19   45  -0.935  -0.312   0.422
    1UNK    H1A   46  -1.098  -0.349   0.137
    1UNK    H1B   47  -1.314  -0.282   0.342
    1UNK    H1C   48  -1.196  -0.413   0.346
    1UNK    H1D   49  -1.328  -0.416   0.227
    1UNK    H1E   50  -1.321  -0.142   0.106
    1UNK    H1F   51  -1.303  -0.291   0.012
    1UNK    H1G   52  -1.182  -0.162  -0.003
   1.00000   1.00000   1.00000

