LIGPARGEN GENERATED GRO FILE
   46
    1UNK    C00    1   0.100   0.100   0.000
    1UNK    C01    2  -0.053   0.100   0.000
    1UNK    C02    3  -0.114   0.100   0.142
    1UNK    C03    4  -0.082   0.233   0.217
    1UNK    C04    5  -0.065   0.211   0.369
    1UNK    C05    6  -0.183   0.261   0.452
    1UNK    C06    7  -0.199   0.187   0.585
    1UNK    C07    8  -0.232   0.037   0.570
    1UNK    C08    9  -0.371   0.013   0.509
    1UNK    C09   10  -0.394  -0.118   0.429
    1UNK    C0A   11  -0.293  -0.223   0.452
    1UNK    N0B   12  -0.213  -0.305   0.469
    1UNK    C0C   13  -0.423  -0.091   0.277
    1UNK    C0D   14  -0.516  -0.201   0.222
    1UNK    C0E   15  -0.298  -0.076   0.186
    1UNK    C0F   16  -0.268   0.071   0.147
    1UNK    C0G   17  -0.343   0.107   0.018
    1UNK    H0H   18   0.138   0.093  -0.103
    1UNK    H0I   19   0.139   0.014   0.056
    1UNK    H0J   20   0.142   0.191   0.043
    1UNK    H0K   21  -0.085   0.010  -0.053
    1UNK    H0M   22  -0.088   0.187  -0.057
    1UNK    H0N   23  -0.062   0.020   0.196
    1UNK    H0O   24  -0.158   0.309   0.196
    1UNK    H0P   25   0.013   0.275   0.182
    1UNK    H0Q   26   0.024   0.265   0.402
    1UNK    H0R   27  -0.043   0.105   0.388
    1UNK    H0S   28  -0.277   0.257   0.395
    1UNK    H0T   29  -0.167   0.368   0.473
    1UNK    H0U   30  -0.278   0.236   0.643
    1UNK    H0V   31  -0.106   0.197   0.643
    1UNK    H0W   32  -0.230  -0.008   0.670
    1UNK    H0X   33  -0.154  -0.012   0.513
    1UNK    H0Y   34  -0.404   0.098   0.449
    1UNK    H0Z   35  -0.442   0.012   0.594
    1UNK    H10   36  -0.487  -0.159   0.471
    1UNK    H11   37  -0.483   0.001   0.270
    1UNK    H12   38  -0.467  -0.299   0.222
    1UNK    H13   39  -0.547  -0.177   0.120
    1UNK    H14   40  -0.607  -0.208   0.283
    1UNK    H15   41  -0.311  -0.134   0.094
    1UNK    H16   42  -0.211  -0.120   0.236
    1UNK    H17   43  -0.311   0.134   0.225
    1UNK    H18   44  -0.315   0.041  -0.065
    1UNK    H19   45  -0.322   0.210  -0.013
    1UNK    H1A   46  -0.451   0.098   0.031
   1.00000   1.00000   1.00000

