LIGPARGEN GENERATED GRO FILE
   27
    1UNK    C00    1   0.100   0.100   0.000
    1UNK    C01    2  -0.052   0.100   0.000
    1UNK    C02    3  -0.116   0.100   0.140
    1UNK    C03    4  -0.069   0.215   0.232
    1UNK    C04    5  -0.110   0.354   0.185
    1UNK    C05    6  -0.269   0.097   0.128
    1UNK    O06    7  -0.326   0.108   0.018
    1UNK    C07    8  -0.350   0.081   0.255
    1UNK    C08    9  -0.482   0.010   0.226
    1UNK    C09   10  -0.459  -0.131   0.178
    1UNK    O0A   11  -0.359  -0.197   0.206
    1UNK    H0B   12   0.137   0.078  -0.101
    1UNK    H0C   13   0.140   0.024   0.068
    1UNK    H0D   14   0.140   0.198   0.029
    1UNK    H0E   15  -0.086   0.010  -0.054
    1UNK    H0F   16  -0.088   0.185  -0.059
    1UNK    H0G   17  -0.088   0.005   0.188
    1UNK    H0H   18   0.040   0.211   0.242
    1UNK    H0I   19  -0.109   0.200   0.333
    1UNK    H0J   20  -0.082   0.371   0.080
    1UNK    H0K   21  -0.060   0.429   0.246
    1UNK    H0M   22  -0.218   0.369   0.195
    1UNK    H0N   23  -0.369   0.181   0.295
    1UNK    H0O   24  -0.292   0.025   0.328
    1UNK    H0P   25  -0.538   0.063   0.149
    1UNK    H0Q   26  -0.544   0.006   0.316
    1UNK    H0R   27  -0.542  -0.176   0.122
   1.00000   1.00000   1.00000

