LIGPARGEN GENERATED GRO FILE
   61
    1UNK    C00    1   0.100   0.100   0.000
    1UNK    C01    2  -0.052   0.100   0.000
    1UNK    C02    3  -0.108   0.100   0.142
    1UNK    C03    4  -0.093   0.216   0.251
    1UNK    C04    5   0.014   0.250   0.354
    1UNK    C05    6   0.141   0.308   0.292
    1UNK    C06    7   0.044   0.131   0.443
    1UNK    C07    8  -0.083   0.097   0.525
    1UNK    C08    9  -0.049   0.001   0.641
    1UNK    C09   10   0.042   0.068   0.746
    1UNK    C0A   11   0.075  -0.019   0.868
    1UNK    C0B   12   0.144  -0.150   0.830
    1UNK    C0C   13   0.164   0.061   0.963
    1UNK    C0D   14  -0.196   0.044   0.429
    1UNK    C0E   15  -0.166  -0.100   0.388
    1UNK    C0F   16  -0.226   0.154   0.316
    1UNK    C0G   17  -0.322   0.258   0.378
    1UNK    C0H   18  -0.266   0.124   0.158
    1UNK    C0I   19  -0.318   0.249   0.079
    1UNK    C0J   20  -0.369   0.011   0.136
    1UNK    C0K   21  -0.401  -0.017  -0.011
    1UNK    H0M   22   0.138   0.062  -0.096
    1UNK    H0N   23   0.141   0.037   0.080
    1UNK    H0O   24   0.138   0.202   0.013
    1UNK    H0P   25  -0.085   0.008  -0.050
    1UNK    H0Q   26  -0.088   0.184  -0.060
    1UNK    H0R   27  -0.077   0.003   0.181
    1UNK    H0S   28  -0.107   0.314   0.202
    1UNK    H0T   29  -0.026   0.330   0.417
    1UNK    H0U   30   0.197   0.233   0.237
    1UNK    H0V   31   0.206   0.347   0.371
    1UNK    H0W   32   0.118   0.391   0.225
    1UNK    H0X   33   0.126   0.159   0.509
    1UNK    H0Y   34   0.078   0.046   0.385
    1UNK    H0Z   35  -0.120   0.189   0.571
    1UNK    H10   36   0.002  -0.088   0.602
    1UNK    H11   37  -0.141  -0.031   0.690
    1UNK    H12   38  -0.007   0.161   0.780
    1UNK    H13   39   0.137   0.098   0.701
    1UNK    H14   40  -0.018  -0.044   0.921
    1UNK    H15   41   0.233  -0.130   0.768
    1UNK    H16   42   0.077  -0.215   0.773
    1UNK    H17   43   0.176  -0.205   0.919
    1UNK    H18   44   0.260   0.087   0.915
    1UNK    H19   45   0.187   0.004   1.054
    1UNK    H1A   46   0.116   0.154   0.994
    1UNK    H1B   47  -0.288   0.036   0.489
    1UNK    H1C   48  -0.068  -0.114   0.342
    1UNK    H1D   49  -0.241  -0.144   0.323
    1UNK    H1E   50  -0.167  -0.166   0.476
    1UNK    H1F   51  -0.293   0.284   0.480
    1UNK    H1G   52  -0.423   0.217   0.381
    1UNK    H1H   53  -0.325   0.351   0.321
    1UNK    H1I   54  -0.268   0.343   0.103
    1UNK    H1J   55  -0.425   0.266   0.099
    1UNK    H1K   56  -0.306   0.236  -0.029
    1UNK    H1M   57  -0.462   0.037   0.187
    1UNK    H1N   58  -0.335  -0.083   0.177
    1UNK    H1O   59  -0.438   0.071  -0.064
    1UNK    H1P   60  -0.480  -0.092  -0.017
    1UNK    H1Q   61  -0.314  -0.055  -0.064
   1.00000   1.00000   1.00000

