LIGPARGEN GENERATED GRO FILE
   38
    1UNK    C00    1   0.100   0.100   0.000
    1UNK    C01    2  -0.052   0.100   0.000
    1UNK    C02    3  -0.116   0.100   0.141
    1UNK    C03    4  -0.079   0.226   0.220
    1UNK    C04    5  -0.268   0.082   0.125
    1UNK    F05    6  -0.285  -0.036   0.059
    1UNK    C06    7  -0.347   0.075   0.257
    1UNK    C07    8  -0.498   0.058   0.237
    1UNK    C08    9  -0.534  -0.073   0.167
    1UNK    C09   10  -0.685  -0.096   0.155
    1UNK    C0A   11  -0.718  -0.224   0.077
    1UNK    C0B   12  -0.665  -0.350   0.147
    1UNK    C0C   13  -0.868  -0.236   0.055
    1UNK    H0D   14   0.137   0.089  -0.102
    1UNK    H0E   15   0.139   0.017   0.060
    1UNK    H0F   16   0.140   0.194   0.039
    1UNK    H0G   17  -0.085   0.011  -0.055
    1UNK    H0H   18  -0.088   0.186  -0.057
    1UNK    H0I   19  -0.077   0.013   0.195
    1UNK    H0J   20  -0.118   0.316   0.171
    1UNK    H0K   21   0.029   0.237   0.230
    1UNK    H0M   22  -0.119   0.222   0.322
    1UNK    H0N   23  -0.309   0.161   0.061
    1UNK    H0O   24  -0.332   0.167   0.314
    1UNK    H0P   25  -0.309  -0.008   0.317
    1UNK    H0Q   26  -0.538   0.143   0.179
    1UNK    H0R   27  -0.546   0.061   0.335
    1UNK    H0S   28  -0.488  -0.156   0.223
    1UNK    H0T   29  -0.493  -0.074   0.066
    1UNK    H0U   30  -0.729  -0.010   0.103
    1UNK    H0V   31  -0.730  -0.099   0.255
    1UNK    H0W   32  -0.670  -0.218  -0.022
    1UNK    H0X   33  -0.701  -0.355   0.250
    1UNK    H0Y   34  -0.556  -0.352   0.148
    1UNK    H0Z   35  -0.698  -0.440   0.095
    1UNK    H10   36  -0.922  -0.241   0.150
    1UNK    H11   37  -0.892  -0.325  -0.003
    1UNK    H12   38  -0.906  -0.149  -0.001
   1.00000   1.00000   1.00000

