LIGPARGEN GENERATED GRO FILE
   24
    1UNK    C00    1   0.100   0.100   0.000
    1UNK    C01    2  -0.052   0.100   0.000
    1UNK    C02    3  -0.108   0.100   0.142
    1UNK    C03    4  -0.261   0.100   0.142
    1UNK    C04    5  -0.320   0.100   0.284
    1UNK    C05    6  -0.289   0.225   0.362
    1UNK    O06    7  -0.269   0.335   0.312
    1UNK    C07    8  -0.470   0.078   0.281
    1UNK    C08    9  -0.558   0.179   0.212
    1UNK    O09   10  -0.520  -0.020   0.338
    1UNK    H0A   11   0.138   0.100  -0.103
    1UNK    H0B   12   0.139   0.011   0.051
    1UNK    H0C   13   0.139   0.189   0.051
    1UNK    H0D   14  -0.088   0.012  -0.054
    1UNK    H0E   15  -0.088   0.189  -0.054
    1UNK    H0F   16  -0.070   0.188   0.195
    1UNK    H0G   17  -0.071   0.012   0.196
    1UNK    H0H   18  -0.297   0.011   0.088
    1UNK    H0I   19  -0.297   0.187   0.085
    1UNK    H0J   20  -0.276   0.017   0.339
    1UNK    H0K   21  -0.291   0.213   0.472
    1UNK    H0M   22  -0.499   0.257   0.163
    1UNK    H0N   23  -0.623   0.226   0.286
    1UNK    H0O   24  -0.618   0.129   0.135
   1.00000   1.00000   1.00000

