LIGPARGEN GENERATED GRO FILE
   40
    1UNK    C00    1   0.100   0.100   0.000
    1UNK    C01    2  -0.054   0.100   0.000
    1UNK    N02    3  -0.092   0.100   0.143
    1UNK    C03    4  -0.083  -0.029   0.209
    1UNK    C04    5  -0.223   0.161   0.154
    1UNK    C05    6  -0.208   0.280   0.060
    1UNK    C06    7  -0.127   0.226  -0.062
    1UNK    C07    8  -0.029   0.340  -0.104
    1UNK    O08    9   0.069   0.311  -0.205
    1UNK    C09   10   0.031   0.266  -0.326
    1UNK    O0A   11   0.046   0.331  -0.429
    1UNK    C0B   12  -0.015   0.123  -0.326
    1UNK    C0C   13  -0.161   0.106  -0.295
    1UNK    C0D   14  -0.222   0.198  -0.187
    1UNK    C0E   15  -0.368   0.151  -0.159
    1UNK    C0F   16  -0.458   0.157  -0.284
    1UNK    C0G   17  -0.597   0.124  -0.251
    1UNK    N0H   18  -0.707   0.099  -0.225
    1UNK    H0I   19   0.139   0.004   0.036
    1UNK    H0J   20   0.141   0.178   0.065
    1UNK    H0K   21   0.145   0.114  -0.098
    1UNK    H0M   22  -0.091   0.009  -0.048
    1UNK    H0N   23   0.019  -0.070   0.204
    1UNK    H0O   24  -0.151  -0.102   0.164
    1UNK    H0P   25  -0.106  -0.020   0.315
    1UNK    H0Q   26  -0.243   0.194   0.257
    1UNK    H0R   27  -0.302   0.094   0.122
    1UNK    H0S   28  -0.152   0.358   0.113
    1UNK    H0T   29  -0.304   0.325   0.035
    1UNK    H0U   30   0.028   0.373  -0.017
    1UNK    H0V   31  -0.086   0.428  -0.137
    1UNK    H0W   32   0.048   0.062  -0.261
    1UNK    H0X   33   0.006   0.081  -0.426
    1UNK    H0Y   34  -0.179   0.001  -0.268
    1UNK    H0Z   35  -0.215   0.123  -0.389
    1UNK    H10   36  -0.235   0.296  -0.236
    1UNK    H11   37  -0.416   0.216  -0.085
    1UNK    H12   38  -0.368   0.050  -0.117
    1UNK    H13   39  -0.424   0.086  -0.360
    1UNK    H14   40  -0.454   0.257  -0.328
   1.00000   1.00000   1.00000

