LIGPARGEN GENERATED GRO FILE
   38
    1UNK    C00    1   0.100   0.100   0.000
    1UNK    C01    2  -0.052   0.100   0.000
    1UNK    C02    3  -0.108   0.100   0.143
    1UNK    C03    4  -0.261   0.106   0.146
    1UNK    C04    5  -0.338  -0.010   0.083
    1UNK    C05    6  -0.286  -0.151   0.111
    1UNK    C06    7  -0.371  -0.257   0.042
    1UNK    O07    8  -0.470   0.004   0.139
    1UNK    C08    9  -0.454   0.043   0.276
    1UNK    C09   10  -0.319   0.113   0.288
    1UNK    C0A   11  -0.330   0.255   0.344
    1UNK    C0B   12  -0.412   0.354   0.263
    1UNK    C0C   13  -0.334   0.270   0.495
    1UNK    C0D   14  -0.211   0.312   0.419
    1UNK    H0E   15   0.138   0.095  -0.103
    1UNK    H0F   16   0.139   0.014   0.055
    1UNK    H0G   17   0.139   0.191   0.046
    1UNK    H0H   18  -0.087   0.012  -0.055
    1UNK    H0I   19  -0.088   0.189  -0.054
    1UNK    H0J   20  -0.067   0.187   0.195
    1UNK    H0K   21  -0.072   0.012   0.197
    1UNK    H0M   22  -0.291   0.197   0.092
    1UNK    H0N   23  -0.346   0.005  -0.026
    1UNK    H0O   24  -0.287  -0.172   0.218
    1UNK    H0P   25  -0.182  -0.162   0.076
    1UNK    H0Q   26  -0.477  -0.246   0.066
    1UNK    H0R   27  -0.340  -0.357   0.072
    1UNK    H0S   28  -0.361  -0.249  -0.067
    1UNK    H0T   29  -0.456  -0.047   0.338
    1UNK    H0U   30  -0.540   0.104   0.306
    1UNK    H0V   31  -0.256   0.053   0.356
    1UNK    H0W   32  -0.501   0.308   0.220
    1UNK    H0X   33  -0.352   0.395   0.181
    1UNK    H0Y   34  -0.445   0.439   0.324
    1UNK    H0Z   35  -0.326   0.181   0.557
    1UNK    H10   36  -0.395   0.348   0.539
    1UNK    H11   37  -0.122   0.251   0.429
    1UNK    H12   38  -0.190   0.418   0.410
   1.00000   1.00000   1.00000

