LIGPARGEN GENERATED GRO FILE
   36
    1UNK    C00    1   0.100   0.100   0.000
    1UNK    C01    2  -0.052   0.100   0.000
    1UNK    C02    3  -0.108   0.100   0.142
    1UNK    C03    4  -0.260   0.109   0.145
    1UNK    O04    5  -0.318  -0.004   0.080
    1UNK    S05    6  -0.479  -0.020   0.068
    1UNK    C06    7  -0.535  -0.026   0.237
    1UNK    C07    8  -0.531   0.125  -0.020
    1UNK    C08    9  -0.502  -0.175  -0.024
    1UNK    C09   10  -0.441  -0.292   0.055
    1UNK    C0A   11  -0.652  -0.199  -0.042
    1UNK    C0B   12  -0.434  -0.165  -0.161
    1UNK    H0C   13   0.138   0.100  -0.103
    1UNK    H0D   14   0.139   0.011   0.051
    1UNK    H0E   15   0.139   0.189   0.050
    1UNK    H0F   16  -0.088   0.012  -0.054
    1UNK    H0G   17  -0.088   0.189  -0.054
    1UNK    H0H   18  -0.067   0.185   0.198
    1UNK    H0I   19  -0.076   0.008   0.193
    1UNK    H0J   20  -0.292   0.201   0.095
    1UNK    H0K   21  -0.294   0.112   0.249
    1UNK    H0M   22  -0.519   0.072   0.283
    1UNK    H0N   23  -0.479  -0.103   0.290
    1UNK    H0O   24  -0.642  -0.049   0.236
    1UNK    H0P   25  -0.516   0.212   0.044
    1UNK    H0Q   26  -0.637   0.114  -0.043
    1UNK    H0R   27  -0.472   0.134  -0.111
    1UNK    H0S   28  -0.489  -0.304   0.153
    1UNK    H0T   29  -0.334  -0.277   0.072
    1UNK    H0U   30  -0.453  -0.387   0.001
    1UNK    H0V   31  -0.704  -0.207   0.055
    1UNK    H0W   32  -0.672  -0.292  -0.097
    1UNK    H0X   33  -0.699  -0.117  -0.097
    1UNK    H0Y   34  -0.327  -0.146  -0.151
    1UNK    H0Z   35  -0.477  -0.083  -0.220
    1UNK    H10   36  -0.448  -0.257  -0.219
   1.00000   1.00000   1.00000

