
;
; GENERATED BY LigParGen Server
; Jorgensen Lab @ Yale University 
;
[ atomtypes ]
  opls_818  H818     1.0080     0.000    A    2.50000E-01   1.25520E-01
  opls_824  H824     1.0080     0.000    A    2.50000E-01   1.25520E-01
  opls_833  H833     1.0080     0.000    A    2.50000E-01   1.25520E-01
  opls_828  H828     1.0080     0.000    A    2.50000E-01   1.25520E-01
  opls_813  H813     1.0080     0.000    A    2.50000E-01   1.25520E-01
  opls_832  H832     1.0080     0.000    A    2.50000E-01   1.25520E-01
  opls_802  C802    12.0110     0.000    A    3.50000E-01   2.76144E-01
  opls_815  H815     1.0080     0.000    A    2.50000E-01   1.25520E-01
  opls_809  C809    12.0110     0.000    A    3.50000E-01   2.76144E-01
  opls_806  C806    12.0110     0.000    A    3.50000E-01   2.76144E-01
  opls_822  H822     1.0080     0.000    A    2.50000E-01   1.25520E-01
  opls_803  C803    12.0110     0.000    A    3.50000E-01   2.76144E-01
  opls_825  H825     1.0080     0.000    A    2.50000E-01   1.25520E-01
  opls_814  H814     1.0080     0.000    A    2.50000E-01   1.25520E-01
  opls_821  H821     1.0080     0.000    A    2.50000E-01   1.25520E-01
  opls_820  H820     1.0080     0.000    A    2.50000E-01   1.25520E-01
  opls_829  H829     1.0080     0.000    A    2.50000E-01   1.25520E-01
  opls_834  H834     1.0080     0.000    A    2.50000E-01   1.25520E-01
  opls_831  H831     1.0080     0.000    A    2.50000E-01   1.25520E-01
  opls_816  H816     1.0080     0.000    A    2.50000E-01   1.25520E-01
  opls_800  C800    12.0110     0.000    A    3.50000E-01   2.76144E-01
  opls_811  C811    12.0110     0.000    A    3.50000E-01   2.76144E-01
  opls_823  H823     1.0080     0.000    A    2.50000E-01   1.25520E-01
  opls_826  H826     1.0080     0.000    A    2.50000E-01   1.25520E-01
  opls_835  H835     1.0080     0.000    A    2.50000E-01   1.25520E-01
  opls_819  H819     1.0080     0.000    A    2.50000E-01   1.25520E-01
  opls_810  C810    12.0110     0.000    A    3.50000E-01   2.76144E-01
  opls_827  H827     1.0080     0.000    A    2.50000E-01   1.25520E-01
  opls_801  C801    12.0110     0.000    A    3.50000E-01   2.76144E-01
  opls_808  C808    12.0110     0.000    A    3.50000E-01   2.76144E-01
  opls_817  H817     1.0080     0.000    A    2.50000E-01   1.25520E-01
  opls_804  O804    15.9990     0.000    A    2.90000E-01   5.85760E-01
  opls_812  H812     1.0080     0.000    A    2.50000E-01   1.25520E-01
  opls_830  H830     1.0080     0.000    A    2.50000E-01   1.25520E-01
  opls_805  S805    32.0600     0.000    A    3.60000E-01   1.48532E+00
  opls_807  C807    12.0110     0.000    A    3.50000E-01   2.76144E-01
[ moleculetype ]
; Name               nrexcl
UNK                   3
[ atoms ]
;   nr       type  resnr residue  atom   cgnr     charge       mass  
     1   opls_800      1    UNK   C00      1    -0.2404    12.0110 
     2   opls_801      1    UNK   C01      1    -0.1759    12.0110 
     3   opls_802      1    UNK   C02      1    -0.1765    12.0110 
     4   opls_803      1    UNK   C03      1      0.111    12.0110 
     5   opls_804      1    UNK   O04      1    -0.5285    15.9990 
     6   opls_805      1    UNK   S05      1     0.5989    32.0600 
     7   opls_806      1    UNK   C06      1    -0.4915    12.0110 
     8   opls_807      1    UNK   C07      1    -0.4904    12.0110 
     9   opls_808      1    UNK   C08      1    -0.2585    12.0110 
    10   opls_809      1    UNK   C09      1    -0.1948    12.0110 
    11   opls_810      1    UNK   C0A      1    -0.1999    12.0110 
    12   opls_811      1    UNK   C0B      1    -0.1946    12.0110 
    13   opls_812      1    UNK   H0C      1     0.0804     1.0080 
    14   opls_813      1    UNK   H0D      1     0.0804     1.0080 
    15   opls_814      1    UNK   H0E      1     0.0804     1.0080 
    16   opls_815      1    UNK   H0F      1     0.0962     1.0080 
    17   opls_816      1    UNK   H0G      1     0.0962     1.0080 
    18   opls_817      1    UNK   H0H      1     0.1016     1.0080 
    19   opls_818      1    UNK   H0I      1     0.1016     1.0080 
    20   opls_819      1    UNK   H0J      1      0.077     1.0080 
    21   opls_820      1    UNK   H0K      1      0.077     1.0080 
    22   opls_821      1    UNK   H0M      1     0.1244     1.0080 
    23   opls_822      1    UNK   H0N      1     0.1244     1.0080 
    24   opls_823      1    UNK   H0O      1     0.1244     1.0080 
    25   opls_824      1    UNK   H0P      1     0.1245     1.0080 
    26   opls_825      1    UNK   H0Q      1     0.1245     1.0080 
    27   opls_826      1    UNK   H0R      1     0.1245     1.0080 
    28   opls_827      1    UNK   H0S      1     0.0793     1.0080 
    29   opls_828      1    UNK   H0T      1     0.0793     1.0080 
    30   opls_829      1    UNK   H0U      1     0.0793     1.0080 
    31   opls_830      1    UNK   H0V      1     0.0761     1.0080 
    32   opls_831      1    UNK   H0W      1     0.0761     1.0080 
    33   opls_832      1    UNK   H0X      2     0.0761     1.0080 
    34   opls_833      1    UNK   H0Y      2     0.0792     1.0080 
    35   opls_834      1    UNK   H0Z      2     0.0792     1.0080 
    36   opls_835      1    UNK   H10      2     0.0792     1.0080 
[ bonds ]
    2     1     1      0.1529 224262.400
    3     2     1      0.1529 224262.400
    4     3     1      0.1529 224262.400
    5     4     1      0.1410 267776.000
    6     5     1      0.1685 240538.160
    7     6     1      0.1810 185769.600
    8     6     1      0.1810 185769.600
    9     6     1      0.1810 185769.600
   10     9     1      0.1529 224262.400
   11     9     1      0.1529 224262.400
   12     9     1      0.1529 224262.400
   13     1     1      0.1090 284512.000
   14     1     1      0.1090 284512.000
   15     1     1      0.1090 284512.000
   16     2     1      0.1090 284512.000
   17     2     1      0.1090 284512.000
   18     3     1      0.1090 284512.000
   19     3     1      0.1090 284512.000
   20     4     1      0.1090 284512.000
   21     4     1      0.1090 284512.000
   22     7     1      0.1090 284512.000
   23     7     1      0.1090 284512.000
   24     7     1      0.1090 284512.000
   25     8     1      0.1090 284512.000
   26     8     1      0.1090 284512.000
   27     8     1      0.1090 284512.000
   28    10     1      0.1090 284512.000
   29    10     1      0.1090 284512.000
   30    10     1      0.1090 284512.000
   31    11     1      0.1090 284512.000
   32    11     1      0.1090 284512.000
   33    11     1      0.1090 284512.000
   34    12     1      0.1090 284512.000
   35    12     1      0.1090 284512.000
   36    12     1      0.1090 284512.000

[ angles ]
;  ai    aj    ak funct            c0            c1            c2            c3 
    1     2     3     1    112.700    488.273
    2     3     4     1    112.700    488.273
    3     4     5     1    109.500    418.400
    4     5     6     1    114.540    581.660
    5     6     7     1    105.500    561.660
    5     6     8     1    105.500    561.660
    5     6     9     1    105.500    561.660
    6     9    10     1    114.700    418.400
    6     9    11     1    114.700    418.400
    6     9    12     1    114.700    418.400
    2     1    13     1    110.700    313.800
    2     1    14     1    110.700    313.800
    2     1    15     1    110.700    313.800
    1     2    16     1    110.700    313.800
    1     2    17     1    110.700    313.800
    2     3    18     1    110.700    313.800
    2     3    19     1    110.700    313.800
    3     4    20     1    110.700    313.800
    3     4    21     1    110.700    313.800
    6     7    22     1    109.500    292.880
    6     7    23     1    109.500    292.880
    6     7    24     1    109.500    292.880
    6     8    25     1    109.500    292.880
    6     8    26     1    109.500    292.880
    6     8    27     1    109.500    292.880
    9    10    28     1    110.700    313.800
    9    10    29     1    110.700    313.800
    9    10    30     1    110.700    313.800
    9    11    31     1    110.700    313.800
    9    11    32     1    110.700    313.800
    9    11    33     1    110.700    313.800
    9    12    34     1    110.700    313.800
    9    12    35     1    110.700    313.800
    9    12    36     1    110.700    313.800
   23     7    24     1    107.800    276.144
   28    10    30     1    107.800    276.144
   35    12    36     1    107.800    276.144
    7     6     9     1     98.900    518.816
   13     1    14     1    107.800    276.144
   34    12    36     1    107.800    276.144
   29    10    30     1    107.800    276.144
   10     9    12     1    112.700    488.273
    3     2    17     1    110.700    313.800
   28    10    29     1    107.800    276.144
   11     9    12     1    112.700    488.273
   22     7    23     1    107.800    276.144
    4     3    19     1    110.700    313.800
   25     8    27     1    107.800    276.144
   10     9    11     1    112.700    488.273
   31    11    32     1    107.800    276.144
    3     2    16     1    110.700    313.800
   32    11    33     1    107.800    276.144
   18     3    19     1    107.800    276.144
    4     3    18     1    110.700    313.800
   22     7    24     1    107.800    276.144
   16     2    17     1    107.800    276.144
   14     1    15     1    107.800    276.144
    7     6     8     1     98.900    518.816
   34    12    35     1    107.800    276.144
   25     8    26     1    107.800    276.144
    5     4    20     1    109.500    292.880
    8     6     9     1     98.900    518.816
    5     4    21     1    109.500    292.880
   26     8    27     1    107.800    276.144
   13     1    15     1    107.800    276.144
   20     4    21     1    107.800    276.144
   31    11    33     1    107.800    276.144

[ dihedrals ]
; IMPROPER DIHEDRAL ANGLES 
;  ai    aj    ak    al funct            c0            c1            c2            c3            c4            c5

[ dihedrals ]
; PROPER DIHEDRAL ANGLES
;  ai    aj    ak    al funct            c0            c1            c2            c3            c4            c5
    4    3    2    1        3       2.301  -1.464   0.837  -1.674  -0.000   0.000
   10    9    6    7        3       0.941   2.314   2.410  -5.665  -0.000   0.000
   11    9    6    7        3       0.941   2.314   2.410  -5.665  -0.000   0.000
   10    9    6    8        3       0.941   2.314   2.410  -5.665  -0.000   0.000
   11    9    6    8        3       0.941   2.314   2.410  -5.665  -0.000   0.000
   12    9    6    7        3       0.941   2.314   2.410  -5.665  -0.000   0.000
   12    9    6    8        3       0.941   2.314   2.410  -5.665  -0.000   0.000
   10    9    6    5        3       2.519   1.807   3.498  -7.824  -0.000   0.000
   11    9    6    5        3       2.519   1.807   3.498  -7.824  -0.000   0.000
   12    9    6    5        3       2.519   1.807   3.498  -7.824  -0.000   0.000
    8    6    5    4        3      -3.347   2.092  13.807  -12.552  -0.000   0.000
    9    6    5    4        3      -3.347   2.092  13.807  -12.552  -0.000   0.000
    7    6    5    4        3      -3.347   2.092  13.807  -12.552  -0.000   0.000
   29   10    9   12        3       0.628   1.883   0.000  -2.510  -0.000   0.000
   33   11    9   10        3       0.628   1.883   0.000  -2.510  -0.000   0.000
   33   11    9   12        3       0.628   1.883   0.000  -2.510  -0.000   0.000
   17    2    3    4        3       0.628   1.883   0.000  -2.510  -0.000   0.000
   16    2    3    4        3       0.628   1.883   0.000  -2.510  -0.000   0.000
   19    3    2    1        3       0.628   1.883   0.000  -2.510  -0.000   0.000
   28   10    9   11        3       0.628   1.883   0.000  -2.510  -0.000   0.000
   32   11    9   10        3       0.628   1.883   0.000  -2.510  -0.000   0.000
   28   10    9   12        3       0.628   1.883   0.000  -2.510  -0.000   0.000
   29   10    9   11        3       0.628   1.883   0.000  -2.510  -0.000   0.000
   31   11    9   12        3       0.628   1.883   0.000  -2.510  -0.000   0.000
   34   12    9   10        3       0.628   1.883   0.000  -2.510  -0.000   0.000
   18    3    2    1        3       0.628   1.883   0.000  -2.510  -0.000   0.000
   21    4    3    2        3       0.628   1.883   0.000  -2.510  -0.000   0.000
   30   10    9   12        3       0.628   1.883   0.000  -2.510  -0.000   0.000
   30   10    9   11        3       0.628   1.883   0.000  -2.510  -0.000   0.000
   14    1    2    3        3       0.628   1.883   0.000  -2.510  -0.000   0.000
   20    4    3    2        3       0.628   1.883   0.000  -2.510  -0.000   0.000
   32   11    9   12        3       0.628   1.883   0.000  -2.510  -0.000   0.000
   36   12    9   11        3       0.628   1.883   0.000  -2.510  -0.000   0.000
   15    1    2    3        3       0.628   1.883   0.000  -2.510  -0.000   0.000
   35   12    9   10        3       0.628   1.883   0.000  -2.510  -0.000   0.000
   31   11    9   10        3       0.628   1.883   0.000  -2.510  -0.000   0.000
   34   12    9   11        3       0.628   1.883   0.000  -2.510  -0.000   0.000
   35   12    9   11        3       0.628   1.883   0.000  -2.510  -0.000   0.000
   36   12    9   10        3       0.628   1.883   0.000  -2.510  -0.000   0.000
   13    1    2    3        3       0.628   1.883   0.000  -2.510  -0.000   0.000
   20    4    3   18        3       0.628   1.883   0.000  -2.510  -0.000   0.000
   17    2    1   13        3       0.628   1.883   0.000  -2.510  -0.000   0.000
   16    2    1   14        3       0.628   1.883   0.000  -2.510  -0.000   0.000
   21    4    3   18        3       0.628   1.883   0.000  -2.510  -0.000   0.000
   17    2    1   15        3       0.628   1.883   0.000  -2.510  -0.000   0.000
   21    4    3   19        3       0.628   1.883   0.000  -2.510  -0.000   0.000
   16    2    1   13        3       0.628   1.883   0.000  -2.510  -0.000   0.000
   16    2    1   15        3       0.628   1.883   0.000  -2.510  -0.000   0.000
   19    3    2   17        3       0.628   1.883   0.000  -2.510  -0.000   0.000
   17    2    1   14        3       0.628   1.883   0.000  -2.510  -0.000   0.000
   20    4    3   19        3       0.628   1.883   0.000  -2.510  -0.000   0.000
   19    3    2   16        3       0.628   1.883   0.000  -2.510  -0.000   0.000
   18    3    2   17        3       0.628   1.883   0.000  -2.510  -0.000   0.000
   18    3    2   16        3       0.628   1.883   0.000  -2.510  -0.000   0.000
   19    3    4    5        3       0.979   2.937   0.000  -3.916  -0.000   0.000
   18    3    4    5        3       0.979   2.937   0.000  -3.916  -0.000   0.000
   31   11    9    6        3       0.946   2.837   0.000  -3.782  -0.000   0.000
   33   11    9    6        3       0.946   2.837   0.000  -3.782  -0.000   0.000
   34   12    9    6        3       0.946   2.837   0.000  -3.782  -0.000   0.000
   30   10    9    6        3       0.946   2.837   0.000  -3.782  -0.000   0.000
   32   11    9    6        3       0.946   2.837   0.000  -3.782  -0.000   0.000
   29   10    9    6        3       0.946   2.837   0.000  -3.782  -0.000   0.000
   36   12    9    6        3       0.946   2.837   0.000  -3.782  -0.000   0.000
   35   12    9    6        3       0.946   2.837   0.000  -3.782  -0.000   0.000
   28   10    9    6        3       0.946   2.837   0.000  -3.782  -0.000   0.000
   21    4    5    6        3       0.628   1.883   0.000  -2.510  -0.000   0.000
   20    4    5    6        3       0.628   1.883   0.000  -2.510  -0.000   0.000
   23    7    6    9        3       1.354   4.061   0.000  -5.414  -0.000   0.000
   24    7    6    8        3       1.354   4.061   0.000  -5.414  -0.000   0.000
   25    8    6    9        3       1.354   4.061   0.000  -5.414  -0.000   0.000
   27    8    6    7        3       1.354   4.061   0.000  -5.414  -0.000   0.000
   27    8    6    9        3       1.354   4.061   0.000  -5.414  -0.000   0.000
   25    8    6    7        3       1.354   4.061   0.000  -5.414  -0.000   0.000
   22    7    6    8        3       1.354   4.061   0.000  -5.414  -0.000   0.000
   22    7    6    9        3       1.354   4.061   0.000  -5.414  -0.000   0.000
   23    7    6    8        3       1.354   4.061   0.000  -5.414  -0.000   0.000
   24    7    6    9        3       1.354   4.061   0.000  -5.414  -0.000   0.000
   26    8    6    7        3       1.354   4.061   0.000  -5.414  -0.000   0.000
   26    8    6    9        3       1.354   4.061   0.000  -5.414  -0.000   0.000
   23    7    6    5        3       0.000   0.000   0.000  -0.000  -0.000   0.000
   25    8    6    5        3       0.000   0.000   0.000  -0.000  -0.000   0.000
   27    8    6    5        3       0.000   0.000   0.000  -0.000  -0.000   0.000
   24    7    6    5        3       0.000   0.000   0.000  -0.000  -0.000   0.000
   22    7    6    5        3       0.000   0.000   0.000  -0.000  -0.000   0.000
   26    8    6    5        3       0.000   0.000   0.000  -0.000  -0.000   0.000
    5    4    3    2        3       2.874   0.582   2.092  -5.548  -0.000   0.000
    6    5    4    3        3      -5.356   3.598   2.594  -0.837  -0.000   0.000

[ pairs ]
     1     4    1
     2     5    1
     3     6    1
     4     7    1
     4     8    1
     4     9    1
     5    10    1
     5    11    1
     3    13    1
     7    10    1
     5    12    1
     3    14    1
     8    10    1
     7    11    1
     3    15    1
     8    11    1
     7    12    1
     1    18    1
     8    12    1
     4    16    1
     1    19    1
     4    17    1
     2    20    1
     5    18    1
     2    21    1
     5    19    1
     6    20    1
     6    21    1
     5    22    1
     5    23    1
    13    16    1
     5    24    1
    14    16    1
    13    17    1
     8    22    1
     5    25    1
    15    16    1
    14    17    1
     9    22    1
     8    23    1
     5    26    1
    15    17    1
     9    23    1
     8    24    1
     7    25    1
     5    27    1
     9    24    1
     7    26    1
    16    18    1
     9    25    1
     7    27    1
     6    28    1
    17    18    1
    16    19    1
     9    26    1
     6    29    1
    17    19    1
     9    27    1
     6    30    1
     6    31    1
    18    20    1
     6    32    1
    19    20    1
    18    21    1
    11    28    1
     6    33    1
    19    21    1
    12    28    1
    11    29    1
     6    34    1
    12    29    1
    11    30    1
    10    31    1
     6    35    1
    12    30    1
    10    32    1
     6    36    1
    12    31    1
    10    33    1
    12    32    1
    10    34    1
    12    33    1
    11    34    1
    10    35    1
    11    35    1
    10    36    1
    11    36    1

