LIGPARGEN GENERATED GRO FILE
   37
    1UNK    C00    1   0.100   0.100   0.000
    1UNK    C01    2  -0.052   0.100   0.000
    1UNK    C02    3  -0.111   0.100   0.140
    1UNK    C03    4  -0.074   0.220   0.224
    1UNK    C04    5  -0.253   0.048   0.154
    1UNK    C05    6  -0.138  -0.036   0.205
    1UNK    C06    7  -0.123  -0.062   0.352
    1UNK    C07    8  -0.243  -0.140   0.409
    1UNK    C08    9  -0.272  -0.277   0.344
    1UNK    C09   10  -0.152  -0.371   0.364
    1UNK    C0A   11  -0.403  -0.340   0.400
    1UNK    C0B   12  -0.526  -0.252   0.376
    1UNK    C0C   13  -0.429  -0.472   0.339
    1UNK    N0D   14  -0.450  -0.576   0.291
    1UNK    H0E   15   0.138   0.092  -0.102
    1UNK    H0F   16   0.139   0.016   0.058
    1UNK    H0G   17   0.140   0.193   0.043
    1UNK    H0H   18  -0.087   0.012  -0.056
    1UNK    H0I   19  -0.089   0.188  -0.055
    1UNK    H0J   20  -0.081   0.312   0.165
    1UNK    H0K   21   0.028   0.210   0.261
    1UNK    H0M   22  -0.141   0.232   0.310
    1UNK    H0N   23  -0.304   0.013   0.065
    1UNK    H0O   24  -0.318   0.096   0.225
    1UNK    H0P   25  -0.111  -0.124   0.147
    1UNK    H0Q   26  -0.114   0.031   0.408
    1UNK    H0R   27  -0.030  -0.117   0.370
    1UNK    H0S   28  -0.331  -0.075   0.399
    1UNK    H0T   29  -0.227  -0.154   0.517
    1UNK    H0U   30  -0.285  -0.263   0.236
    1UNK    H0V   31  -0.132  -0.387   0.470
    1UNK    H0W   32  -0.061  -0.330   0.319
    1UNK    H0X   33  -0.168  -0.468   0.317
    1UNK    H0Y   34  -0.392  -0.354   0.508
    1UNK    H0Z   35  -0.537  -0.228   0.270
    1UNK    H10   36  -0.522  -0.159   0.433
    1UNK    H11   37  -0.618  -0.304   0.407
   1.00000   1.00000   1.00000

