LIGPARGEN GENERATED GRO FILE
   39
    1UNK    C00    1   0.100   0.100   0.000
    1UNK    C01    2  -0.054   0.100   0.000
    1UNK    C02    3  -0.098   0.100   0.148
    1UNK    C03    4  -0.209   0.201   0.163
    1UNK    C04    5  -0.199   0.294   0.043
    1UNK    C05    6  -0.122   0.221  -0.070
    1UNK    C06    7  -0.020   0.319  -0.148
    1UNK    C07    8  -0.086   0.354  -0.285
    1UNK    C08    9  -0.051   0.488  -0.343
    1UNK    O09   10   0.042   0.557  -0.302
    1UNK    C0A   11  -0.231   0.335  -0.246
    1UNK    C0B   12  -0.352   0.335  -0.337
    1UNK    C0C   13  -0.398   0.189  -0.339
    1UNK    C0D   14  -0.332   0.119  -0.457
    1UNK    O0E   15  -0.255   0.173  -0.537
    1UNK    C0F   16  -0.354   0.133  -0.201
    1UNK    C0G   17  -0.215   0.192  -0.189
    1UNK    H0H   18   0.139   0.022   0.066
    1UNK    H0I   19   0.140   0.195   0.038
    1UNK    H0J   20   0.140   0.081  -0.100
    1UNK    H0K   21  -0.088   0.006  -0.046
    1UNK    H0M   22  -0.015   0.128   0.215
    1UNK    H0N   23  -0.130   0.000   0.178
    1UNK    H0O   24  -0.199   0.258   0.256
    1UNK    H0P   25  -0.306   0.151   0.166
    1UNK    H0Q   26  -0.149   0.387   0.072
    1UNK    H0R   27  -0.302   0.321   0.015
    1UNK    H0S   28   0.076   0.272  -0.171
    1UNK    H0T   29   0.001   0.408  -0.089
    1UNK    H0U   30  -0.055   0.280  -0.361
    1UNK    H0V   31  -0.105   0.515  -0.434
    1UNK    H0W   32  -0.253   0.411  -0.171
    1UNK    H0X   33  -0.336   0.383  -0.433
    1UNK    H0Y   34  -0.431   0.393  -0.286
    1UNK    H0Z   35  -0.507   0.182  -0.352
    1UNK    H10   36  -0.363   0.015  -0.473
    1UNK    H11   37  -0.353   0.024  -0.201
    1UNK    H12   38  -0.421   0.168  -0.121
    1UNK    H13   39  -0.156   0.127  -0.256
   1.00000   1.00000   1.00000

