LIGPARGEN GENERATED GRO FILE
   33
    1UNK    C00    1   0.100   0.100   0.000
    1UNK    C01    2  -0.052   0.100   0.000
    1UNK    C02    3  -0.113   0.100   0.142
    1UNK    C03    4  -0.076   0.226   0.221
    1UNK    C04    5  -0.174   0.228   0.338
    1UNK    C05    6  -0.129   0.139   0.454
    1UNK    C06    7  -0.305   0.179   0.276
    1UNK    C07    8  -0.269   0.094   0.150
    1UNK    C08    9  -0.339   0.157   0.028
    1UNK    C09   10  -0.320  -0.051   0.172
    1UNK    C0A   11  -0.290  -0.151   0.062
    1UNK    H0B   12   0.137   0.091  -0.103
    1UNK    H0C   13   0.140   0.016   0.058
    1UNK    H0D   14   0.140   0.193   0.041
    1UNK    H0E   15  -0.086   0.012  -0.055
    1UNK    H0F   16  -0.086   0.188  -0.056
    1UNK    H0G   17  -0.071   0.014   0.195
    1UNK    H0H   18  -0.090   0.316   0.159
    1UNK    H0I   19   0.028   0.225   0.254
    1UNK    H0J   20  -0.185   0.330   0.376
    1UNK    H0K   21  -0.118   0.035   0.424
    1UNK    H0M   22  -0.202   0.143   0.535
    1UNK    H0N   23  -0.033   0.174   0.493
    1UNK    H0O   24  -0.364   0.267   0.247
    1UNK    H0P   25  -0.366   0.125   0.348
    1UNK    H0Q   26  -0.308   0.261   0.014
    1UNK    H0R   27  -0.448   0.157   0.042
    1UNK    H0S   28  -0.318   0.103  -0.065
    1UNK    H0T   29  -0.429  -0.049   0.186
    1UNK    H0U   30  -0.278  -0.090   0.266
    1UNK    H0V   31  -0.330  -0.119  -0.035
    1UNK    H0W   32  -0.335  -0.248   0.086
    1UNK    H0X   33  -0.182  -0.168   0.051
   1.00000   1.00000   1.00000

