LIGPARGEN GENERATED GRO FILE
   43
    1UNK    C00    1   0.100   0.100   0.000
    1UNK    C01    2  -0.053   0.100   0.000
    1UNK    C02    3  -0.119   0.100   0.140
    1UNK    C03    4  -0.270   0.100   0.123
    1UNK    O04    5  -0.348   0.080   0.216
    1UNK    C05    6  -0.081  -0.029   0.221
    1UNK    C06    7  -0.111  -0.161   0.149
    1UNK    C07    8  -0.072  -0.283   0.234
    1UNK    C08    9  -0.103  -0.412   0.158
    1UNK    C09   10  -0.062  -0.541   0.232
    1UNK    C0A   11  -0.134  -0.556   0.366
    1UNK    C0B   12  -0.091  -0.662   0.143
    1UNK    C0C   13  -0.081   0.223   0.227
    1UNK    S0D   14  -0.126   0.382   0.157
    1UNK    C0E   15  -0.069   0.497   0.279
    1UNK    O0F   16  -0.046   0.405   0.038
    1UNK    O0G   17  -0.270   0.391   0.152
    1UNK    H0H   18   0.137   0.077  -0.100
    1UNK    H0I   19   0.142   0.025   0.068
    1UNK    H0J   20   0.140   0.198   0.028
    1UNK    H0K   21  -0.087   0.013  -0.057
    1UNK    H0M   22  -0.088   0.185  -0.059
    1UNK    H0N   23  -0.308   0.120   0.021
    1UNK    H0O   24  -0.136  -0.029   0.317
    1UNK    H0P   25   0.025  -0.026   0.248
    1UNK    H0Q   26  -0.055  -0.166   0.055
    1UNK    H0R   27  -0.217  -0.167   0.125
    1UNK    H0S   28  -0.127  -0.280   0.328
    1UNK    H0T   29   0.035  -0.279   0.257
    1UNK    H0U   30  -0.052  -0.409   0.061
    1UNK    H0V   31  -0.211  -0.416   0.135
    1UNK    H0W   32   0.046  -0.537   0.251
    1UNK    H0X   33  -0.243  -0.551   0.353
    1UNK    H0Y   34  -0.104  -0.478   0.436
    1UNK    H0Z   35  -0.110  -0.653   0.412
    1UNK    H10   36  -0.198  -0.670   0.120
    1UNK    H11   37  -0.060  -0.755   0.192
    1UNK    H12   38  -0.037  -0.655   0.048
    1UNK    H13   39   0.027   0.226   0.245
    1UNK    H14   40  -0.131   0.218   0.324
    1UNK    H15   41   0.040   0.490   0.286
    1UNK    H16   42  -0.115   0.474   0.375
    1UNK    H17   43  -0.098   0.598   0.247
   1.00000   1.00000   1.00000

