
;
; GENERATED BY LigParGen Server
; Jorgensen Lab @ Yale University 
;
[ atomtypes ]
  opls_818  H818     1.0080     0.000    A    2.50000E-01   1.25520E-01
  opls_805  C805    12.0110     0.000    A    3.50000E-01   2.76144E-01
  opls_813  H813     1.0080     0.000    A    2.50000E-01   1.25520E-01
  opls_806  C806    12.0110     0.000    A    3.50000E-01   2.76144E-01
  opls_815  H815     1.0080     0.000    A    2.50000E-01   1.25520E-01
  opls_809  C809    12.0110     0.000    A    3.50000E-01   2.76144E-01
  opls_822  H822     1.0080     0.000    A    2.50000E-01   1.25520E-01
  opls_802  O802    15.9990     0.000    A    2.96000E-01   7.11280E-01
  opls_814  H814     1.0080     0.000    A    2.50000E-01   1.25520E-01
  opls_803  O803    15.9990     0.000    A    2.96000E-01   7.11280E-01
  opls_821  H821     1.0080     0.000    A    2.50000E-01   1.25520E-01
  opls_820  H820     1.0080     0.000    A    2.50000E-01   1.25520E-01
  opls_811  H811     1.0080     0.000    A    2.50000E-01   1.25520E-01
  opls_810  H810     1.0080     0.000    A    2.50000E-01   1.25520E-01
  opls_816  H816     1.0080     0.000    A    2.50000E-01   1.25520E-01
  opls_800  C800    12.0110     0.000    A    3.50000E-01   2.76144E-01
  opls_823  H823     1.0080     0.000    A    2.50000E-01   1.25520E-01
  opls_819  H819     1.0080     0.000    A    2.50000E-01   1.25520E-01
  opls_804  C804    12.0110     0.000    A    3.50000E-01   2.76144E-01
  opls_801  S801    32.0600     0.000    A    3.55000E-01   1.04600E+00
  opls_808  C808    12.0110     0.000    A    3.50000E-01   2.76144E-01
  opls_817  H817     1.0080     0.000    A    2.50000E-01   1.25520E-01
  opls_812  H812     1.0080     0.000    A    2.50000E-01   1.25520E-01
  opls_807  C807    12.0110     0.000    A    3.50000E-01   2.76144E-01
[ moleculetype ]
; Name               nrexcl
UNK                   3
[ atoms ]
;   nr       type  resnr residue  atom   cgnr     charge       mass  
     1   opls_800      1    UNK   C00      1    -0.5837    12.0110 
     2   opls_801      1    UNK   S01      1     1.2875    32.0600 
     3   opls_802      1    UNK   O02      1    -0.5701    15.9990 
     4   opls_803      1    UNK   O03      1    -0.5701    15.9990 
     5   opls_804      1    UNK   C04      1    -0.4024    12.0110 
     6   opls_805      1    UNK   C05      1    -0.1422    12.0110 
     7   opls_806      1    UNK   C06      1     -0.188    12.0110 
     8   opls_807      1    UNK   C07      1    -0.1671    12.0110 
     9   opls_808      1    UNK   C08      1    -0.1852    12.0110 
    10   opls_809      1    UNK   C09      1    -0.1422    12.0110 
    11   opls_810      1    UNK   H0A      1     0.1647     1.0080 
    12   opls_811      1    UNK   H0B      1     0.1647     1.0080 
    13   opls_812      1    UNK   H0C      1     0.1647     1.0080 
    14   opls_813      1    UNK   H0D      1     0.1478     1.0080 
    15   opls_814      1    UNK   H0E      1     0.1107     1.0080 
    16   opls_815      1    UNK   H0F      1     0.1107     1.0080 
    17   opls_816      1    UNK   H0G      1     0.1072     1.0080 
    18   opls_817      1    UNK   H0H      1     0.1072     1.0080 
    19   opls_818      1    UNK   H0I      1     0.0913     1.0080 
    20   opls_819      1    UNK   H0J      1     0.0913     1.0080 
    21   opls_820      1    UNK   H0K      1     0.1053     1.0080 
    22   opls_821      1    UNK   H0M      1     0.1053     1.0080 
    23   opls_822      1    UNK   H0N      1     0.0963     1.0080 
    24   opls_823      1    UNK   H0O      1     0.0963     1.0080 
[ bonds ]
    2     1     1      0.1770 284512.000
    3     2     1      0.1440 585760.000
    4     2     1      0.1440 585760.000
    5     2     1      0.1770 284512.000
    6     5     1      0.1529 224262.400
    7     6     1      0.1529 224262.400
    8     7     1      0.1529 224262.400
    9     8     1      0.1529 224262.400
   10     5     1      0.1529 224262.400
   11     1     1      0.1090 284512.000
   12     1     1      0.1090 284512.000
   13     1     1      0.1090 284512.000
   14     5     1      0.1090 284512.000
   15     6     1      0.1090 284512.000
   16     6     1      0.1090 284512.000
   17     7     1      0.1090 284512.000
   18     7     1      0.1090 284512.000
   19     8     1      0.1090 284512.000
   20     8     1      0.1090 284512.000
   21     9     1      0.1090 284512.000
   22     9     1      0.1090 284512.000
   23    10     1      0.1090 284512.000
   24    10     1      0.1090 284512.000
   10     9     1      0.1529 224262.400

[ angles ]
;  ai    aj    ak funct            c0            c1            c2            c3 
    1     2     3     1    108.900    619.232
    1     2     4     1    108.900    619.232
    1     2     5     1    102.000    518.816
    2     5     6     1    108.600    418.400
    5     6     7     1    112.700    488.273
    6     7     8     1    112.700    488.273
    7     8     9     1    112.700    488.273
    2     5    10     1    108.600    418.400
    2     1    11     1    109.500    292.880
    2     1    12     1    109.500    292.880
    2     1    13     1    109.500    292.880
    2     5    14     1    109.500    292.880
    5     6    15     1    110.700    313.800
    5     6    16     1    110.700    313.800
    6     7    17     1    110.700    313.800
    6     7    18     1    110.700    313.800
    7     8    19     1    110.700    313.800
    7     8    20     1    110.700    313.800
    8     9    21     1    110.700    313.800
    8     9    22     1    110.700    313.800
    5    10    23     1    110.700    313.800
    5    10    24     1    110.700    313.800
    9    10    24     1    110.700    313.800
    8     7    18     1    110.700    313.800
   11     1    13     1    107.800    276.144
   15     6    16     1    107.800    276.144
    9     8    20     1    110.700    313.800
    6     5    10     1    112.700    488.273
    6     5    14     1    110.700    313.800
    5    10     9     1    112.700    488.273
   19     8    20     1    107.800    276.144
   10     9    21     1    110.700    313.800
    9     8    19     1    110.700    313.800
    7     6    15     1    110.700    313.800
   21     9    22     1    107.800    276.144
   11     1    12     1    107.800    276.144
   12     1    13     1    107.800    276.144
    3     2     4     1    119.000    870.272
    3     2     5     1    108.900    619.232
    4     2     5     1    108.900    619.232
    7     6    16     1    110.700    313.800
   23    10    24     1    107.800    276.144
   10     9    22     1    110.700    313.800
    8     7    17     1    110.700    313.800
    9    10    23     1    110.700    313.800
   17     7    18     1    107.800    276.144
    8     9    10     1    112.700    488.273
   10     5    14     1    110.700    313.800

[ dihedrals ]
; IMPROPER DIHEDRAL ANGLES 
;  ai    aj    ak    al funct            c0            c1            c2            c3            c4            c5

[ dihedrals ]
; PROPER DIHEDRAL ANGLES
;  ai    aj    ak    al funct            c0            c1            c2            c3            c4            c5
    9   10    5    6        3       2.301  -1.464   0.837  -1.674  -0.000   0.000
    8    9   10    5        3       2.301  -1.464   0.837  -1.674  -0.000   0.000
   10    5    6    7        3       2.301  -1.464   0.837  -1.674  -0.000   0.000
    9    8    7    6        3       2.301  -1.464   0.837  -1.674  -0.000   0.000
   10    9    8    7        3       2.301  -1.464   0.837  -1.674  -0.000   0.000
    8    7    6    5        3       2.301  -1.464   0.837  -1.674  -0.000   0.000
    7    6    5    2        3       2.784   0.278   0.828  -3.891  -0.000   0.000
    9   10    5    2        3       2.784   0.278   0.828  -3.891  -0.000   0.000
   10    5    2    1        3       0.000   0.000   0.000  -0.000  -0.000   0.000
    6    5    2    1        3       0.000   0.000   0.000  -0.000  -0.000   0.000
   10    5    2    3        3       0.000   0.000   0.000  -0.000  -0.000   0.000
    6    5    2    3        3       0.000   0.000   0.000  -0.000  -0.000   0.000
   10    5    2    4        3       0.000   0.000   0.000  -0.000  -0.000   0.000
    6    5    2    4        3       0.000   0.000   0.000  -0.000  -0.000   0.000
   20    8    9   10        3       0.628   1.883   0.000  -2.510  -0.000   0.000
   17    7    6    5        3       0.628   1.883   0.000  -2.510  -0.000   0.000
   16    6    7    8        3       0.628   1.883   0.000  -2.510  -0.000   0.000
   14    5   10    9        3       0.628   1.883   0.000  -2.510  -0.000   0.000
   18    7    6    5        3       0.628   1.883   0.000  -2.510  -0.000   0.000
   18    7    8    9        3       0.628   1.883   0.000  -2.510  -0.000   0.000
   22    9    8    7        3       0.628   1.883   0.000  -2.510  -0.000   0.000
   19    8    9   10        3       0.628   1.883   0.000  -2.510  -0.000   0.000
   24   10    5    6        3       0.628   1.883   0.000  -2.510  -0.000   0.000
   15    6    7    8        3       0.628   1.883   0.000  -2.510  -0.000   0.000
   14    5    6    7        3       0.628   1.883   0.000  -2.510  -0.000   0.000
   16    6    5   10        3       0.628   1.883   0.000  -2.510  -0.000   0.000
   20    8    7    6        3       0.628   1.883   0.000  -2.510  -0.000   0.000
   22    9   10    5        3       0.628   1.883   0.000  -2.510  -0.000   0.000
   21    9   10    5        3       0.628   1.883   0.000  -2.510  -0.000   0.000
   23   10    5    6        3       0.628   1.883   0.000  -2.510  -0.000   0.000
   21    9    8    7        3       0.628   1.883   0.000  -2.510  -0.000   0.000
   17    7    8    9        3       0.628   1.883   0.000  -2.510  -0.000   0.000
   15    6    5   10        3       0.628   1.883   0.000  -2.510  -0.000   0.000
   23   10    9    8        3       0.628   1.883   0.000  -2.510  -0.000   0.000
   24   10    9    8        3       0.628   1.883   0.000  -2.510  -0.000   0.000
   19    8    7    6        3       0.628   1.883   0.000  -2.510  -0.000   0.000
   20    8    7   18        3       0.628   1.883   0.000  -2.510  -0.000   0.000
   18    7    6   15        3       0.628   1.883   0.000  -2.510  -0.000   0.000
   23   10    9   22        3       0.628   1.883   0.000  -2.510  -0.000   0.000
   17    7    6   16        3       0.628   1.883   0.000  -2.510  -0.000   0.000
   23   10    5   14        3       0.628   1.883   0.000  -2.510  -0.000   0.000
   15    6    5   14        3       0.628   1.883   0.000  -2.510  -0.000   0.000
   19    8    7   18        3       0.628   1.883   0.000  -2.510  -0.000   0.000
   22    9    8   20        3       0.628   1.883   0.000  -2.510  -0.000   0.000
   24   10    9   21        3       0.628   1.883   0.000  -2.510  -0.000   0.000
   21    9    8   19        3       0.628   1.883   0.000  -2.510  -0.000   0.000
   17    7    6   15        3       0.628   1.883   0.000  -2.510  -0.000   0.000
   22    9    8   19        3       0.628   1.883   0.000  -2.510  -0.000   0.000
   21    9    8   20        3       0.628   1.883   0.000  -2.510  -0.000   0.000
   23   10    9   21        3       0.628   1.883   0.000  -2.510  -0.000   0.000
   18    7    6   16        3       0.628   1.883   0.000  -2.510  -0.000   0.000
   24   10    5   14        3       0.628   1.883   0.000  -2.510  -0.000   0.000
   20    8    7   17        3       0.628   1.883   0.000  -2.510  -0.000   0.000
   16    6    5   14        3       0.628   1.883   0.000  -2.510  -0.000   0.000
   24   10    9   22        3       0.628   1.883   0.000  -2.510  -0.000   0.000
   19    8    7   17        3       0.628   1.883   0.000  -2.510  -0.000   0.000
   24   10    5    2        3       0.946   2.837   0.000  -3.782  -0.000   0.000
   16    6    5    2        3       0.946   2.837   0.000  -3.782  -0.000   0.000
   23   10    5    2        3       0.946   2.837   0.000  -3.782  -0.000   0.000
   15    6    5    2        3       0.946   2.837   0.000  -3.782  -0.000   0.000
   14    5    2    1        3       0.732   2.197   0.000  -2.929  -0.000   0.000
   13    1    2    5        3       0.732   2.197   0.000  -2.929  -0.000   0.000
   11    1    2    5        3       0.732   2.197   0.000  -2.929  -0.000   0.000
   12    1    2    5        3       0.732   2.197   0.000  -2.929  -0.000   0.000
   11    1    2    4        3       0.732   2.197   0.000  -2.929  -0.000   0.000
   13    1    2    3        3       0.732   2.197   0.000  -2.929  -0.000   0.000
   14    5    2    3        3       0.732   2.197   0.000  -2.929  -0.000   0.000
   12    1    2    3        3       0.732   2.197   0.000  -2.929  -0.000   0.000
   14    5    2    4        3       0.732   2.197   0.000  -2.929  -0.000   0.000
   12    1    2    4        3       0.732   2.197   0.000  -2.929  -0.000   0.000
   11    1    2    3        3       0.732   2.197   0.000  -2.929  -0.000   0.000
   13    1    2    4        3       0.732   2.197   0.000  -2.929  -0.000   0.000

[ pairs ]
     1     6    1
     3     6    1
     2     7    1
     4     6    1
     2     9    1
     1    10    1
     5     8    1
     3    10    1
     4    10    1
     3    11    1
     6     9    1
     4    11    1
     3    12    1
     1    14    1
     5    11    1
     4    12    1
     3    13    1
     7    10    1
     5    12    1
     4    13    1
     3    14    1
     2    15    1
     5    13    1
     4    14    1
     2    16    1
     7    14    1
     5    17    1
     9    14    1
     8    15    1
     5    18    1
     8    16    1
    10    15    1
     6    19    1
     2    23    1
    10    16    1
     9    17    1
     6    20    1
     5    21    1
     2    24    1
     9    18    1
     5    22    1
     7    21    1
    14    15    1
    10    19    1
     7    22    1
     6    23    1
    14    16    1
    10    20    1
     6    24    1
     8    23    1
    15    17    1
     8    24    1
    16    17    1
    15    18    1
    16    18    1
    17    19    1
    18    19    1
    17    20    1
    14    23    1
    18    20    1
    14    24    1
    19    21    1
    20    21    1
    19    22    1
    20    22    1
    21    23    1
    22    23    1
    21    24    1
    22    24    1

