
;
; GENERATED BY LigParGen Server
; Jorgensen Lab @ Yale University 
;
[ atomtypes ]
  opls_818  H818     1.0080     0.000    A    2.50000E-01   1.25520E-01
  opls_814  C814    12.0110     0.000    A    3.50000E-01   2.76144E-01
  opls_824  H824     1.0080     0.000    A    2.50000E-01   1.25520E-01
  opls_805  C805    12.0110     0.000    A    3.50000E-01   2.76144E-01
  opls_836  H836     1.0080     0.000    A    2.50000E-01   1.25520E-01
  opls_834  H834     1.0080     0.000    A    2.50000E-01   1.25520E-01
  opls_810  C810    12.0110     0.000    A    3.50000E-01   2.76144E-01
  opls_828  H828     1.0080     0.000    A    2.50000E-01   1.25520E-01
  opls_812  O812    15.9990     0.000    A    2.90000E-01   5.85760E-01
  opls_803  O803    15.9990     0.000    A    2.96000E-01   8.78640E-01
  opls_806  C806    12.0110     0.000    A    3.50000E-01   2.76144E-01
  opls_827  H827     1.0080     0.000    A    2.50000E-01   1.25520E-01
  opls_809  C809    12.0110     0.000    A    3.50000E-01   2.76144E-01
  opls_838  H838     1.0080     0.000    A    2.50000E-01   1.25520E-01
  opls_801  O801    15.9990     0.000    A    2.90000E-01   5.85760E-01
  opls_807  C807    12.0110     0.000    A    3.50000E-01   2.76144E-01
  opls_825  H825     1.0080     0.000    A    2.50000E-01   1.25520E-01
  opls_830  H830     1.0080     0.000    A    2.50000E-01   1.25520E-01
  opls_821  H821     1.0080     0.000    A    2.50000E-01   1.25520E-01
  opls_820  H820     1.0080     0.000    A    2.50000E-01   1.25520E-01
  opls_837  H837     1.0080     0.000    A    2.50000E-01   1.25520E-01
  opls_829  H829     1.0080     0.000    A    2.50000E-01   1.25520E-01
  opls_831  H831     1.0080     0.000    A    2.50000E-01   1.25520E-01
  opls_832  H832     1.0080     0.000    A    2.50000E-01   1.25520E-01
  opls_800  C800    12.0110     0.000    A    3.50000E-01   2.76144E-01
  opls_811  C811    12.0110     0.000    A    3.50000E-01   2.76144E-01
  opls_802  C802    12.0110     0.000    A    3.55000E-01   2.92880E-01
  opls_823  H823     1.0080     0.000    A    2.50000E-01   1.25520E-01
  opls_813  C813    12.0110     0.000    A    3.50000E-01   2.76144E-01
  opls_815  C815    12.0110     0.000    A    3.55000E-01   2.92880E-01
  opls_826  H826     1.0080     0.000    A    2.50000E-01   1.25520E-01
  opls_835  H835     1.0080     0.000    A    2.50000E-01   1.25520E-01
  opls_819  H819     1.0080     0.000    A    2.50000E-01   1.25520E-01
  opls_816  C816    12.0110     0.000    A    3.50000E-01   2.76144E-01
  opls_833  H833     1.0080     0.000    A    2.50000E-01   1.25520E-01
  opls_817  O817    15.9990     0.000    A    2.96000E-01   8.78640E-01
  opls_804  O804    15.9990     0.000    A    2.90000E-01   5.85760E-01
  opls_822  H822     1.0080     0.000    A    2.50000E-01   1.25520E-01
  opls_808  N808    14.0070     0.000    A    3.30000E-01   7.11280E-01
[ moleculetype ]
; Name               nrexcl
UNK                   3
[ atoms ]
;   nr       type  resnr residue  atom   cgnr     charge       mass  
     1   opls_800      1    UNK   C00      1    -0.0356    12.0110 
     2   opls_801      1    UNK   O01      1    -0.3126    15.9990 
     3   opls_802      1    UNK   C02      1     0.6054    12.0110 
     4   opls_803      1    UNK   O03      1    -0.5226    15.9990 
     5   opls_804      1    UNK   O04      1    -0.3361    15.9990 
     6   opls_805      1    UNK   C05      1     0.1647    12.0110 
     7   opls_806      1    UNK   C06      1    -0.2026    12.0110 
     8   opls_807      1    UNK   C07      1     0.0758    12.0110 
     9   opls_808      1    UNK   N08      1     -0.692    14.0070 
    10   opls_809      1    UNK   C09      1     0.0062    12.0110 
    11   opls_810      1    UNK   C0A      1     0.0592    12.0110 
    12   opls_811      1    UNK   C0B      1     0.0179    12.0110 
    13   opls_812      1    UNK   O0C      1    -0.3439    15.9990 
    14   opls_813      1    UNK   C0D      1     0.0341    12.0110 
    15   opls_814      1    UNK   C0E      1    -0.1991    12.0110 
    16   opls_815      1    UNK   C0F      1     0.3721    12.0110 
    17   opls_816      1    UNK   C0G      1    -0.2998    12.0110 
    18   opls_817      1    UNK   O0H      1    -0.4583    15.9990 
    19   opls_818      1    UNK   H0I      1     0.1008     1.0080 
    20   opls_819      1    UNK   H0J      1     0.1008     1.0080 
    21   opls_820      1    UNK   H0K      1     0.1008     1.0080 
    22   opls_821      1    UNK   H0M      1     0.1198     1.0080 
    23   opls_822      1    UNK   H0N      1     0.1184     1.0080 
    24   opls_823      1    UNK   H0O      1     0.1184     1.0080 
    25   opls_824      1    UNK   H0P      1     0.0781     1.0080 
    26   opls_825      1    UNK   H0Q      1     0.0781     1.0080 
    27   opls_826      1    UNK   H0R      1      0.077     1.0080 
    28   opls_827      1    UNK   H0S      1      0.077     1.0080 
    29   opls_828      1    UNK   H0T      1      0.077     1.0080 
    30   opls_829      1    UNK   H0U      1     0.0874     1.0080 
    31   opls_830      1    UNK   H0V      1     0.0874     1.0080 
    32   opls_831      1    UNK   H0W      1       0.08     1.0080 
    33   opls_832      1    UNK   H0X      2       0.08     1.0080 
    34   opls_833      1    UNK   H0Y      2     0.0985     1.0080 
    35   opls_834      1    UNK   H0Z      2     0.0985     1.0080 
    36   opls_835      1    UNK   H10      2     0.1295     1.0080 
    37   opls_836      1    UNK   H11      2     0.1199     1.0080 
    38   opls_837      1    UNK   H12      2     0.1199     1.0080 
    39   opls_838      1    UNK   H13      2     0.1199     1.0080 
[ bonds ]
    2     1     1      0.1410 267776.000
    3     2     1      0.1327 179075.200
    4     3     1      0.1229 476976.000
    5     3     1      0.1327 179075.200
    6     5     1      0.1410 267776.000
    7     6     1      0.1529 224262.400
    8     7     1      0.1529 224262.400
    9     8     1      0.1448 319657.600
   10     9     1      0.1448 319657.600
   11     9     1      0.1448 319657.600
   12    11     1      0.1529 224262.400
   13    12     1      0.1410 267776.000
   14    13     1      0.1410 267776.000
   15     6     1      0.1529 224262.400
   16    15     1      0.1522 265265.600
   17    16     1      0.1522 265265.600
   18    16     1      0.1229 476976.000
   19     1     1      0.1090 284512.000
   20     1     1      0.1090 284512.000
   21     1     1      0.1090 284512.000
   22     6     1      0.1090 284512.000
   23     7     1      0.1090 284512.000
   24     7     1      0.1090 284512.000
   25     8     1      0.1090 284512.000
   26     8     1      0.1090 284512.000
   27    10     1      0.1090 284512.000
   28    10     1      0.1090 284512.000
   29    10     1      0.1090 284512.000
   30    11     1      0.1090 284512.000
   31    11     1      0.1090 284512.000
   32    12     1      0.1090 284512.000
   33    12     1      0.1090 284512.000
   34    14     1      0.1090 284512.000
   35    14     1      0.1090 284512.000
   36    15     1      0.1090 284512.000
   37    17     1      0.1090 284512.000
   38    17     1      0.1090 284512.000
   39    17     1      0.1090 284512.000
   15    14     1      0.1529 224262.400

[ angles ]
;  ai    aj    ak funct            c0            c1            c2            c3 
    1     2     3     1    116.900    694.544
    2     3     4     1    123.400    694.544
    2     3     5     1    118.180    584.923
    3     5     6     1    116.900    694.544
    5     6     7     1    109.500    418.400
    6     7     8     1    112.700    488.273
    7     8     9     1    109.470    470.282
    8     9    10     1    107.200    433.462
    8     9    11     1    107.200    433.462
    9    11    12     1    109.470    470.282
   11    12    13     1    109.500    418.400
   12    13    14     1    109.500    502.080
    5     6    15     1    109.500    418.400
    6    15    16     1    111.100    527.184
   15    16    17     1    116.000    585.760
   15    16    18     1    120.400    669.440
    2     1    19     1    109.500    292.880
    2     1    20     1    109.500    292.880
    2     1    21     1    109.500    292.880
    5     6    22     1    109.500    292.880
    6     7    23     1    110.700    313.800
    6     7    24     1    110.700    313.800
    7     8    25     1    110.700    313.800
    7     8    26     1    110.700    313.800
    9    10    27     1    109.500    292.880
    9    10    28     1    109.500    292.880
    9    10    29     1    109.500    292.880
    9    11    30     1    109.500    292.880
    9    11    31     1    109.500    292.880
   11    12    32     1    110.700    313.800
   11    12    33     1    110.700    313.800
   13    14    34     1    109.500    292.880
   13    14    35     1    109.500    292.880
    6    15    36     1    110.700    313.800
   16    17    37     1    109.500    292.880
   16    17    38     1    109.500    292.880
   16    17    39     1    109.500    292.880
   15    14    34     1    110.700    313.800
   12    11    31     1    110.700    313.800
    9     8    25     1    109.500    292.880
   32    12    33     1    107.800    276.144
   16    15    36     1    109.500    292.880
   38    17    39     1    107.800    276.144
   34    14    35     1    107.800    276.144
    7     6    22     1    110.700    313.800
   13    14    15     1    109.500    418.400
   13    12    33     1    109.500    292.880
   14    15    36     1    110.700    313.800
   13    12    32     1    109.500    292.880
   23     7    24     1    107.800    276.144
   28    10    29     1    107.800    276.144
   17    16    18     1    120.400    669.440
   12    11    30     1    110.700    313.800
    4     3     5     1    123.400    694.544
    8     7    23     1    110.700    313.800
    6    15    14     1    112.700    488.273
   37    17    38     1    107.800    276.144
    7     6    15     1    112.700    488.273
   19     1    21     1    107.800    276.144
   27    10    29     1    107.800    276.144
   25     8    26     1    107.800    276.144
   30    11    31     1    107.800    276.144
   15    14    35     1    110.700    313.800
   10     9    11     1    107.200    433.462
   14    15    16     1    111.100    527.184
    9     8    26     1    109.500    292.880
   19     1    20     1    107.800    276.144
    8     7    24     1    110.700    313.800
   20     1    21     1    107.800    276.144
   15     6    22     1    110.700    313.800
   37    17    39     1    107.800    276.144
   27    10    28     1    107.800    276.144

[ dihedrals ]
; IMPROPER DIHEDRAL ANGLES 
;  ai    aj    ak    al funct            c0            c1            c2            c3            c4            c5
    18    16    15    17    4        180.000     43.932     2  
     5     3     2     4    4        180.000     43.932     2  

[ dihedrals ]
; PROPER DIHEDRAL ANGLES
;  ai    aj    ak    al funct            c0            c1            c2            c3            c4            c5
   16   15    6    7        3      -4.960   6.286   1.310  -2.636  -0.000   0.000
   16   15    6    5        3      -12.929  12.929   0.000  -0.000  -0.000   0.000
   16   15   14   13        3      -12.929  12.929   0.000  -0.000  -0.000   0.000
   17   16   15   14        3       0.818  -7.906   0.602   6.485  -0.000   0.000
   17   16   15    6        3       0.818  -7.906   0.602   6.485  -0.000   0.000
   14   15    6    7        3       2.301  -1.464   0.837  -1.674  -0.000   0.000
   15    6    7    8        3       2.301  -1.464   0.837  -1.674  -0.000   0.000
    8    7    6    5        3       2.874   0.582   2.092  -5.548  -0.000   0.000
   14   15    6    5        3       2.874   0.582   2.092  -5.548  -0.000   0.000
   12   11    9    8        3       1.789   3.492   0.536  -5.816  -0.000   0.000
   12   11    9   10        3       1.789   3.492   0.536  -5.816  -0.000   0.000
   15    6    5    3        3      -2.197   5.201   0.527  -3.531  -0.000   0.000
    7    6    5    3        3      -2.197   5.201   0.527  -3.531  -0.000   0.000
   15   14   13   12        3       1.715   2.845   1.046  -5.607  -0.000   0.000
   10    9    8    7        3       1.789   3.492   0.536  -5.816  -0.000   0.000
   11    9    8    7        3       1.789   3.492   0.536  -5.816  -0.000   0.000
    6    5    3    4        3      21.439   0.000  -21.439  -0.000  -0.000   0.000
    6    5    3    2        3      31.206  -9.768  -21.439  -0.000  -0.000   0.000
   14   13   12   11        3       1.715   2.845   1.046  -5.607  -0.000   0.000
   37   17   16   15        3       0.575   1.726   0.000  -2.301  -0.000   0.000
   38   17   16   15        3       0.575   1.726   0.000  -2.301  -0.000   0.000
   39   17   16   15        3       0.575   1.726   0.000  -2.301  -0.000   0.000
   36   15   16   17        3       0.575   1.726   0.000  -2.301  -0.000   0.000
   39   17   16   18        3       0.000   0.000   0.000  -0.000  -0.000   0.000
   36   15   16   18        3       0.000   0.000   0.000  -0.000  -0.000   0.000
   38   17   16   18        3       0.000   0.000   0.000  -0.000  -0.000   0.000
   37   17   16   18        3       0.000   0.000   0.000  -0.000  -0.000   0.000
   34   14   15   16        3      -0.209  -0.628   0.000   0.837  -0.000   0.000
   35   14   15   16        3      -0.209  -0.628   0.000   0.837  -0.000   0.000
   22    6   15   16        3      -0.209  -0.628   0.000   0.837  -0.000   0.000
   25    8    7    6        3       0.628   1.883   0.000  -2.510  -0.000   0.000
   24    7    6   15        3       0.628   1.883   0.000  -2.510  -0.000   0.000
   22    6    7    8        3       0.628   1.883   0.000  -2.510  -0.000   0.000
   34   14   15    6        3       0.628   1.883   0.000  -2.510  -0.000   0.000
   36   15    6    7        3       0.628   1.883   0.000  -2.510  -0.000   0.000
   23    7    6   15        3       0.628   1.883   0.000  -2.510  -0.000   0.000
   35   14   15    6        3       0.628   1.883   0.000  -2.510  -0.000   0.000
   22    6   15   14        3       0.628   1.883   0.000  -2.510  -0.000   0.000
   26    8    7    6        3       0.628   1.883   0.000  -2.510  -0.000   0.000
   32   12   11   31        3       0.628   1.883   0.000  -2.510  -0.000   0.000
   33   12   11   30        3       0.628   1.883   0.000  -2.510  -0.000   0.000
   36   15   14   35        3       0.628   1.883   0.000  -2.510  -0.000   0.000
   24    7    6   22        3       0.628   1.883   0.000  -2.510  -0.000   0.000
   23    7    6   22        3       0.628   1.883   0.000  -2.510  -0.000   0.000
   26    8    7   24        3       0.628   1.883   0.000  -2.510  -0.000   0.000
   33   12   11   31        3       0.628   1.883   0.000  -2.510  -0.000   0.000
   26    8    7   23        3       0.628   1.883   0.000  -2.510  -0.000   0.000
   25    8    7   24        3       0.628   1.883   0.000  -2.510  -0.000   0.000
   36   15    6   22        3       0.628   1.883   0.000  -2.510  -0.000   0.000
   25    8    7   23        3       0.628   1.883   0.000  -2.510  -0.000   0.000
   36   15   14   34        3       0.628   1.883   0.000  -2.510  -0.000   0.000
   32   12   11   30        3       0.628   1.883   0.000  -2.510  -0.000   0.000
   33   12   11    9        3      -4.096   5.088   2.966  -3.958  -0.000   0.000
   23    7    8    9        3      -4.096   5.088   2.966  -3.958  -0.000   0.000
   24    7    8    9        3      -4.096   5.088   2.966  -3.958  -0.000   0.000
   32   12   11    9        3      -4.096   5.088   2.966  -3.958  -0.000   0.000
   31   11   12   13        3       0.979   2.937   0.000  -3.916  -0.000   0.000
   23    7    6    5        3       0.979   2.937   0.000  -3.916  -0.000   0.000
   36   15    6    5        3       0.979   2.937   0.000  -3.916  -0.000   0.000
   30   11   12   13        3       0.979   2.937   0.000  -3.916  -0.000   0.000
   36   15   14   13        3       0.979   2.937   0.000  -3.916  -0.000   0.000
   24    7    6    5        3       0.979   2.937   0.000  -3.916  -0.000   0.000
   27   10    9   11        3       1.172   3.515   0.000  -4.686  -0.000   0.000
   30   11    9   10        3       1.172   3.515   0.000  -4.686  -0.000   0.000
   30   11    9    8        3       1.172   3.515   0.000  -4.686  -0.000   0.000
   25    8    9   11        3       1.172   3.515   0.000  -4.686  -0.000   0.000
   29   10    9   11        3       1.172   3.515   0.000  -4.686  -0.000   0.000
   31   11    9   10        3       1.172   3.515   0.000  -4.686  -0.000   0.000
   31   11    9    8        3       1.172   3.515   0.000  -4.686  -0.000   0.000
   27   10    9    8        3       1.172   3.515   0.000  -4.686  -0.000   0.000
   28   10    9    8        3       1.172   3.515   0.000  -4.686  -0.000   0.000
   28   10    9   11        3       1.172   3.515   0.000  -4.686  -0.000   0.000
   26    8    9   11        3       1.172   3.515   0.000  -4.686  -0.000   0.000
   29   10    9    8        3       1.172   3.515   0.000  -4.686  -0.000   0.000
   25    8    9   10        3       1.172   3.515   0.000  -4.686  -0.000   0.000
   26    8    9   10        3       1.172   3.515   0.000  -4.686  -0.000   0.000
   20    1    2    3        3       0.414   1.243   0.000  -1.657  -0.000   0.000
   21    1    2    3        3       0.414   1.243   0.000  -1.657  -0.000   0.000
   22    6    5    3        3       0.414   1.243   0.000  -1.657  -0.000   0.000
   19    1    2    3        3       0.414   1.243   0.000  -1.657  -0.000   0.000
   35   14   13   12        3       1.590   4.770   0.000  -6.360  -0.000   0.000
   33   12   13   14        3       1.590   4.770   0.000  -6.360  -0.000   0.000
   34   14   13   12        3       1.590   4.770   0.000  -6.360  -0.000   0.000
   32   12   13   14        3       1.590   4.770   0.000  -6.360  -0.000   0.000
    9    8    7    6        3       3.335  -1.552   2.820  -4.602  -0.000   0.000
   18   16   15    6        3       0.000   0.000   0.000  -0.000  -0.000   0.000
   18   16   15   14        3       0.000   0.000   0.000  -0.000  -0.000   0.000
    4    3    2    1        3      21.439   0.000  -21.439  -0.000  -0.000   0.000
    5    3    2    1        3      31.206  -9.768  -21.439  -0.000  -0.000   0.000
   13   14   15    6        3       2.874   0.582   2.092  -5.548  -0.000   0.000
   13   12   11    9        3      16.736  -16.736   0.000  -0.000  -0.000   0.000

[ pairs ]
     1     4    1
     1     5    1
     2     6    1
     4     6    1
     3     7    1
     5     8    1
     6     9    1
     7    10    1
     7    11    1
     3    15    1
     6    13    1
     5    14    1
     8    12    1
     7    14    1
     5    16    1
    10    12    1
     9    13    1
     3    19    1
     8    15    1
     7    16    1
     6    17    1
     3    20    1
     6    18    1
     3    21    1
    11    14    1
     3    22    1
    12    15    1
     5    23    1
    13    16    1
     5    24    1
     8    22    1
    14    17    1
     6    25    1
    14    18    1
     9    23    1
     6    26    1
     9    24    1
    10    25    1
     8    27    1
    14    22    1
    11    25    1
    10    26    1
     8    28    1
    11    26    1
     8    29    1
    16    22    1
    15    23    1
    11    27    1
     8    30    1
    15    24    1
    11    28    1
     8    31    1
    11    29    1
    10    30    1
     6    34    1
    10    31    1
     9    32    1
     6    35    1
     5    36    1
     9    33    1
    13    30    1
     7    36    1
    13    31    1
    22    23    1
    22    24    1
    14    32    1
    12    34    1
    14    33    1
    12    35    1
    23    25    1
    24    25    1
    23    26    1
    13    36    1
    24    26    1
    16    34    1
    16    35    1
    15    37    1
    17    36    1
    15    38    1
    18    36    1
    15    39    1
    18    37    1
    18    38    1
    18    39    1
    22    36    1
    30    32    1
    31    32    1
    30    33    1
    31    33    1
    34    36    1
    35    36    1

