LIGPARGEN GENERATED GRO FILE
   39
    1UNK    C00    1   0.100   0.100   0.000
    1UNK    O01    2  -0.042   0.100   0.000
    1UNK    C02    3  -0.104   0.100   0.121
    1UNK    O03    4  -0.051   0.100   0.231
    1UNK    O04    5  -0.235   0.100   0.095
    1UNK    C05    6  -0.344   0.114   0.187
    1UNK    C06    7  -0.394   0.259   0.169
    1UNK    C07    8  -0.444   0.297   0.028
    1UNK    N08    9  -0.341   0.274  -0.073
    1UNK    C09   10  -0.283   0.397  -0.124
    1UNK    C0A   11  -0.370   0.177  -0.180
    1UNK    C0B   12  -0.432   0.040  -0.145
    1UNK    O0C   13  -0.348  -0.045  -0.069
    1UNK    C0D   14  -0.401  -0.100   0.051
    1UNK    C0E   15  -0.447  -0.002   0.160
    1UNK    C0F   16  -0.596   0.037   0.160
    1UNK    C0G   17  -0.695  -0.022   0.061
    1UNK    O0H   18  -0.640   0.116   0.245
    1UNK    H0I   19   0.132   0.084  -0.103
    1UNK    H0J   20   0.139   0.019   0.062
    1UNK    H0K   21   0.138   0.197   0.033
    1UNK    H0M   22  -0.306   0.104   0.290
    1UNK    H0N   23  -0.311   0.327   0.194
    1UNK    H0O   24  -0.472   0.282   0.243
    1UNK    H0P   25  -0.472   0.403   0.031
    1UNK    H0Q   26  -0.537   0.245   0.004
    1UNK    H0R   27  -0.247   0.460  -0.042
    1UNK    H0S   28  -0.357   0.455  -0.182
    1UNK    H0T   29  -0.197   0.377  -0.188
    1UNK    H0U   30  -0.275   0.156  -0.231
    1UNK    H0V   31  -0.436   0.225  -0.253
    1UNK    H0W   32  -0.452  -0.013  -0.239
    1UNK    H0X   33  -0.528   0.055  -0.098
    1UNK    H0Y   34  -0.319  -0.158   0.094
    1UNK    H0Z   35  -0.477  -0.175   0.026
    1UNK    H10   36  -0.444  -0.063   0.252
    1UNK    H11   37  -0.662  -0.117   0.018
    1UNK    H12   38  -0.714   0.050  -0.020
    1UNK    H13   39  -0.789  -0.041   0.112
   1.00000   1.00000   1.00000

