LIGPARGEN GENERATED GRO FILE
   36
    1UNK    C00    1   0.100   0.100   0.000
    1UNK    O01    2  -0.043   0.100   0.000
    1UNK    C02    3  -0.097   0.100   0.124
    1UNK    O03    4  -0.035   0.100   0.230
    1UNK    O04    5  -0.232   0.100   0.112
    1UNK    C05    6  -0.305   0.100   0.235
    1UNK    C06    7  -0.315  -0.043   0.289
    1UNK    C07    8  -0.392  -0.051   0.422
    1UNK    C08    9  -0.534  -0.001   0.400
    1UNK    N09   10  -0.652   0.040   0.381
    1UNK    C0A   11  -0.399  -0.195   0.477
    1UNK    C0B   12  -0.264  -0.265   0.509
    1UNK    C0C   13  -0.186  -0.179   0.611
    1UNK    N0D   14  -0.286  -0.404   0.559
    1UNK    C0E   15  -0.355  -0.488   0.461
    1UNK    C0F   16  -0.160  -0.472   0.596
    1UNK    H0G   17   0.134   0.100  -0.104
    1UNK    H0H   18   0.138   0.010   0.049
    1UNK    H0I   19   0.138   0.190   0.049
    1UNK    H0J   20  -0.404   0.140   0.211
    1UNK    H0K   21  -0.259   0.168   0.307
    1UNK    H0M   22  -0.214  -0.083   0.303
    1UNK    H0N   23  -0.362  -0.106   0.213
    1UNK    H0O   24  -0.346   0.015   0.496
    1UNK    H0P   25  -0.454  -0.254   0.403
    1UNK    H0Q   26  -0.461  -0.195   0.568
    1UNK    H0R   27  -0.204  -0.271   0.418
    1UNK    H0S   28  -0.244  -0.161   0.701
    1UNK    H0T   29  -0.159  -0.082   0.567
    1UNK    H0U   30  -0.091  -0.224   0.640
    1UNK    H0V   31  -0.459  -0.456   0.446
    1UNK    H0W   32  -0.363  -0.592   0.497
    1UNK    H0X   33  -0.304  -0.489   0.364
    1UNK    H0Y   34  -0.116  -0.428   0.686
    1UNK    H0Z   35  -0.087  -0.468   0.514
    1UNK    H10   36  -0.178  -0.577   0.621
   1.00000   1.00000   1.00000

