LIGPARGEN GENERATED GRO FILE
   24
    1UNK    C00    1   0.100   0.100   0.000
    1UNK    O01    2  -0.042   0.100   0.000
    1UNK    C02    3  -0.099   0.100   0.121
    1UNK    C03    4  -0.051   0.100   0.250
    1UNK    C04    5  -0.162   0.100   0.339
    1UNK    C05    6  -0.161   0.100   0.485
    1UNK    C06    7  -0.054   0.159   0.554
    1UNK    C07    8  -0.047   0.153   0.694
    1UNK    C08    9  -0.147   0.089   0.766
    1UNK    C09   10  -0.254   0.030   0.698
    1UNK    C0A   11  -0.262   0.038   0.559
    1UNK    C0B   12  -0.275   0.100   0.261
    1UNK    N0C   13  -0.236   0.100   0.129
    1UNK    H0D   14  -0.297   0.100   0.049
    1UNK    H0E   15   0.134   0.108  -0.104
    1UNK    H0F   16   0.139   0.006   0.042
    1UNK    H0G   17   0.140   0.186   0.056
    1UNK    H0H   18   0.054   0.100   0.278
    1UNK    H0I   19   0.026   0.210   0.500
    1UNK    H0J   20   0.037   0.199   0.746
    1UNK    H0K   21  -0.142   0.084   0.874
    1UNK    H0M   22  -0.331  -0.022   0.754
    1UNK    H0N   23  -0.348  -0.006   0.509
    1UNK    H0O   24  -0.380   0.100   0.286
   1.00000   1.00000   1.00000

