
;
; GENERATED BY LigParGen Server
; Jorgensen Lab @ Yale University 
;
[ atomtypes ]
  opls_818  H818     1.0080     0.000    A    2.50000E-01   1.25520E-01
  opls_807  S807    32.0600     0.000    A    3.55000E-01   1.04600E+00
  opls_810  O810    15.9990     0.000    A    2.90000E-01   5.85760E-01
  opls_808  O808    15.9990     0.000    A    2.96000E-01   7.11280E-01
  opls_813  F813    18.9984     0.000    A    2.90000E-01   2.51040E-01
  opls_801  O801    15.9990     0.000    A    2.90000E-01   5.85760E-01
  opls_803  O803    15.9990     0.000    A    2.96000E-01   8.78640E-01
  opls_806  C806    12.0110     0.000    A    3.50000E-01   2.76144E-01
  opls_815  H815     1.0080     0.000    A    2.50000E-01   1.25520E-01
  opls_814  F814    18.9984     0.000    A    2.90000E-01   2.51040E-01
  opls_812  F812    18.9984     0.000    A    2.90000E-01   2.51040E-01
  opls_821  H821     1.0080     0.000    A    2.50000E-01   1.25520E-01
  opls_820  H820     1.0080     0.000    A    2.50000E-01   1.25520E-01
  opls_816  H816     1.0080     0.000    A    2.50000E-01   1.25520E-01
  opls_800  C800    12.0110     0.000    A    3.50000E-01   2.76144E-01
  opls_811  C811    12.0110     0.000    A    3.50000E-01   2.76144E-01
  opls_802  C802    12.0110     0.000    A    3.55000E-01   2.92880E-01
  opls_819  H819     1.0080     0.000    A    2.50000E-01   1.25520E-01
  opls_805  C805    12.0110     0.000    A    3.50000E-01   2.76144E-01
  opls_809  O809    15.9990     0.000    A    2.96000E-01   7.11280E-01
  opls_817  H817     1.0080     0.000    A    2.50000E-01   1.25520E-01
  opls_804  O804    15.9990     0.000    A    2.90000E-01   5.85760E-01
[ moleculetype ]
; Name               nrexcl
UNK                   3
[ atoms ]
;   nr       type  resnr residue  atom   cgnr     charge       mass  
     1   opls_800      1    UNK   C00      1    -0.0461    12.0110 
     2   opls_801      1    UNK   O01      1    -0.3089    15.9990 
     3   opls_802      1    UNK   C02      1     0.5663    12.0110 
     4   opls_803      1    UNK   O03      1    -0.4893    15.9990 
     5   opls_804      1    UNK   O04      1    -0.3026    15.9990 
     6   opls_805      1    UNK   C05      1     0.0551    12.0110 
     7   opls_806      1    UNK   C06      1    -0.5386    12.0110 
     8   opls_807      1    UNK   S07      1     1.3919    32.0600 
     9   opls_808      1    UNK   O08      1     -0.518    15.9990 
    10   opls_809      1    UNK   O09      1     -0.518    15.9990 
    11   opls_810      1    UNK   O0A      1    -0.6151    15.9990 
    12   opls_811      1    UNK   C0B      1     0.6524    12.0110 
    13   opls_812      1    UNK   F0C      1    -0.1122    18.9984 
    14   opls_813      1    UNK   F0D      1    -0.1122    18.9984 
    15   opls_814      1    UNK   F0E      1    -0.1122    18.9984 
    16   opls_815      1    UNK   H0F      1     0.1109     1.0080 
    17   opls_816      1    UNK   H0G      1     0.1109     1.0080 
    18   opls_817      1    UNK   H0H      1     0.1109     1.0080 
    19   opls_818      1    UNK   H0I      1     0.1418     1.0080 
    20   opls_819      1    UNK   H0J      1     0.1418     1.0080 
    21   opls_820      1    UNK   H0K      1     0.1957     1.0080 
    22   opls_821      1    UNK   H0M      1     0.1957     1.0080 
[ bonds ]
    2     1     1      0.1410 267776.000
    3     2     1      0.1327 179075.200
    4     3     1      0.1229 476976.000
    5     3     1      0.1327 179075.200
    6     5     1      0.1410 267776.000
    7     6     1      0.1529 224262.400
    8     7     1      0.1770 284512.000
    9     8     1      0.1440 585760.000
   10     8     1      0.1440 585760.000
   11     8     1      0.1660 245994.096
   12    11     1      0.1410 267776.000
   13    12     1      0.1360 307105.600
   14    12     1      0.1360 307105.600
   15    12     1      0.1360 307105.600
   16     1     1      0.1090 284512.000
   17     1     1      0.1090 284512.000
   18     1     1      0.1090 284512.000
   19     6     1      0.1090 284512.000
   20     6     1      0.1090 284512.000
   21     7     1      0.1090 284512.000
   22     7     1      0.1090 284512.000

[ angles ]
;  ai    aj    ak funct            c0            c1            c2            c3 
    1     2     3     1    116.900    694.544
    2     3     4     1    123.400    694.544
    2     3     5     1    118.180    584.923
    3     5     6     1    116.900    694.544
    5     6     7     1    109.500    418.400
    6     7     8     1    108.600    418.400
    7     8     9     1    108.900    619.232
    7     8    10     1    108.900    619.232
    7     8    11     1    104.360    658.311
    8    11    12     1    114.540    581.660
   11    12    13     1    109.900    585.760
   11    12    14     1    109.900    585.760
   11    12    15     1    109.900    585.760
    2     1    16     1    109.500    292.880
    2     1    17     1    109.500    292.880
    2     1    18     1    109.500    292.880
    5     6    19     1    109.500    292.880
    5     6    20     1    109.500    292.880
    6     7    21     1    110.700    313.800
    6     7    22     1    110.700    313.800
   16     1    17     1    107.800    276.144
    8     7    22     1    109.500    292.880
   10     8    11     1    104.360    658.311
   13    12    14     1    109.100    644.336
   13    12    15     1    109.100    644.336
   16     1    18     1    107.800    276.144
    4     3     5     1    123.400    694.544
   14    12    15     1    109.100    644.336
    7     6    19     1    110.700    313.800
   21     7    22     1    107.800    276.144
   19     6    20     1    107.800    276.144
    9     8    11     1    104.360    658.311
    8     7    21     1    109.500    292.880
   17     1    18     1    107.800    276.144
    9     8    10     1    119.000    870.272
    7     6    20     1    110.700    313.800

[ dihedrals ]
; IMPROPER DIHEDRAL ANGLES 
;  ai    aj    ak    al funct            c0            c1            c2            c3            c4            c5
     5     3     2     4    4        180.000     43.932     2  

[ dihedrals ]
; PROPER DIHEDRAL ANGLES
;  ai    aj    ak    al funct            c0            c1            c2            c3            c4            c5
   12   11    8    7        3      -1.569   1.569   0.000  -0.000  -0.000   0.000
   12   11    8    9        3       1.569  -1.569   0.000  -0.000  -0.000   0.000
   12   11    8   10        3       1.569  -1.569   0.000  -0.000  -0.000   0.000
    7    6    5    3        3      -2.197   5.201   0.527  -3.531  -0.000   0.000
    6    5    3    4        3      21.439   0.000  -21.439  -0.000  -0.000   0.000
    6    5    3    2        3      31.206  -9.768  -21.439  -0.000  -0.000   0.000
   14   12   11    8        3      21.439   0.000  -21.439  -0.000  -0.000   0.000
   13   12   11    8        3      21.439   0.000  -21.439  -0.000  -0.000   0.000
   15   12   11    8        3      21.439   0.000  -21.439  -0.000  -0.000   0.000
   22    7    6   19        3       0.628   1.883   0.000  -2.510  -0.000   0.000
   21    7    6   19        3       0.628   1.883   0.000  -2.510  -0.000   0.000
   22    7    6   20        3       0.628   1.883   0.000  -2.510  -0.000   0.000
   21    7    6   20        3       0.628   1.883   0.000  -2.510  -0.000   0.000
   22    7    6    5        3       0.979   2.937   0.000  -3.916  -0.000   0.000
   21    7    6    5        3       0.979   2.937   0.000  -3.916  -0.000   0.000
   20    6    7    8        3       0.946   2.837   0.000  -3.782  -0.000   0.000
   19    6    7    8        3       0.946   2.837   0.000  -3.782  -0.000   0.000
   16    1    2    3        3       0.414   1.243   0.000  -1.657  -0.000   0.000
   18    1    2    3        3       0.414   1.243   0.000  -1.657  -0.000   0.000
   17    1    2    3        3       0.414   1.243   0.000  -1.657  -0.000   0.000
   19    6    5    3        3       0.414   1.243   0.000  -1.657  -0.000   0.000
   20    6    5    3        3       0.414   1.243   0.000  -1.657  -0.000   0.000
   21    7    8   11        3       0.732   2.197   0.000  -2.929  -0.000   0.000
   22    7    8   11        3       0.732   2.197   0.000  -2.929  -0.000   0.000
   22    7    8    9        3       0.732   2.197   0.000  -2.929  -0.000   0.000
   21    7    8    9        3       0.732   2.197   0.000  -2.929  -0.000   0.000
   21    7    8   10        3       0.732   2.197   0.000  -2.929  -0.000   0.000
   22    7    8   10        3       0.732   2.197   0.000  -2.929  -0.000   0.000
    4    3    2    1        3      21.439   0.000  -21.439  -0.000  -0.000   0.000
    5    3    2    1        3      31.206  -9.768  -21.439  -0.000  -0.000   0.000
   11    8    7    6        3       0.000   0.000   0.000  -0.000  -0.000   0.000
    9    8    7    6        3       0.000   0.000   0.000  -0.000  -0.000   0.000
   10    8    7    6        3       0.000   0.000   0.000  -0.000  -0.000   0.000
    8    7    6    5        3       0.979   2.937   0.000  -3.916  -0.000   0.000

[ pairs ]
     1     4    1
     1     5    1
     2     6    1
     4     6    1
     3     7    1
     5     8    1
     6     9    1
     6    10    1
     6    11    1
     7    12    1
     3    16    1
     3    17    1
     9    12    1
     8    13    1
     3    18    1
    10    12    1
     8    14    1
     3    19    1
     8    15    1
     3    20    1
     5    21    1
     8    19    1
     5    22    1
     8    20    1
     9    21    1
    10    21    1
     9    22    1
    11    21    1
    10    22    1
    11    22    1
    19    21    1
    20    21    1
    19    22    1
    20    22    1

