LIGPARGEN GENERATED GRO FILE
   31
    1UNK    C00    1   0.100   0.100   0.000
    1UNK    C01    2  -0.052   0.100   0.000
    1UNK    C02    3  -0.110   0.100   0.142
    1UNK    C03    4  -0.262   0.100   0.139
    1UNK    O04    5  -0.324   0.055   0.042
    1UNK    C05    6  -0.335   0.159   0.260
    1UNK    C06    7  -0.415   0.279   0.209
    1UNK    C07    8  -0.418   0.053   0.341
    1UNK    C08    9  -0.323  -0.053   0.399
    1UNK    C09   10  -0.489   0.122   0.460
    1UNK    C0A   11  -0.525  -0.018   0.256
    1UNK    H0B   12   0.138   0.100  -0.103
    1UNK    H0C   13   0.139   0.011   0.050
    1UNK    H0D   14   0.139   0.189   0.051
    1UNK    H0E   15  -0.087   0.012  -0.056
    1UNK    H0F   16  -0.088   0.188  -0.054
    1UNK    H0G   17  -0.075   0.190   0.194
    1UNK    H0H   18  -0.077   0.012   0.197
    1UNK    H0I   19  -0.258   0.200   0.328
    1UNK    H0J   20  -0.493   0.249   0.138
    1UNK    H0K   21  -0.350   0.349   0.156
    1UNK    H0M   22  -0.463   0.335   0.290
    1UNK    H0N   23  -0.246  -0.007   0.463
    1UNK    H0O   24  -0.272  -0.110   0.321
    1UNK    H0P   25  -0.378  -0.125   0.461
    1UNK    H0Q   26  -0.418   0.175   0.523
    1UNK    H0R   27  -0.541   0.048   0.522
    1UNK    H0S   28  -0.566   0.192   0.426
    1UNK    H0T   29  -0.480  -0.080   0.178
    1UNK    H0U   30  -0.593   0.053   0.208
    1UNK    H0V   31  -0.586  -0.085   0.318
   1.00000   1.00000   1.00000

