LIGPARGEN GENERATED GRO FILE
   22
    1UNK    C00    1   0.100   0.100   0.000
    1UNK    O01    2  -0.043   0.100   0.000
    1UNK    C02    3  -0.097   0.100   0.124
    1UNK    O03    4  -0.035   0.100   0.230
    1UNK    O04    5  -0.232   0.100   0.113
    1UNK    C05    6  -0.303   0.108   0.237
    1UNK    C06    7  -0.314  -0.028   0.303
    1UNK    S07    8  -0.402  -0.012   0.456
    1UNK    O08    9  -0.326   0.073   0.545
    1UNK    O09   10  -0.541   0.013   0.424
    1UNK    O0A   11  -0.387  -0.165   0.504
    1UNK    C0B   12  -0.438  -0.192   0.631
    1UNK    F0C   13  -0.505  -0.089   0.686
    1UNK    F0D   14  -0.522  -0.297   0.622
    1UNK    F0E   15  -0.336  -0.226   0.713
    1UNK    H0F   16   0.134   0.100  -0.104
    1UNK    H0G   17   0.138   0.010   0.049
    1UNK    H0H   18   0.139   0.190   0.049
    1UNK    H0I   19  -0.403   0.147   0.213
    1UNK    H0J   20  -0.257   0.183   0.303
    1UNK    H0K   21  -0.215  -0.070   0.325
    1UNK    H0M   22  -0.367  -0.099   0.239
   1.00000   1.00000   1.00000

