
;
; GENERATED BY LigParGen Server
; Jorgensen Lab @ Yale University 
;
[ atomtypes ]
  opls_818  H818     1.0080     0.000    A    2.50000E-01   1.25520E-01
  opls_804  C804    12.0110     0.000    A    3.50000E-01   2.76144E-01
  opls_813  H813     1.0080     0.000    A    2.50000E-01   1.25520E-01
  opls_802  C802    12.0110     0.000    A    3.50000E-01   2.76144E-01
  opls_815  H815     1.0080     0.000    A    2.50000E-01   1.25520E-01
  opls_801  C801    12.0110     0.000    A    3.50000E-01   2.76144E-01
  opls_822  H822     1.0080     0.000    A    2.50000E-01   1.25520E-01
  opls_803  C803    12.0110     0.000    A    3.50000E-01   2.76144E-01
  opls_812  F812    18.9984     0.000    A    2.90000E-01   2.51040E-01
  opls_814  H814     1.0080     0.000    A    2.50000E-01   1.25520E-01
  opls_821  H821     1.0080     0.000    A    2.50000E-01   1.25520E-01
  opls_820  H820     1.0080     0.000    A    2.50000E-01   1.25520E-01
  opls_816  H816     1.0080     0.000    A    2.50000E-01   1.25520E-01
  opls_800  C800    12.0110     0.000    A    3.50000E-01   2.76144E-01
  opls_805  C805    12.0110     0.000    A    3.30000E-01   2.76144E-01
  opls_811  F811    18.9984     0.000    A    2.90000E-01   2.51040E-01
  opls_809  F809    18.9984     0.000    A    2.90000E-01   2.51040E-01
  opls_823  H823     1.0080     0.000    A    2.50000E-01   1.25520E-01
  opls_808  F808    18.9984     0.000    A    2.90000E-01   2.51040E-01
  opls_806  N806    14.0070     0.000    A    3.20000E-01   7.11280E-01
  opls_819  H819     1.0080     0.000    A    2.50000E-01   1.25520E-01
  opls_810  C810    12.0110     0.000    A    3.50000E-01   2.76144E-01
  opls_817  H817     1.0080     0.000    A    2.50000E-01   1.25520E-01
  opls_807  C807    12.0110     0.000    A    3.50000E-01   2.76144E-01
[ moleculetype ]
; Name               nrexcl
UNK                   3
[ atoms ]
;   nr       type  resnr residue  atom   cgnr     charge       mass  
     1   opls_800      1    UNK   C00      1    -0.2395    12.0110 
     2   opls_801      1    UNK   C01      1    -0.1776    12.0110 
     3   opls_802      1    UNK   C02      1    -0.1792    12.0110 
     4   opls_803      1    UNK   C03      1    -0.1839    12.0110 
     5   opls_804      1    UNK   C04      1    -0.0292    12.0110 
     6   opls_805      1    UNK   C05      1     0.1148    12.0110 
     7   opls_806      1    UNK   N06      1    -0.3509    14.0070 
     8   opls_807      1    UNK   C07      1      0.229    12.0110 
     9   opls_808      1    UNK   F08      1    -0.1416    18.9984 
    10   opls_809      1    UNK   F09      1    -0.1416    18.9984 
    11   opls_810      1    UNK   C0A      1     0.1929    12.0110 
    12   opls_811      1    UNK   F0B      1    -0.1488    18.9984 
    13   opls_812      1    UNK   F0C      1    -0.1488    18.9984 
    14   opls_813      1    UNK   H0D      1     0.0852     1.0080 
    15   opls_814      1    UNK   H0E      1     0.0852     1.0080 
    16   opls_815      1    UNK   H0F      1     0.0852     1.0080 
    17   opls_816      1    UNK   H0G      1      0.093     1.0080 
    18   opls_817      1    UNK   H0H      1      0.093     1.0080 
    19   opls_818      1    UNK   H0I      1     0.0982     1.0080 
    20   opls_819      1    UNK   H0J      1     0.0982     1.0080 
    21   opls_820      1    UNK   H0K      1     0.1232     1.0080 
    22   opls_821      1    UNK   H0M      1     0.1232     1.0080 
    23   opls_822      1    UNK   H0N      1     0.1741     1.0080 
    24   opls_823      1    UNK   H0O      1      0.146     1.0080 
[ bonds ]
    2     1     1      0.1529 224262.400
    3     2     1      0.1529 224262.400
    4     3     1      0.1529 224262.400
    5     4     1      0.1529 224262.400
    6     5     1      0.1470 326352.000
    7     6     1      0.1157 543920.000
    8     5     1      0.1529 224262.400
    9     8     1      0.1360 307105.600
   10     8     1      0.1360 307105.600
   11     8     1      0.1529 224262.400
   12    11     1      0.1360 307105.600
   13    11     1      0.1360 307105.600
   14     1     1      0.1090 284512.000
   15     1     1      0.1090 284512.000
   16     1     1      0.1090 284512.000
   17     2     1      0.1090 284512.000
   18     2     1      0.1090 284512.000
   19     3     1      0.1090 284512.000
   20     3     1      0.1090 284512.000
   21     4     1      0.1090 284512.000
   22     4     1      0.1090 284512.000
   23     5     1      0.1090 284512.000
   24    11     1      0.1090 284512.000

[ angles ]
;  ai    aj    ak funct            c0            c1            c2            c3 
    1     2     3     1    112.700    488.273
    2     3     4     1    112.700    488.273
    3     4     5     1    112.700    488.273
    4     5     6     1    112.700    488.273
    5     6     7     1    180.000   1255.200
    4     5     8     1    112.700    488.273
    5     8     9     1    109.500    418.400
    5     8    10     1    109.500    418.400
    5     8    11     1    112.700    488.273
    8    11    12     1    109.500    418.400
    8    11    13     1    109.500    418.400
    2     1    14     1    110.700    313.800
    2     1    15     1    110.700    313.800
    2     1    16     1    110.700    313.800
    1     2    17     1    110.700    313.800
    1     2    18     1    110.700    313.800
    2     3    19     1    110.700    313.800
    2     3    20     1    110.700    313.800
    3     4    21     1    110.700    313.800
    3     4    22     1    110.700    313.800
    4     5    23     1    110.700    313.800
    8    11    24     1    110.700    313.800
   12    11    24     1    107.000    334.720
    9     8    10     1    109.100    644.336
    3     2    18     1    110.700    313.800
    3     2    17     1    110.700    313.800
   10     8    11     1    109.500    418.400
    4     3    19     1    110.700    313.800
   14     1    15     1    107.800    276.144
    8     5    23     1    110.700    313.800
    5     4    22     1    110.700    313.800
   15     1    16     1    107.800    276.144
   13    11    24     1    107.000    334.720
   21     4    22     1    107.800    276.144
   17     2    18     1    107.800    276.144
    6     5     8     1    112.700    488.273
   19     3    20     1    107.800    276.144
    9     8    11     1    109.500    418.400
   12    11    13     1    109.100    644.336
    6     5    23     1    108.500    292.880
   14     1    16     1    107.800    276.144
    5     4    21     1    110.700    313.800
    4     3    20     1    110.700    313.800

[ dihedrals ]
; IMPROPER DIHEDRAL ANGLES 
;  ai    aj    ak    al funct            c0            c1            c2            c3            c4            c5

[ dihedrals ]
; PROPER DIHEDRAL ANGLES
;  ai    aj    ak    al funct            c0            c1            c2            c3            c4            c5
   11    8    5    4        3       2.301  -1.464   0.837  -1.674  -0.000   0.000
   11    8    5    6        3      -2.720   0.000   2.720  -0.000  -0.000   0.000
    8    5    4    3        3       2.301  -1.464   0.837  -1.674  -0.000   0.000
    8    5    6    7        3       0.000   0.000   0.000  -0.000  -0.000   0.000
    4    3    2    1        3       2.301  -1.464   0.837  -1.674  -0.000   0.000
    5    4    3    2        3       2.301  -1.464   0.837  -1.674  -0.000   0.000
    6    5    4    3        3      -2.720   0.000   2.720  -0.000  -0.000   0.000
   13   11    8    5        3       0.000   0.000   0.000  -0.000  -0.000   0.000
   12   11    8    5        3       0.000   0.000   0.000  -0.000  -0.000   0.000
   13   11    8   10        3      -4.707   6.799   0.000  -2.092  -0.000   0.000
   12   11    8    9        3      -4.707   6.799   0.000  -2.092  -0.000   0.000
   12   11    8   10        3      -4.707   6.799   0.000  -2.092  -0.000   0.000
   13   11    8    9        3      -4.707   6.799   0.000  -2.092  -0.000   0.000
   10    8    5    4        3       0.000   0.000   0.000  -0.000  -0.000   0.000
    9    8    5    4        3       0.000   0.000   0.000  -0.000  -0.000   0.000
   10    8    5    6        3       0.000   0.000   0.000  -0.000  -0.000   0.000
    9    8    5    6        3       0.000   0.000   0.000  -0.000  -0.000   0.000
   24   11    8    5        3       0.628   1.883   0.000  -2.510  -0.000   0.000
   24   11    8    9        3       0.753   2.259   0.000  -3.012  -0.000   0.000
   24   11    8   10        3       0.753   2.259   0.000  -3.012  -0.000   0.000
   23    5    8   11        3       0.628   1.883   0.000  -2.510  -0.000   0.000
   23    5    8    9        3       0.753   2.259   0.000  -3.012  -0.000   0.000
   23    5    8   10        3       0.753   2.259   0.000  -3.012  -0.000   0.000
   21    4    5    8        3       0.628   1.883   0.000  -2.510  -0.000   0.000
   22    4    5    8        3       0.628   1.883   0.000  -2.510  -0.000   0.000
   23    5    4    3        3       0.628   1.883   0.000  -2.510  -0.000   0.000
   15    1    2    3        3       0.628   1.883   0.000  -2.510  -0.000   0.000
   14    1    2    3        3       0.628   1.883   0.000  -2.510  -0.000   0.000
   22    4    3    2        3       0.628   1.883   0.000  -2.510  -0.000   0.000
   16    1    2    3        3       0.628   1.883   0.000  -2.510  -0.000   0.000
   18    2    3    4        3       0.628   1.883   0.000  -2.510  -0.000   0.000
   19    3    4    5        3       0.628   1.883   0.000  -2.510  -0.000   0.000
   19    3    2    1        3       0.628   1.883   0.000  -2.510  -0.000   0.000
   21    4    3    2        3       0.628   1.883   0.000  -2.510  -0.000   0.000
   17    2    3    4        3       0.628   1.883   0.000  -2.510  -0.000   0.000
   20    3    4    5        3       0.628   1.883   0.000  -2.510  -0.000   0.000
   20    3    2    1        3       0.628   1.883   0.000  -2.510  -0.000   0.000
   21    4    5    6        3       0.766   2.297   0.000  -3.063  -0.000   0.000
   22    4    5    6        3       0.766   2.297   0.000  -3.063  -0.000   0.000
   21    4    3   19        3       0.628   1.883   0.000  -2.510  -0.000   0.000
   18    2    1   16        3       0.628   1.883   0.000  -2.510  -0.000   0.000
   18    2    1   15        3       0.628   1.883   0.000  -2.510  -0.000   0.000
   17    2    1   16        3       0.628   1.883   0.000  -2.510  -0.000   0.000
   19    3    2   18        3       0.628   1.883   0.000  -2.510  -0.000   0.000
   19    3    2   17        3       0.628   1.883   0.000  -2.510  -0.000   0.000
   21    4    3   20        3       0.628   1.883   0.000  -2.510  -0.000   0.000
   17    2    1   15        3       0.628   1.883   0.000  -2.510  -0.000   0.000
   17    2    1   14        3       0.628   1.883   0.000  -2.510  -0.000   0.000
   22    4    3   20        3       0.628   1.883   0.000  -2.510  -0.000   0.000
   20    3    2   18        3       0.628   1.883   0.000  -2.510  -0.000   0.000
   23    5    4   21        3       0.628   1.883   0.000  -2.510  -0.000   0.000
   23    5    4   22        3       0.628   1.883   0.000  -2.510  -0.000   0.000
   22    4    3   19        3       0.628   1.883   0.000  -2.510  -0.000   0.000
   20    3    2   17        3       0.628   1.883   0.000  -2.510  -0.000   0.000
   18    2    1   14        3       0.628   1.883   0.000  -2.510  -0.000   0.000
   23    5    6    7        3       0.000   0.000   0.000  -0.000  -0.000   0.000
    7    6    5    4        3       0.000   0.000   0.000  -0.000  -0.000   0.000

[ pairs ]
     1     4    1
     2     5    1
     3     6    1
     4     7    1
     3     8    1
     4     9    1
     4    10    1
     7     8    1
     6     9    1
     4    11    1
     6    10    1
     6    11    1
     5    12    1
     3    14    1
     5    13    1
     3    15    1
     3    16    1
     1    19    1
     9    12    1
     4    17    1
     1    20    1
    10    12    1
     9    13    1
     4    18    1
    10    13    1
     2    21    1
     5    19    1
     2    22    1
     5    20    1
     3    23    1
     6    21    1
     6    22    1
     8    21    1
     5    24    1
     8    22    1
     7    23    1
    14    17    1
    15    17    1
    14    18    1
     9    23    1
    16    17    1
    15    18    1
    10    23    1
     9    24    1
    16    18    1
    11    23    1
    10    24    1
    17    19    1
    18    19    1
    17    20    1
    18    20    1
    19    21    1
    20    21    1
    19    22    1
    20    22    1
    21    23    1
    22    23    1

