LIGPARGEN GENERATED GRO FILE
   24
    1UNK    C00    1   0.100   0.100   0.000
    1UNK    C01    2  -0.052   0.100   0.000
    1UNK    C02    3  -0.108   0.100   0.143
    1UNK    C03    4  -0.261   0.107   0.143
    1UNK    C04    5  -0.321   0.107   0.285
    1UNK    C05    6  -0.272   0.230   0.360
    1UNK    N06    7  -0.231   0.331   0.422
    1UNK    C07    8  -0.474   0.106   0.287
    1UNK    F08    9  -0.516  -0.006   0.220
    1UNK    F09   10  -0.514   0.088   0.416
    1UNK    C0A   11  -0.543   0.230   0.230
    1UNK    F0B   12  -0.509   0.250   0.100
    1UNK    F0C   13  -0.678   0.213   0.230
    1UNK    H0D   14   0.138   0.100  -0.103
    1UNK    H0E   15   0.139   0.011   0.051
    1UNK    H0F   16   0.139   0.189   0.051
    1UNK    H0G   17  -0.088   0.012  -0.054
    1UNK    H0H   18  -0.088   0.188  -0.054
    1UNK    H0I   19  -0.066   0.186   0.196
    1UNK    H0J   20  -0.074   0.010   0.195
    1UNK    H0K   21  -0.301   0.021   0.087
    1UNK    H0M   22  -0.291   0.197   0.089
    1UNK    H0N   23  -0.285   0.018   0.338
    1UNK    H0O   24  -0.521   0.320   0.286
   1.00000   1.00000   1.00000

