LIGPARGEN GENERATED GRO FILE
   34
    1UNK    C00    1   0.100   0.100   0.000
    1UNK    C01    2  -0.053   0.100   0.000
    1UNK    C02    3  -0.118   0.100   0.140
    1UNK    C03    4  -0.153   0.234   0.206
    1UNK    O04    5  -0.266   0.298   0.143
    1UNK    C05    6  -0.388   0.251   0.177
    1UNK    O06    7  -0.414   0.161   0.255
    1UNK    C07    8  -0.033   0.328   0.213
    1UNK    C08    9  -0.032   0.451   0.125
    1UNK    C09   10  -0.072   0.449  -0.021
    1UNK    C0A   11  -0.156   0.570  -0.059
    1UNK    C0B   12   0.041   0.406  -0.115
    1UNK    C0C   13  -0.090   0.334  -0.121
    1UNK    C0D   14  -0.119   0.190  -0.103
    1UNK    H0E   15   0.138   0.016   0.059
    1UNK    H0F   16   0.144   0.190   0.043
    1UNK    H0G   17   0.138   0.089  -0.102
    1UNK    H0H   18  -0.076  -0.002  -0.036
    1UNK    H0I   19  -0.053   0.044   0.208
    1UNK    H0J   20  -0.210   0.041   0.132
    1UNK    H0K   21  -0.181   0.211   0.310
    1UNK    H0M   22  -0.464   0.308   0.122
    1UNK    H0N   23   0.061   0.273   0.206
    1UNK    H0O   24  -0.030   0.366   0.316
    1UNK    H0P   25   0.069   0.494   0.131
    1UNK    H0Q   26  -0.095   0.525   0.177
    1UNK    H0R   27  -0.146   0.652   0.012
    1UNK    H0S   28  -0.262   0.541  -0.062
    1UNK    H0T   29  -0.129   0.609  -0.158
    1UNK    H0U   30   0.129   0.359  -0.073
    1UNK    H0V   31   0.067   0.473  -0.197
    1UNK    H0W   32  -0.148   0.361  -0.210
    1UNK    H0X   33  -0.099   0.144  -0.201
    1UNK    H0Y   34  -0.228   0.182  -0.090
   1.00000   1.00000   1.00000

