LIGPARGEN GENERATED GRO FILE
   42
    1UNK    C00    1   0.100   0.100   0.000
    1UNK    C01    2  -0.053   0.100   0.000
    1UNK    C02    3  -0.104   0.100   0.141
    1UNK    C03    4  -0.084   0.229   0.219
    1UNK    C04    5  -0.223   0.180   0.192
    1UNK    C05    6  -0.294   0.099   0.298
    1UNK    C06    7  -0.262  -0.045   0.252
    1UNK    C07    8  -0.298  -0.164   0.345
    1UNK    C08    9  -0.185  -0.190   0.449
    1UNK    C09   10  -0.428  -0.142   0.425
    1UNK    C0A   11  -0.471  -0.282   0.469
    1UNK    C0B   12  -0.438  -0.371   0.350
    1UNK    C0C   13  -0.335  -0.294   0.262
    1UNK    C0D   14  -0.399  -0.272   0.123
    1UNK    C0E   15  -0.214  -0.383   0.239
    1UNK    N0F   16  -0.113  -0.457   0.221
    1UNK    C0G   17  -0.113  -0.035   0.209
    1UNK    H0H   18   0.139   0.109  -0.102
    1UNK    H0I   19   0.139   0.007   0.044
    1UNK    H0J   20   0.140   0.183   0.059
    1UNK    H0K   21  -0.089   0.011  -0.054
    1UNK    H0M   22  -0.089   0.187  -0.055
    1UNK    H0N   23  -0.053   0.318   0.165
    1UNK    H0O   24  -0.044   0.223   0.320
    1UNK    H0P   25  -0.287   0.228   0.119
    1UNK    H0Q   26  -0.402   0.118   0.297
    1UNK    H0R   27  -0.255   0.119   0.398
    1UNK    H0S   28  -0.320  -0.053   0.160
    1UNK    H0T   29  -0.169  -0.101   0.511
    1UNK    H0U   30  -0.089  -0.214   0.401
    1UNK    H0V   31  -0.207  -0.273   0.516
    1UNK    H0W   32  -0.507  -0.098   0.361
    1UNK    H0X   33  -0.414  -0.076   0.511
    1UNK    H0Y   34  -0.577  -0.286   0.496
    1UNK    H0Z   35  -0.414  -0.315   0.557
    1UNK    H10   36  -0.531  -0.389   0.294
    1UNK    H11   37  -0.403  -0.469   0.383
    1UNK    H12   38  -0.486  -0.206   0.129
    1UNK    H13   39  -0.434  -0.367   0.081
    1UNK    H14   40  -0.328  -0.232   0.051
    1UNK    H15   41  -0.087  -0.118   0.143
    1UNK    H16   42  -0.044  -0.035   0.294
   1.00000   1.00000   1.00000

