
;
; GENERATED BY LigParGen Server
; Jorgensen Lab @ Yale University 
;
[ atomtypes ]
  opls_818  H818     1.0080     0.000    A    2.50000E-01   1.25520E-01
  opls_804  C804    12.0110     0.000    A    3.45000E-01   3.47272E-01
  opls_824  H824     1.0080     0.000    A    2.50000E-01   1.25520E-01
  opls_805  C805    12.0110     0.000    A    3.50000E-01   2.76144E-01
  opls_836  H836     1.0080     0.000    A    2.50000E-01   1.25520E-01
  opls_834  H834     1.0080     0.000    A    2.50000E-01   1.25520E-01
  opls_828  H828     1.0080     0.000    A    2.50000E-01   1.25520E-01
  opls_835  H835     1.0080     0.000    A    2.50000E-01   1.25520E-01
  opls_803  C803    12.0110     0.000    A    3.45000E-01   3.47272E-01
  opls_806  C806    12.0110     0.000    A    3.50000E-01   2.76144E-01
  opls_827  H827     1.0080     0.000    A    2.50000E-01   1.25520E-01
  opls_801  C801    12.0110     0.000    A    3.50000E-01   2.76144E-01
  opls_838  H838     1.0080     0.000    A    2.50000E-01   1.25520E-01
  opls_822  H822     1.0080     0.000    A    2.50000E-01   1.25520E-01
  opls_807  C807    12.0110     0.000    A    3.50000E-01   2.76144E-01
  opls_825  H825     1.0080     0.000    A    2.50000E-01   1.25520E-01
  opls_826  H826     1.0080     0.000    A    2.50000E-01   1.25520E-01
  opls_830  H830     1.0080     0.000    A    2.50000E-01   1.25520E-01
  opls_810  C810    12.0110     0.000    A    3.50000E-01   2.76144E-01
  opls_820  H820     1.0080     0.000    A    2.50000E-01   1.25520E-01
  opls_837  H837     1.0080     0.000    A    2.50000E-01   1.25520E-01
  opls_821  H821     1.0080     0.000    A    2.50000E-01   1.25520E-01
  opls_831  H831     1.0080     0.000    A    2.50000E-01   1.25520E-01
  opls_809  C809    12.0110     0.000    A    3.50000E-01   2.76144E-01
  opls_832  H832     1.0080     0.000    A    2.50000E-01   1.25520E-01
  opls_800  C800    12.0110     0.000    A    3.50000E-01   2.76144E-01
  opls_811  C811    12.0110     0.000    A    3.50000E-01   2.76144E-01
  opls_823  H823     1.0080     0.000    A    2.50000E-01   1.25520E-01
  opls_813  C813    12.0110     0.000    A    3.50000E-01   2.76144E-01
  opls_814  C814    12.0110     0.000    A    3.30000E-01   2.76144E-01
  opls_802  C802    12.0110     0.000    A    3.45000E-01   3.47272E-01
  opls_815  N815    14.0070     0.000    A    3.20000E-01   7.11280E-01
  opls_841  H841     1.0080     0.000    A    2.50000E-01   1.25520E-01
  opls_819  H819     1.0080     0.000    A    2.50000E-01   1.25520E-01
  opls_816  C816    12.0110     0.000    A    3.50000E-01   2.76144E-01
  opls_833  H833     1.0080     0.000    A    2.50000E-01   1.25520E-01
  opls_839  H839     1.0080     0.000    A    2.50000E-01   1.25520E-01
  opls_812  C812    12.0110     0.000    A    3.50000E-01   2.76144E-01
  opls_808  C808    12.0110     0.000    A    3.50000E-01   2.76144E-01
  opls_817  H817     1.0080     0.000    A    2.50000E-01   1.25520E-01
  opls_829  H829     1.0080     0.000    A    2.50000E-01   1.25520E-01
  opls_840  H840     1.0080     0.000    A    2.50000E-01   1.25520E-01
[ moleculetype ]
; Name               nrexcl
UNK                   3
[ atoms ]
;   nr       type  resnr residue  atom   cgnr     charge       mass  
     1   opls_800      1    UNK   C00      1    -0.2352    12.0110 
     2   opls_801      1    UNK   C01      1    -0.1317    12.0110 
     3   opls_802      1    UNK   C02      1    -0.1569    12.0110 
     4   opls_803      1    UNK   C03      1    -0.1981    12.0110 
     5   opls_804      1    UNK   C04      1    -0.1924    12.0110 
     6   opls_805      1    UNK   C05      1    -0.1448    12.0110 
     7   opls_806      1    UNK   C06      1    -0.1203    12.0110 
     8   opls_807      1    UNK   C07      1    -0.0133    12.0110 
     9   opls_808      1    UNK   C08      1    -0.2312    12.0110 
    10   opls_809      1    UNK   C09      1    -0.1751    12.0110 
    11   opls_810      1    UNK   C0A      1     -0.189    12.0110 
    12   opls_811      1    UNK   C0B      1    -0.1807    12.0110 
    13   opls_812      1    UNK   C0C      1     0.0926    12.0110 
    14   opls_813      1    UNK   C0D      1    -0.2296    12.0110 
    15   opls_814      1    UNK   C0E      1     0.1485    12.0110 
    16   opls_815      1    UNK   N0F      1    -0.4098    14.0070 
    17   opls_816      1    UNK   C0G      1    -0.1342    12.0110 
    18   opls_817      1    UNK   H0H      1     0.0823     1.0080 
    19   opls_818      1    UNK   H0I      1     0.0823     1.0080 
    20   opls_819      1    UNK   H0J      1     0.0823     1.0080 
    21   opls_820      1    UNK   H0K      1     0.0901     1.0080 
    22   opls_821      1    UNK   H0M      1     0.0901     1.0080 
    23   opls_822      1    UNK   H0N      1      0.126     1.0080 
    24   opls_823      1    UNK   H0O      1      0.126     1.0080 
    25   opls_824      1    UNK   H0P      1     0.1379     1.0080 
    26   opls_825      1    UNK   H0Q      1     0.0988     1.0080 
    27   opls_826      1    UNK   H0R      1     0.0988     1.0080 
    28   opls_827      1    UNK   H0S      1     0.1025     1.0080 
    29   opls_828      1    UNK   H0T      1     0.0906     1.0080 
    30   opls_829      1    UNK   H0U      1     0.0906     1.0080 
    31   opls_830      1    UNK   H0V      1     0.0906     1.0080 
    32   opls_831      1    UNK   H0W      1     0.1005     1.0080 
    33   opls_832      1    UNK   H0X      2     0.1005     1.0080 
    34   opls_833      1    UNK   H0Y      2     0.0986     1.0080 
    35   opls_834      1    UNK   H0Z      2     0.0986     1.0080 
    36   opls_835      1    UNK   H10      2     0.1057     1.0080 
    37   opls_836      1    UNK   H11      2     0.1057     1.0080 
    38   opls_837      1    UNK   H12      2     0.0974     1.0080 
    39   opls_838      1    UNK   H13      2     0.0974     1.0080 
    40   opls_839      1    UNK   H14      2     0.0974     1.0080 
    41   opls_840      1    UNK   H15      2     0.1051     1.0080 
    42   opls_841      1    UNK   H16      2     0.1051     1.0080 
[ bonds ]
    2     1     1      0.1529 224262.400
    3     2     1      0.1510 234304.000
    4     3     1      0.1520 217568.000
    5     3     1      0.1520 217568.000
    6     5     1      0.1510 234304.000
    7     6     1      0.1529 224262.400
    8     7     1      0.1529 224262.400
    9     8     1      0.1529 224262.400
   10     8     1      0.1529 224262.400
   11    10     1      0.1529 224262.400
   12    11     1      0.1529 224262.400
   13     8     1      0.1529 224262.400
   14    13     1      0.1529 224262.400
   15    13     1      0.1470 326352.000
   16    15     1      0.1157 543920.000
   17     3     1      0.1510 234304.000
   18     1     1      0.1090 284512.000
   19     1     1      0.1090 284512.000
   20     1     1      0.1090 284512.000
   21     2     1      0.1090 284512.000
   22     2     1      0.1090 284512.000
   23     4     1      0.1088 284512.000
   24     4     1      0.1088 284512.000
   25     5     1      0.1088 284512.000
   26     6     1      0.1090 284512.000
   27     6     1      0.1090 284512.000
   28     7     1      0.1090 284512.000
   29     9     1      0.1090 284512.000
   30     9     1      0.1090 284512.000
   31     9     1      0.1090 284512.000
   32    10     1      0.1090 284512.000
   33    10     1      0.1090 284512.000
   34    11     1      0.1090 284512.000
   35    11     1      0.1090 284512.000
   36    12     1      0.1090 284512.000
   37    12     1      0.1090 284512.000
   38    14     1      0.1090 284512.000
   39    14     1      0.1090 284512.000
   40    14     1      0.1090 284512.000
   41    17     1      0.1090 284512.000
   42    17     1      0.1090 284512.000
    5     4     1      0.1520 217568.000
   17     7     1      0.1529 224262.400
   13    12     1      0.1529 224262.400

[ angles ]
;  ai    aj    ak funct            c0            c1            c2            c3 
    1     2     3     1    112.700    488.273
    2     3     4     1    117.200    313.800
    2     3     5     1    117.200    313.800
    3     5     6     1    117.200    313.800
    5     6     7     1    112.700    488.273
    6     7     8     1    112.700    488.273
    7     8     9     1    112.700    488.273
    7     8    10     1    112.700    488.273
    8    10    11     1    112.700    488.273
   10    11    12     1    112.700    488.273
    7     8    13     1    112.700    488.273
    8    13    14     1    112.700    488.273
    8    13    15     1    112.700    488.273
   13    15    16     1    180.000   1255.200
    2     3    17     1    114.300    292.880
    2     1    18     1    110.700    313.800
    2     1    19     1    110.700    313.800
    2     1    20     1    110.700    313.800
    1     2    21     1    110.700    313.800
    1     2    22     1    110.700    313.800
    3     4    23     1    117.200    313.800
    3     4    24     1    117.200    313.800
    3     5    25     1    117.200    313.800
    5     6    26     1    110.700    313.800
    5     6    27     1    110.700    313.800
    6     7    28     1    110.700    313.800
    8     9    29     1    110.700    313.800
    8     9    30     1    110.700    313.800
    8     9    31     1    110.700    313.800
    8    10    32     1    110.700    313.800
    8    10    33     1    110.700    313.800
   10    11    34     1    110.700    313.800
   10    11    35     1    110.700    313.800
   11    12    36     1    110.700    313.800
   11    12    37     1    110.700    313.800
   13    14    38     1    110.700    313.800
   13    14    39     1    110.700    313.800
   13    14    40     1    110.700    313.800
    3    17    41     1    110.700    313.800
    3    17    42     1    110.700    313.800
    8    13    12     1    112.700    488.273
   29     9    30     1    107.800    276.144
    7    17    42     1    110.700    313.800
   13    12    37     1    110.700    313.800
   13    12    36     1    110.700    313.800
    9     8    13     1    112.700    488.273
   14    13    15     1    112.700    488.273
   36    12    37     1    107.800    276.144
   12    13    15     1    112.700    488.273
    3    17     7     1    112.700    488.273
   23     4    24     1    114.300    292.880
    4     3    17     1    117.200    313.800
    6     7    17     1    112.700    488.273
    4     5    25     1    117.200    313.800
    3     5     4     1     83.000    251.040
   10     8    13     1    112.700    488.273
    5     4    24     1    117.200    313.800
   32    10    33     1    107.800    276.144
   29     9    31     1    107.800    276.144
    4     3     5     1     83.000    251.040
   18     1    19     1    107.800    276.144
    8     7    28     1    110.700    313.800
    7     6    27     1    110.700    313.800
   41    17    42     1    107.800    276.144
   21     2    22     1    107.800    276.144
   38    14    40     1    107.800    276.144
    8     7    17     1    112.700    488.273
    9     8    10     1    112.700    488.273
   30     9    31     1    107.800    276.144
   12    11    35     1    110.700    313.800
   17     7    28     1    110.700    313.800
   34    11    35     1    107.800    276.144
   18     1    20     1    107.800    276.144
   39    14    40     1    107.800    276.144
   12    11    34     1    110.700    313.800
   11    10    33     1    110.700    313.800
    3     4     5     1     83.000    251.040
    3     2    21     1    110.700    313.800
    4     5     6     1    117.200    313.800
   11    10    32     1    110.700    313.800
    5     3    17     1    117.200    313.800
   38    14    39     1    107.800    276.144
    3     2    22     1    110.700    313.800
    5     4    23     1    117.200    313.800
    7     6    26     1    110.700    313.800
   26     6    27     1    107.800    276.144
    7    17    41     1    110.700    313.800
   12    13    14     1    112.700    488.273
    6     5    25     1    114.300    292.880
   19     1    20     1    107.800    276.144
   11    12    13     1    112.700    488.273

[ dihedrals ]
; IMPROPER DIHEDRAL ANGLES 
;  ai    aj    ak    al funct            c0            c1            c2            c3            c4            c5

[ dihedrals ]
; PROPER DIHEDRAL ANGLES
;  ai    aj    ak    al funct            c0            c1            c2            c3            c4            c5
   12   13    8    7        3       2.301  -1.464   0.837  -1.674  -0.000   0.000
   13    8    7    6        3       2.301  -1.464   0.837  -1.674  -0.000   0.000
   13   12   11   10        3       2.301  -1.464   0.837  -1.674  -0.000   0.000
   17    7    8    9        3       2.301  -1.464   0.837  -1.674  -0.000   0.000
   17    7    8   10        3       2.301  -1.464   0.837  -1.674  -0.000   0.000
   14   13    8    9        3       2.301  -1.464   0.837  -1.674  -0.000   0.000
   13    8   10   11        3       2.301  -1.464   0.837  -1.674  -0.000   0.000
   14   13    8   10        3       2.301  -1.464   0.837  -1.674  -0.000   0.000
   14   13   12   11        3       2.301  -1.464   0.837  -1.674  -0.000   0.000
   10    8    7    6        3       2.301  -1.464   0.837  -1.674  -0.000   0.000
   12   13    8   10        3       2.301  -1.464   0.837  -1.674  -0.000   0.000
   12   13    8    9        3       2.301  -1.464   0.837  -1.674  -0.000   0.000
   14   13    8    7        3       2.301  -1.464   0.837  -1.674  -0.000   0.000
   17    7    8   13        3       2.301  -1.464   0.837  -1.674  -0.000   0.000
   11   10    8    9        3       2.301  -1.464   0.837  -1.674  -0.000   0.000
    9    8    7    6        3       2.301  -1.464   0.837  -1.674  -0.000   0.000
   12   11   10    8        3       2.301  -1.464   0.837  -1.674  -0.000   0.000
   11   10    8    7        3       2.301  -1.464   0.837  -1.674  -0.000   0.000
   11   12   13    8        3       2.301  -1.464   0.837  -1.674  -0.000   0.000
    6    7   17    3        3       2.301  -1.464   0.837  -1.674  -0.000   0.000
   17    7    6    5        3       2.301  -1.464   0.837  -1.674  -0.000   0.000
    8    7   17    3        3       2.301  -1.464   0.837  -1.674  -0.000   0.000
    8    7    6    5        3       2.301  -1.464   0.837  -1.674  -0.000   0.000
    7   17    3    2        3       2.301  -1.464   0.837  -1.674  -0.000   0.000
    7   17    3    4        3       0.000   0.000   0.000  -0.000  -0.000   0.000
    7    6    5    4        3       0.000   0.000   0.000  -0.000  -0.000   0.000
    7    6    5    3        3       0.000   0.000   0.000  -0.000  -0.000   0.000
    7   17    3    5        3       0.000   0.000   0.000  -0.000  -0.000   0.000
   17    3    2    1        3       2.301  -1.464   0.837  -1.674  -0.000   0.000
   17    3    5    6        3       0.000   0.000   0.000  -0.000  -0.000   0.000
    6    5    3    2        3       0.000   0.000   0.000  -0.000  -0.000   0.000
    6    5    4    3        3       0.000   0.000   0.000  -0.000  -0.000   0.000
   17    3    5    4        3       0.000   0.000   0.000  -0.000  -0.000   0.000
   17    3    4    5        3       0.000   0.000   0.000  -0.000  -0.000   0.000
    6    5    3    4        3       0.000   0.000   0.000  -0.000  -0.000   0.000
    4    3    2    1        3       0.000   0.000   0.000  -0.000  -0.000   0.000
    5    3    2    1        3       0.000   0.000   0.000  -0.000  -0.000   0.000
    5    3    2    4        3       0.000   0.000   0.000  -0.000  -0.000   0.000
   15   13    8    7        3      -2.720   0.000   2.720  -0.000  -0.000   0.000
   15   13    8    9        3      -2.720   0.000   2.720  -0.000  -0.000   0.000
   15   13    8   10        3      -2.720   0.000   2.720  -0.000  -0.000   0.000
   15   13   12   11        3      -2.720   0.000   2.720  -0.000  -0.000   0.000
   36   12   13   14        3       0.628   1.883   0.000  -2.510  -0.000   0.000
   34   11   12   13        3       0.628   1.883   0.000  -2.510  -0.000   0.000
   30    9    8   13        3       0.628   1.883   0.000  -2.510  -0.000   0.000
   40   14   13    8        3       0.628   1.883   0.000  -2.510  -0.000   0.000
   41   17    7    8        3       0.628   1.883   0.000  -2.510  -0.000   0.000
   36   12   13    8        3       0.628   1.883   0.000  -2.510  -0.000   0.000
   39   14   13   12        3       0.628   1.883   0.000  -2.510  -0.000   0.000
   29    9    8   13        3       0.628   1.883   0.000  -2.510  -0.000   0.000
   30    9    8    7        3       0.628   1.883   0.000  -2.510  -0.000   0.000
   36   12   11   10        3       0.628   1.883   0.000  -2.510  -0.000   0.000
   32   10    8    7        3       0.628   1.883   0.000  -2.510  -0.000   0.000
   29    9    8   10        3       0.628   1.883   0.000  -2.510  -0.000   0.000
   35   11   12   13        3       0.628   1.883   0.000  -2.510  -0.000   0.000
   31    9    8    7        3       0.628   1.883   0.000  -2.510  -0.000   0.000
   33   10    8   13        3       0.628   1.883   0.000  -2.510  -0.000   0.000
   26    6    7    8        3       0.628   1.883   0.000  -2.510  -0.000   0.000
   27    6    7    8        3       0.628   1.883   0.000  -2.510  -0.000   0.000
   38   14   13   12        3       0.628   1.883   0.000  -2.510  -0.000   0.000
   37   12   13   14        3       0.628   1.883   0.000  -2.510  -0.000   0.000
   42   17    7    8        3       0.628   1.883   0.000  -2.510  -0.000   0.000
   33   10   11   12        3       0.628   1.883   0.000  -2.510  -0.000   0.000
   33   10    8    9        3       0.628   1.883   0.000  -2.510  -0.000   0.000
   34   11   10    8        3       0.628   1.883   0.000  -2.510  -0.000   0.000
   39   14   13    8        3       0.628   1.883   0.000  -2.510  -0.000   0.000
   28    7    8   13        3       0.628   1.883   0.000  -2.510  -0.000   0.000
   28    7    8   10        3       0.628   1.883   0.000  -2.510  -0.000   0.000
   31    9    8   13        3       0.628   1.883   0.000  -2.510  -0.000   0.000
   35   11   10    8        3       0.628   1.883   0.000  -2.510  -0.000   0.000
   26    6    7   17        3       0.628   1.883   0.000  -2.510  -0.000   0.000
   37   12   11   10        3       0.628   1.883   0.000  -2.510  -0.000   0.000
   31    9    8   10        3       0.628   1.883   0.000  -2.510  -0.000   0.000
   32   10   11   12        3       0.628   1.883   0.000  -2.510  -0.000   0.000
   41   17    7    6        3       0.628   1.883   0.000  -2.510  -0.000   0.000
   40   14   13   12        3       0.628   1.883   0.000  -2.510  -0.000   0.000
   32   10    8   13        3       0.628   1.883   0.000  -2.510  -0.000   0.000
   28    7    8    9        3       0.628   1.883   0.000  -2.510  -0.000   0.000
   42   17    7    6        3       0.628   1.883   0.000  -2.510  -0.000   0.000
   38   14   13    8        3       0.628   1.883   0.000  -2.510  -0.000   0.000
   30    9    8   10        3       0.628   1.883   0.000  -2.510  -0.000   0.000
   29    9    8    7        3       0.628   1.883   0.000  -2.510  -0.000   0.000
   27    6    7   17        3       0.628   1.883   0.000  -2.510  -0.000   0.000
   37   12   13    8        3       0.628   1.883   0.000  -2.510  -0.000   0.000
   33   10    8    7        3       0.628   1.883   0.000  -2.510  -0.000   0.000
   32   10    8    9        3       0.628   1.883   0.000  -2.510  -0.000   0.000
   20    1    2    3        3       0.628   1.883   0.000  -2.510  -0.000   0.000
   28    7    6    5        3       0.628   1.883   0.000  -2.510  -0.000   0.000
   28    7   17    3        3       0.628   1.883   0.000  -2.510  -0.000   0.000
   19    1    2    3        3       0.628   1.883   0.000  -2.510  -0.000   0.000
   18    1    2    3        3       0.628   1.883   0.000  -2.510  -0.000   0.000
   36   12   13   15        3       0.766   2.297   0.000  -3.063  -0.000   0.000
   37   12   13   15        3       0.766   2.297   0.000  -3.063  -0.000   0.000
   39   14   13   15        3       0.766   2.297   0.000  -3.063  -0.000   0.000
   40   14   13   15        3       0.766   2.297   0.000  -3.063  -0.000   0.000
   38   14   13   15        3       0.766   2.297   0.000  -3.063  -0.000   0.000
   34   11   10   33        3       0.628   1.883   0.000  -2.510  -0.000   0.000
   22    2    1   18        3       0.628   1.883   0.000  -2.510  -0.000   0.000
   35   11   10   33        3       0.628   1.883   0.000  -2.510  -0.000   0.000
   21    2    1   18        3       0.628   1.883   0.000  -2.510  -0.000   0.000
   22    2    1   20        3       0.628   1.883   0.000  -2.510  -0.000   0.000
   37   12   11   34        3       0.628   1.883   0.000  -2.510  -0.000   0.000
   28    7    6   27        3       0.628   1.883   0.000  -2.510  -0.000   0.000
   41   17    7   28        3       0.628   1.883   0.000  -2.510  -0.000   0.000
   28    7    6   26        3       0.628   1.883   0.000  -2.510  -0.000   0.000
   36   12   11   34        3       0.628   1.883   0.000  -2.510  -0.000   0.000
   21    2    1   19        3       0.628   1.883   0.000  -2.510  -0.000   0.000
   34   11   10   32        3       0.628   1.883   0.000  -2.510  -0.000   0.000
   36   12   11   35        3       0.628   1.883   0.000  -2.510  -0.000   0.000
   22    2    1   19        3       0.628   1.883   0.000  -2.510  -0.000   0.000
   21    2    1   20        3       0.628   1.883   0.000  -2.510  -0.000   0.000
   37   12   11   35        3       0.628   1.883   0.000  -2.510  -0.000   0.000
   42   17    7   28        3       0.628   1.883   0.000  -2.510  -0.000   0.000
   35   11   10   32        3       0.628   1.883   0.000  -2.510  -0.000   0.000
   41   17    3    2        3       0.628   1.883   0.000  -2.510  -0.000   0.000
   42   17    3    2        3       0.628   1.883   0.000  -2.510  -0.000   0.000
   21    2    3   17        3       0.628   1.883   0.000  -2.510  -0.000   0.000
   22    2    3   17        3       0.628   1.883   0.000  -2.510  -0.000   0.000
   21    2    3    4        3       0.628   1.883   0.000  -2.510  -0.000   0.000
   41   17    3    5        3       0.628   1.883   0.000  -2.510  -0.000   0.000
   27    6    5    3        3       0.628   1.883   0.000  -2.510  -0.000   0.000
   22    2    3    5        3       0.628   1.883   0.000  -2.510  -0.000   0.000
   41   17    3    4        3       0.628   1.883   0.000  -2.510  -0.000   0.000
   42   17    3    5        3       0.628   1.883   0.000  -2.510  -0.000   0.000
   26    6    5    4        3       0.628   1.883   0.000  -2.510  -0.000   0.000
   21    2    3    5        3       0.628   1.883   0.000  -2.510  -0.000   0.000
   42   17    3    4        3       0.628   1.883   0.000  -2.510  -0.000   0.000
   27    6    5    4        3       0.628   1.883   0.000  -2.510  -0.000   0.000
   22    2    3    4        3       0.628   1.883   0.000  -2.510  -0.000   0.000
   26    6    5    3        3       0.628   1.883   0.000  -2.510  -0.000   0.000
   26    6    5   25        3       0.628   1.883   0.000  -2.510  -0.000   0.000
   27    6    5   25        3       0.628   1.883   0.000  -2.510  -0.000   0.000
   25    5    6    7        3       0.628   1.883   0.000  -2.510  -0.000   0.000
   24    4    5    6        3       0.000   0.000   0.000  -0.000  -0.000   0.000
   23    4    3   17        3       0.000   0.000   0.000  -0.000  -0.000   0.000
   25    5    3   17        3       0.000   0.000   0.000  -0.000  -0.000   0.000
   23    4    3    2        3       0.000   0.000   0.000  -0.000  -0.000   0.000
   25    5    3    2        3       0.000   0.000   0.000  -0.000  -0.000   0.000
   23    4    5    6        3       0.000   0.000   0.000  -0.000  -0.000   0.000
   24    4    3    2        3       0.000   0.000   0.000  -0.000  -0.000   0.000
   24    4    3   17        3       0.000   0.000   0.000  -0.000  -0.000   0.000
   25    5    4    3        3       0.000   0.000   0.000  -0.000  -0.000   0.000
   24    4    5    3        3       0.000   0.000   0.000  -0.000  -0.000   0.000
   24    4    3    5        3       0.000   0.000   0.000  -0.000  -0.000   0.000
   25    5    3    4        3       0.000   0.000   0.000  -0.000  -0.000   0.000
   23    4    5    3        3       0.000   0.000   0.000  -0.000  -0.000   0.000
   23    4    3    5        3       0.000   0.000   0.000  -0.000  -0.000   0.000
   25    5    4   23        3       0.000   0.000   0.000  -0.000  -0.000   0.000
   25    5    4   24        3       0.000   0.000   0.000  -0.000  -0.000   0.000
   16   15   13   12        3       0.000   0.000   0.000  -0.000  -0.000   0.000
   16   15   13   14        3       0.000   0.000   0.000  -0.000  -0.000   0.000
   16   15   13    8        3       0.000   0.000   0.000  -0.000  -0.000   0.000

[ pairs ]
     1     4    1
     1     5    1
     2     6    1
     2     7    1
     4     7    1
     3     8    1
     5     8    1
     6     9    1
     6    10    1
     7    11    1
     1    17    1
     7    12    1
     6    13    1
     9    11    1
     9    12    1
     7    14    1
     3    18    1
     7    15    1
     3    19    1
     9    14    1
     3    20    1
    10    14    1
     9    15    1
     8    16    1
    11    14    1
    10    15    1
     4    21    1
     2    23    1
    11    15    1
     9    17    1
     5    21    1
     4    22    1
     2    24    1
    10    17    1
     5    22    1
     2    25    1
    12    16    1
     6    23    1
     3    26    1
    14    16    1
    13    17    1
     6    24    1
     4    26    1
     3    27    1
     4    27    1
     3    28    1
     7    25    1
     5    28    1
     8    26    1
     8    27    1
     7    29    1
     9    28    1
     7    30    1
    17    21    1
    10    28    1
     7    31    1
    18    21    1
    17    22    1
    10    29    1
     7    32    1
    19    21    1
    18    22    1
    17    23    1
    10    30    1
     7    33    1
    20    21    1
    19    22    1
    17    24    1
    13    28    1
    10    31    1
     9    32    1
    20    22    1
    17    25    1
    13    29    1
     9    33    1
     8    34    1
    17    26    1
    13    30    1
     8    35    1
     2    41    1
    17    27    1
    13    31    1
    12    32    1
     8    36    1
     2    42    1
    13    32    1
    12    33    1
     8    37    1
     4    41    1
    13    33    1
    10    36    1
     8    38    1
     5    41    1
     4    42    1
    13    34    1
    10    37    1
     8    39    1
     6    41    1
     5    42    1
    23    25    1
    13    35    1
     8    40    1
     6    42    1
    24    25    1
     8    41    1
    14    36    1
    12    38    1
     8    42    1
    25    26    1
    15    36    1
    14    37    1
    12    39    1
    25    27    1
    15    37    1
    12    40    1
    15    38    1
    26    28    1
    15    39    1
    27    28    1
    15    40    1
    32    34    1
    33    34    1
    32    35    1
    33    35    1
    28    41    1
    34    36    1
    28    42    1
    35    36    1
    34    37    1
    35    37    1

