LIGPARGEN GENERATED GRO FILE
   49
    1UNK    C00    1   0.100   0.100   0.000
    1UNK    C01    2  -0.052   0.100   0.000
    1UNK    C02    3  -0.108   0.100   0.143
    1UNK    C03    4  -0.264   0.100   0.152
    1UNK    C04    5  -0.316  -0.023   0.074
    1UNK    C05    6  -0.319   0.113   0.303
    1UNK    C06    7  -0.263   0.249   0.363
    1UNK    C07    8  -0.289   0.314   0.504
    1UNK    C08    9  -0.207   0.448   0.504
    1UNK    C09   10  -0.434   0.354   0.537
    1UNK    C0A   11  -0.450   0.332   0.687
    1UNK    C0B   12  -0.354   0.221   0.723
    1UNK    C0C   13  -0.239   0.231   0.624
    1UNK    C0D   14  -0.473   0.109   0.306
    1UNK    C0E   15  -0.514   0.034   0.431
    1UNK    C0F   16  -0.398  -0.056   0.467
    1UNK    C0G   17  -0.278  -0.013   0.383
    1UNK    H0H   18   0.138   0.100  -0.103
    1UNK    H0I   19   0.139   0.011   0.050
    1UNK    H0J   20   0.139   0.189   0.051
    1UNK    H0K   21  -0.085   0.012  -0.055
    1UNK    H0M   22  -0.089   0.189  -0.054
    1UNK    H0N   23  -0.067   0.189   0.192
    1UNK    H0O   24  -0.069   0.013   0.197
    1UNK    H0P   25  -0.300   0.189   0.098
    1UNK    H0Q   26  -0.264  -0.115   0.103
    1UNK    H0R   27  -0.300  -0.010  -0.034
    1UNK    H0S   28  -0.423  -0.041   0.084
    1UNK    H0T   29  -0.289   0.326   0.289
    1UNK    H0U   30  -0.154   0.240   0.360
    1UNK    H0V   31  -0.242   0.515   0.425
    1UNK    H0W   32  -0.100   0.429   0.488
    1UNK    H0X   33  -0.217   0.500   0.600
    1UNK    H0Y   34  -0.508   0.296   0.484
    1UNK    H0Z   35  -0.456   0.458   0.512
    1UNK    H10   36  -0.553   0.306   0.713
    1UNK    H11   37  -0.424   0.424   0.741
    1UNK    H12   38  -0.404   0.124   0.714
    1UNK    H13   39  -0.319   0.230   0.826
    1UNK    H14   40  -0.204   0.132   0.597
    1UNK    H15   41  -0.154   0.280   0.673
    1UNK    H16   42  -0.516   0.055   0.221
    1UNK    H17   43  -0.518   0.209   0.298
    1UNK    H18   44  -0.606  -0.024   0.414
    1UNK    H19   45  -0.536   0.100   0.515
    1UNK    H1A   46  -0.422  -0.161   0.445
    1UNK    H1B   47  -0.375  -0.052   0.574
    1UNK    H1C   48  -0.253  -0.096   0.318
    1UNK    H1D   49  -0.188   0.003   0.443
   1.00000   1.00000   1.00000

