
;
; GENERATED BY LigParGen Server
; Jorgensen Lab @ Yale University 
;
[ atomtypes ]
  opls_818  H818     1.0080     0.000    A    2.50000E-01   1.25520E-01
  opls_814  C814    12.0110     0.000    A    3.50000E-01   2.76144E-01
  opls_824  H824     1.0080     0.000    A    2.50000E-01   1.25520E-01
  opls_815  C815    12.0110     0.000    A    3.50000E-01   2.76144E-01
  opls_804  C804    12.0110     0.000    A    3.50000E-01   2.76144E-01
  opls_848  H848     1.0080     0.000    A    2.50000E-01   1.25520E-01
  opls_843  H843     1.0080     0.000    A    2.50000E-01   1.25520E-01
  opls_836  H836     1.0080     0.000    A    2.50000E-01   1.25520E-01
  opls_834  H834     1.0080     0.000    A    2.50000E-01   1.25520E-01
  opls_810  C810    12.0110     0.000    A    3.50000E-01   2.76144E-01
  opls_828  H828     1.0080     0.000    A    2.50000E-01   1.25520E-01
  opls_812  C812    12.0110     0.000    A    3.50000E-01   2.76144E-01
  opls_844  H844     1.0080     0.000    A    2.50000E-01   1.25520E-01
  opls_802  C802    12.0110     0.000    A    3.50000E-01   2.76144E-01
  opls_827  H827     1.0080     0.000    A    2.50000E-01   1.25520E-01
  opls_809  C809    12.0110     0.000    A    3.50000E-01   2.76144E-01
  opls_806  C806    12.0110     0.000    A    3.50000E-01   2.76144E-01
  opls_822  H822     1.0080     0.000    A    2.50000E-01   1.25520E-01
  opls_803  C803    12.0110     0.000    A    3.50000E-01   2.76144E-01
  opls_838  H838     1.0080     0.000    A    2.50000E-01   1.25520E-01
  opls_825  H825     1.0080     0.000    A    2.50000E-01   1.25520E-01
  opls_830  H830     1.0080     0.000    A    2.50000E-01   1.25520E-01
  opls_821  H821     1.0080     0.000    A    2.50000E-01   1.25520E-01
  opls_842  H842     1.0080     0.000    A    2.50000E-01   1.25520E-01
  opls_820  H820     1.0080     0.000    A    2.50000E-01   1.25520E-01
  opls_837  H837     1.0080     0.000    A    2.50000E-01   1.25520E-01
  opls_829  H829     1.0080     0.000    A    2.50000E-01   1.25520E-01
  opls_831  H831     1.0080     0.000    A    2.50000E-01   1.25520E-01
  opls_832  H832     1.0080     0.000    A    2.50000E-01   1.25520E-01
  opls_800  C800    12.0110     0.000    A    3.50000E-01   2.76144E-01
  opls_805  C805    12.0110     0.000    A    3.50000E-01   2.76144E-01
  opls_846  H846     1.0080     0.000    A    2.50000E-01   1.25520E-01
  opls_811  C811    12.0110     0.000    A    3.50000E-01   2.76144E-01
  opls_823  H823     1.0080     0.000    A    2.50000E-01   1.25520E-01
  opls_813  C813    12.0110     0.000    A    3.50000E-01   2.76144E-01
  opls_826  H826     1.0080     0.000    A    2.50000E-01   1.25520E-01
  opls_835  H835     1.0080     0.000    A    2.50000E-01   1.25520E-01
  opls_841  H841     1.0080     0.000    A    2.50000E-01   1.25520E-01
  opls_819  H819     1.0080     0.000    A    2.50000E-01   1.25520E-01
  opls_816  C816    12.0110     0.000    A    3.50000E-01   2.76144E-01
  opls_833  H833     1.0080     0.000    A    2.50000E-01   1.25520E-01
  opls_839  H839     1.0080     0.000    A    2.50000E-01   1.25520E-01
  opls_801  C801    12.0110     0.000    A    3.50000E-01   2.76144E-01
  opls_808  C808    12.0110     0.000    A    3.50000E-01   2.76144E-01
  opls_817  H817     1.0080     0.000    A    2.50000E-01   1.25520E-01
  opls_847  H847     1.0080     0.000    A    2.50000E-01   1.25520E-01
  opls_840  H840     1.0080     0.000    A    2.50000E-01   1.25520E-01
  opls_845  H845     1.0080     0.000    A    2.50000E-01   1.25520E-01
  opls_807  C807    12.0110     0.000    A    3.50000E-01   2.76144E-01
[ moleculetype ]
; Name               nrexcl
UNK                   3
[ atoms ]
;   nr       type  resnr residue  atom   cgnr     charge       mass  
     1   opls_800      1    UNK   C00      1    -0.2397    12.0110 
     2   opls_801      1    UNK   C01      1    -0.1806    12.0110 
     3   opls_802      1    UNK   C02      1    -0.1769    12.0110 
     4   opls_803      1    UNK   C03      1    -0.1008    12.0110 
     5   opls_804      1    UNK   C04      1    -0.2345    12.0110 
     6   opls_805      1    UNK   C05      1    -0.0207    12.0110 
     7   opls_806      1    UNK   C06      1     -0.149    12.0110 
     8   opls_807      1    UNK   C07      1    -0.0318    12.0110 
     9   opls_808      1    UNK   C08      1    -0.2374    12.0110 
    10   opls_809      1    UNK   C09      1    -0.1745    12.0110 
    11   opls_810      1    UNK   C0A      1    -0.1808    12.0110 
    12   opls_811      1    UNK   C0B      1    -0.1816    12.0110 
    13   opls_812      1    UNK   C0C      1    -0.1726    12.0110 
    14   opls_813      1    UNK   C0D      1     -0.171    12.0110 
    15   opls_814      1    UNK   C0E      1      -0.18    12.0110 
    16   opls_815      1    UNK   C0F      1    -0.1779    12.0110 
    17   opls_816      1    UNK   C0G      1    -0.1721    12.0110 
    18   opls_817      1    UNK   H0H      1     0.0807     1.0080 
    19   opls_818      1    UNK   H0I      1     0.0807     1.0080 
    20   opls_819      1    UNK   H0J      1     0.0807     1.0080 
    21   opls_820      1    UNK   H0K      1     0.0885     1.0080 
    22   opls_821      1    UNK   H0M      1     0.0885     1.0080 
    23   opls_822      1    UNK   H0N      1     0.0895     1.0080 
    24   opls_823      1    UNK   H0O      1     0.0895     1.0080 
    25   opls_824      1    UNK   H0P      1     0.0919     1.0080 
    26   opls_825      1    UNK   H0Q      1     0.0811     1.0080 
    27   opls_826      1    UNK   H0R      1     0.0811     1.0080 
    28   opls_827      1    UNK   H0S      1     0.0811     1.0080 
    29   opls_828      1    UNK   H0T      1      0.083     1.0080 
    30   opls_829      1    UNK   H0U      1      0.083     1.0080 
    31   opls_830      1    UNK   H0V      1     0.0803     1.0080 
    32   opls_831      1    UNK   H0W      1     0.0803     1.0080 
    33   opls_832      1    UNK   H0X      2     0.0803     1.0080 
    34   opls_833      1    UNK   H0Y      2     0.0937     1.0080 
    35   opls_834      1    UNK   H0Z      2     0.0937     1.0080 
    36   opls_835      1    UNK   H10      2      0.089     1.0080 
    37   opls_836      1    UNK   H11      2      0.089     1.0080 
    38   opls_837      1    UNK   H12      2     0.0889     1.0080 
    39   opls_838      1    UNK   H13      2     0.0889     1.0080 
    40   opls_839      1    UNK   H14      2     0.0919     1.0080 
    41   opls_840      1    UNK   H15      2     0.0919     1.0080 
    42   opls_841      1    UNK   H16      2     0.0911     1.0080 
    43   opls_842      1    UNK   H17      2     0.0911     1.0080 
    44   opls_843      1    UNK   H18      2     0.0896     1.0080 
    45   opls_844      1    UNK   H19      2     0.0896     1.0080 
    46   opls_845      1    UNK   H1A      2      0.086     1.0080 
    47   opls_846      1    UNK   H1B      2      0.086     1.0080 
    48   opls_847      1    UNK   H1C      2     0.0906     1.0080 
    49   opls_848      1    UNK   H1D      2     0.0906     1.0080 
[ bonds ]
    2     1     1      0.1529 224262.400
    3     2     1      0.1529 224262.400
    4     3     1      0.1529 224262.400
    5     4     1      0.1529 224262.400
    6     4     1      0.1529 224262.400
    7     6     1      0.1529 224262.400
    8     7     1      0.1529 224262.400
    9     8     1      0.1529 224262.400
   10     8     1      0.1529 224262.400
   11    10     1      0.1529 224262.400
   12    11     1      0.1529 224262.400
   13     8     1      0.1529 224262.400
   14     6     1      0.1529 224262.400
   15    14     1      0.1529 224262.400
   16    15     1      0.1529 224262.400
   17     6     1      0.1529 224262.400
   18     1     1      0.1090 284512.000
   19     1     1      0.1090 284512.000
   20     1     1      0.1090 284512.000
   21     2     1      0.1090 284512.000
   22     2     1      0.1090 284512.000
   23     3     1      0.1090 284512.000
   24     3     1      0.1090 284512.000
   25     4     1      0.1090 284512.000
   26     5     1      0.1090 284512.000
   27     5     1      0.1090 284512.000
   28     5     1      0.1090 284512.000
   29     7     1      0.1090 284512.000
   30     7     1      0.1090 284512.000
   31     9     1      0.1090 284512.000
   32     9     1      0.1090 284512.000
   33     9     1      0.1090 284512.000
   34    10     1      0.1090 284512.000
   35    10     1      0.1090 284512.000
   36    11     1      0.1090 284512.000
   37    11     1      0.1090 284512.000
   38    12     1      0.1090 284512.000
   39    12     1      0.1090 284512.000
   40    13     1      0.1090 284512.000
   41    13     1      0.1090 284512.000
   42    14     1      0.1090 284512.000
   43    14     1      0.1090 284512.000
   44    15     1      0.1090 284512.000
   45    15     1      0.1090 284512.000
   46    16     1      0.1090 284512.000
   47    16     1      0.1090 284512.000
   48    17     1      0.1090 284512.000
   49    17     1      0.1090 284512.000
   13    12     1      0.1529 224262.400
   17    16     1      0.1529 224262.400

[ angles ]
;  ai    aj    ak funct            c0            c1            c2            c3 
    1     2     3     1    112.700    488.273
    2     3     4     1    112.700    488.273
    3     4     5     1    112.700    488.273
    3     4     6     1    112.700    488.273
    4     6     7     1    112.700    488.273
    6     7     8     1    112.700    488.273
    7     8     9     1    112.700    488.273
    7     8    10     1    112.700    488.273
    8    10    11     1    112.700    488.273
   10    11    12     1    112.700    488.273
    7     8    13     1    112.700    488.273
    4     6    14     1    112.700    488.273
    6    14    15     1    112.700    488.273
   14    15    16     1    112.700    488.273
    4     6    17     1    112.700    488.273
    2     1    18     1    110.700    313.800
    2     1    19     1    110.700    313.800
    2     1    20     1    110.700    313.800
    1     2    21     1    110.700    313.800
    1     2    22     1    110.700    313.800
    2     3    23     1    110.700    313.800
    2     3    24     1    110.700    313.800
    3     4    25     1    110.700    313.800
    4     5    26     1    110.700    313.800
    4     5    27     1    110.700    313.800
    4     5    28     1    110.700    313.800
    6     7    29     1    110.700    313.800
    6     7    30     1    110.700    313.800
    8     9    31     1    110.700    313.800
    8     9    32     1    110.700    313.800
    8     9    33     1    110.700    313.800
    8    10    34     1    110.700    313.800
    8    10    35     1    110.700    313.800
   10    11    36     1    110.700    313.800
   10    11    37     1    110.700    313.800
   11    12    38     1    110.700    313.800
   11    12    39     1    110.700    313.800
    8    13    40     1    110.700    313.800
    8    13    41     1    110.700    313.800
    6    14    42     1    110.700    313.800
    6    14    43     1    110.700    313.800
   14    15    44     1    110.700    313.800
   14    15    45     1    110.700    313.800
   15    16    46     1    110.700    313.800
   15    16    47     1    110.700    313.800
    6    17    48     1    110.700    313.800
    6    17    49     1    110.700    313.800
    7     6    14     1    112.700    488.273
    8    13    12     1    112.700    488.273
   17    16    47     1    110.700    313.800
   12    11    37     1    110.700    313.800
   13    12    38     1    110.700    313.800
   31     9    33     1    107.800    276.144
    4     3    23     1    110.700    313.800
   14     6    17     1    112.700    488.273
   46    16    47     1    107.800    276.144
    4     3    24     1    110.700    313.800
   12    13    41     1    110.700    313.800
   44    15    45     1    107.800    276.144
   34    10    35     1    107.800    276.144
   29     7    30     1    107.800    276.144
    8     7    30     1    110.700    313.800
   16    15    45     1    110.700    313.800
   48    17    49     1    107.800    276.144
    5     4     6     1    112.700    488.273
   38    12    39     1    107.800    276.144
   10     8    13     1    112.700    488.273
   16    15    44     1    110.700    313.800
   27     5    28     1    107.800    276.144
   18     1    19     1    107.800    276.144
   11    10    35     1    110.700    313.800
   36    11    37     1    107.800    276.144
    5     4    25     1    110.700    313.800
   40    13    41     1    107.800    276.144
   21     2    22     1    107.800    276.144
   12    13    40     1    110.700    313.800
   11    10    34     1    110.700    313.800
   15    16    17     1    112.700    488.273
   32     9    33     1    107.800    276.144
   16    17    48     1    110.700    313.800
    6     4    25     1    110.700    313.800
    7     6    17     1    112.700    488.273
   13    12    39     1    110.700    313.800
    9     8    10     1    112.700    488.273
   12    11    36     1    110.700    313.800
   42    14    43     1    107.800    276.144
   23     3    24     1    107.800    276.144
    8     7    29     1    110.700    313.800
   26     5    28     1    107.800    276.144
   16    17    49     1    110.700    313.800
   18     1    20     1    107.800    276.144
   31     9    32     1    107.800    276.144
   17    16    46     1    110.700    313.800
    3     2    21     1    110.700    313.800
   15    14    43     1    110.700    313.800
   15    14    42     1    110.700    313.800
    6    17    16     1    112.700    488.273
    9     8    13     1    112.700    488.273
    3     2    22     1    110.700    313.800
   26     5    27     1    107.800    276.144
   19     1    20     1    107.800    276.144
   11    12    13     1    112.700    488.273

[ dihedrals ]
; IMPROPER DIHEDRAL ANGLES 
;  ai    aj    ak    al funct            c0            c1            c2            c3            c4            c5

[ dihedrals ]
; PROPER DIHEDRAL ANGLES
;  ai    aj    ak    al funct            c0            c1            c2            c3            c4            c5
    4    3    2    1        3       2.301  -1.464   0.837  -1.674  -0.000   0.000
   16   17    6    7        3       2.301  -1.464   0.837  -1.674  -0.000   0.000
   17    6    4    5        3       2.301  -1.464   0.837  -1.674  -0.000   0.000
   14    6    7    8        3       2.301  -1.464   0.837  -1.674  -0.000   0.000
   12   13    8   10        3       2.301  -1.464   0.837  -1.674  -0.000   0.000
   17    6    7    8        3       2.301  -1.464   0.837  -1.674  -0.000   0.000
   10    8    7    6        3       2.301  -1.464   0.837  -1.674  -0.000   0.000
   15   14    6    7        3       2.301  -1.464   0.837  -1.674  -0.000   0.000
    7    6    4    5        3       2.301  -1.464   0.837  -1.674  -0.000   0.000
    6    4    3    2        3       2.301  -1.464   0.837  -1.674  -0.000   0.000
   17   16   15   14        3       2.301  -1.464   0.837  -1.674  -0.000   0.000
   17    6   14   15        3       2.301  -1.464   0.837  -1.674  -0.000   0.000
   12   13    8    7        3       2.301  -1.464   0.837  -1.674  -0.000   0.000
   13    8   10   11        3       2.301  -1.464   0.837  -1.674  -0.000   0.000
   16   17    6    4        3       2.301  -1.464   0.837  -1.674  -0.000   0.000
   17    6    4    3        3       2.301  -1.464   0.837  -1.674  -0.000   0.000
   13   12   11   10        3       2.301  -1.464   0.837  -1.674  -0.000   0.000
   15   16   17    6        3       2.301  -1.464   0.837  -1.674  -0.000   0.000
   14    6    4    5        3       2.301  -1.464   0.837  -1.674  -0.000   0.000
   11   10    8    9        3       2.301  -1.464   0.837  -1.674  -0.000   0.000
   12   13    8    9        3       2.301  -1.464   0.837  -1.674  -0.000   0.000
   16   17    6   14        3       2.301  -1.464   0.837  -1.674  -0.000   0.000
   14    6    4    3        3       2.301  -1.464   0.837  -1.674  -0.000   0.000
   13    8    7    6        3       2.301  -1.464   0.837  -1.674  -0.000   0.000
   11   12   13    8        3       2.301  -1.464   0.837  -1.674  -0.000   0.000
    9    8    7    6        3       2.301  -1.464   0.837  -1.674  -0.000   0.000
   11   10    8    7        3       2.301  -1.464   0.837  -1.674  -0.000   0.000
   15   14    6    4        3       2.301  -1.464   0.837  -1.674  -0.000   0.000
    8    7    6    4        3       2.301  -1.464   0.837  -1.674  -0.000   0.000
   16   15   14    6        3       2.301  -1.464   0.837  -1.674  -0.000   0.000
   12   11   10    8        3       2.301  -1.464   0.837  -1.674  -0.000   0.000
    7    6    4    3        3       2.301  -1.464   0.837  -1.674  -0.000   0.000
    5    4    3    2        3       2.301  -1.464   0.837  -1.674  -0.000   0.000
   23    3    2    1        3       0.628   1.883   0.000  -2.510  -0.000   0.000
   40   13   12   11        3       0.628   1.883   0.000  -2.510  -0.000   0.000
   26    5    4    6        3       0.628   1.883   0.000  -2.510  -0.000   0.000
   29    7    6   14        3       0.628   1.883   0.000  -2.510  -0.000   0.000
   30    7    6    4        3       0.628   1.883   0.000  -2.510  -0.000   0.000
   32    9    8   10        3       0.628   1.883   0.000  -2.510  -0.000   0.000
   46   16   15   14        3       0.628   1.883   0.000  -2.510  -0.000   0.000
   27    5    4    6        3       0.628   1.883   0.000  -2.510  -0.000   0.000
   43   14    6   17        3       0.628   1.883   0.000  -2.510  -0.000   0.000
   25    4    6   14        3       0.628   1.883   0.000  -2.510  -0.000   0.000
   29    7    8   10        3       0.628   1.883   0.000  -2.510  -0.000   0.000
   40   13    8    9        3       0.628   1.883   0.000  -2.510  -0.000   0.000
   48   17    6    7        3       0.628   1.883   0.000  -2.510  -0.000   0.000
   25    4    6   17        3       0.628   1.883   0.000  -2.510  -0.000   0.000
   41   13   12   11        3       0.628   1.883   0.000  -2.510  -0.000   0.000
   45   15   14    6        3       0.628   1.883   0.000  -2.510  -0.000   0.000
   33    9    8   13        3       0.628   1.883   0.000  -2.510  -0.000   0.000
   18    1    2    3        3       0.628   1.883   0.000  -2.510  -0.000   0.000
   22    2    3    4        3       0.628   1.883   0.000  -2.510  -0.000   0.000
   49   17   16   15        3       0.628   1.883   0.000  -2.510  -0.000   0.000
   27    5    4    3        3       0.628   1.883   0.000  -2.510  -0.000   0.000
   30    7    8   13        3       0.628   1.883   0.000  -2.510  -0.000   0.000
   24    3    4    5        3       0.628   1.883   0.000  -2.510  -0.000   0.000
   29    7    8    9        3       0.628   1.883   0.000  -2.510  -0.000   0.000
   29    7    6   17        3       0.628   1.883   0.000  -2.510  -0.000   0.000
   32    9    8    7        3       0.628   1.883   0.000  -2.510  -0.000   0.000
   35   10    8    7        3       0.628   1.883   0.000  -2.510  -0.000   0.000
   41   13    8    7        3       0.628   1.883   0.000  -2.510  -0.000   0.000
   34   10    8   13        3       0.628   1.883   0.000  -2.510  -0.000   0.000
   31    9    8   13        3       0.628   1.883   0.000  -2.510  -0.000   0.000
   42   14    6    4        3       0.628   1.883   0.000  -2.510  -0.000   0.000
   45   15   16   17        3       0.628   1.883   0.000  -2.510  -0.000   0.000
   36   11   10    8        3       0.628   1.883   0.000  -2.510  -0.000   0.000
   35   10    8    9        3       0.628   1.883   0.000  -2.510  -0.000   0.000
   35   10    8   13        3       0.628   1.883   0.000  -2.510  -0.000   0.000
   21    2    3    4        3       0.628   1.883   0.000  -2.510  -0.000   0.000
   31    9    8   10        3       0.628   1.883   0.000  -2.510  -0.000   0.000
   34   10    8    9        3       0.628   1.883   0.000  -2.510  -0.000   0.000
   25    4    6    7        3       0.628   1.883   0.000  -2.510  -0.000   0.000
   49   17    6    4        3       0.628   1.883   0.000  -2.510  -0.000   0.000
   29    7    8   13        3       0.628   1.883   0.000  -2.510  -0.000   0.000
   24    3    2    1        3       0.628   1.883   0.000  -2.510  -0.000   0.000
   49   17    6   14        3       0.628   1.883   0.000  -2.510  -0.000   0.000
   28    5    4    6        3       0.628   1.883   0.000  -2.510  -0.000   0.000
   49   17    6    7        3       0.628   1.883   0.000  -2.510  -0.000   0.000
   20    1    2    3        3       0.628   1.883   0.000  -2.510  -0.000   0.000
   38   12   13    8        3       0.628   1.883   0.000  -2.510  -0.000   0.000
   48   17    6    4        3       0.628   1.883   0.000  -2.510  -0.000   0.000
   30    7    6   14        3       0.628   1.883   0.000  -2.510  -0.000   0.000
   23    3    4    6        3       0.628   1.883   0.000  -2.510  -0.000   0.000
   43   14   15   16        3       0.628   1.883   0.000  -2.510  -0.000   0.000
   30    7    8    9        3       0.628   1.883   0.000  -2.510  -0.000   0.000
   47   16   17    6        3       0.628   1.883   0.000  -2.510  -0.000   0.000
   47   16   15   14        3       0.628   1.883   0.000  -2.510  -0.000   0.000
   39   12   11   10        3       0.628   1.883   0.000  -2.510  -0.000   0.000
   43   14    6    4        3       0.628   1.883   0.000  -2.510  -0.000   0.000
   36   11   12   13        3       0.628   1.883   0.000  -2.510  -0.000   0.000
   33    9    8   10        3       0.628   1.883   0.000  -2.510  -0.000   0.000
   29    7    6    4        3       0.628   1.883   0.000  -2.510  -0.000   0.000
   48   17   16   15        3       0.628   1.883   0.000  -2.510  -0.000   0.000
   42   14   15   16        3       0.628   1.883   0.000  -2.510  -0.000   0.000
   30    7    8   10        3       0.628   1.883   0.000  -2.510  -0.000   0.000
   35   10   11   12        3       0.628   1.883   0.000  -2.510  -0.000   0.000
   31    9    8    7        3       0.628   1.883   0.000  -2.510  -0.000   0.000
   48   17    6   14        3       0.628   1.883   0.000  -2.510  -0.000   0.000
   46   16   17    6        3       0.628   1.883   0.000  -2.510  -0.000   0.000
   42   14    6    7        3       0.628   1.883   0.000  -2.510  -0.000   0.000
   24    3    4    6        3       0.628   1.883   0.000  -2.510  -0.000   0.000
   42   14    6   17        3       0.628   1.883   0.000  -2.510  -0.000   0.000
   43   14    6    7        3       0.628   1.883   0.000  -2.510  -0.000   0.000
   41   13    8   10        3       0.628   1.883   0.000  -2.510  -0.000   0.000
   32    9    8   13        3       0.628   1.883   0.000  -2.510  -0.000   0.000
   41   13    8    9        3       0.628   1.883   0.000  -2.510  -0.000   0.000
   39   12   13    8        3       0.628   1.883   0.000  -2.510  -0.000   0.000
   19    1    2    3        3       0.628   1.883   0.000  -2.510  -0.000   0.000
   40   13    8   10        3       0.628   1.883   0.000  -2.510  -0.000   0.000
   37   11   12   13        3       0.628   1.883   0.000  -2.510  -0.000   0.000
   38   12   11   10        3       0.628   1.883   0.000  -2.510  -0.000   0.000
   30    7    6   17        3       0.628   1.883   0.000  -2.510  -0.000   0.000
   28    5    4    3        3       0.628   1.883   0.000  -2.510  -0.000   0.000
   33    9    8    7        3       0.628   1.883   0.000  -2.510  -0.000   0.000
   44   15   14    6        3       0.628   1.883   0.000  -2.510  -0.000   0.000
   26    5    4    3        3       0.628   1.883   0.000  -2.510  -0.000   0.000
   34   10    8    7        3       0.628   1.883   0.000  -2.510  -0.000   0.000
   34   10   11   12        3       0.628   1.883   0.000  -2.510  -0.000   0.000
   40   13    8    7        3       0.628   1.883   0.000  -2.510  -0.000   0.000
   44   15   16   17        3       0.628   1.883   0.000  -2.510  -0.000   0.000
   25    4    3    2        3       0.628   1.883   0.000  -2.510  -0.000   0.000
   37   11   10    8        3       0.628   1.883   0.000  -2.510  -0.000   0.000
   23    3    4    5        3       0.628   1.883   0.000  -2.510  -0.000   0.000
   26    5    4   25        3       0.628   1.883   0.000  -2.510  -0.000   0.000
   40   13   12   39        3       0.628   1.883   0.000  -2.510  -0.000   0.000
   44   15   14   42        3       0.628   1.883   0.000  -2.510  -0.000   0.000
   48   17   16   46        3       0.628   1.883   0.000  -2.510  -0.000   0.000
   28    5    4   25        3       0.628   1.883   0.000  -2.510  -0.000   0.000
   23    3    2   22        3       0.628   1.883   0.000  -2.510  -0.000   0.000
   23    3    2   21        3       0.628   1.883   0.000  -2.510  -0.000   0.000
   22    2    1   18        3       0.628   1.883   0.000  -2.510  -0.000   0.000
   39   12   11   37        3       0.628   1.883   0.000  -2.510  -0.000   0.000
   46   16   15   44        3       0.628   1.883   0.000  -2.510  -0.000   0.000
   37   11   10   34        3       0.628   1.883   0.000  -2.510  -0.000   0.000
   24    3    2   22        3       0.628   1.883   0.000  -2.510  -0.000   0.000
   45   15   14   42        3       0.628   1.883   0.000  -2.510  -0.000   0.000
   44   15   14   43        3       0.628   1.883   0.000  -2.510  -0.000   0.000
   48   17   16   47        3       0.628   1.883   0.000  -2.510  -0.000   0.000
   49   17   16   47        3       0.628   1.883   0.000  -2.510  -0.000   0.000
   41   13   12   39        3       0.628   1.883   0.000  -2.510  -0.000   0.000
   25    4    3   24        3       0.628   1.883   0.000  -2.510  -0.000   0.000
   41   13   12   38        3       0.628   1.883   0.000  -2.510  -0.000   0.000
   37   11   10   35        3       0.628   1.883   0.000  -2.510  -0.000   0.000
   49   17   16   46        3       0.628   1.883   0.000  -2.510  -0.000   0.000
   24    3    2   21        3       0.628   1.883   0.000  -2.510  -0.000   0.000
   38   12   11   36        3       0.628   1.883   0.000  -2.510  -0.000   0.000
   25    4    3   23        3       0.628   1.883   0.000  -2.510  -0.000   0.000
   47   16   15   45        3       0.628   1.883   0.000  -2.510  -0.000   0.000
   38   12   11   37        3       0.628   1.883   0.000  -2.510  -0.000   0.000
   39   12   11   36        3       0.628   1.883   0.000  -2.510  -0.000   0.000
   22    2    1   19        3       0.628   1.883   0.000  -2.510  -0.000   0.000
   21    2    1   20        3       0.628   1.883   0.000  -2.510  -0.000   0.000
   47   16   15   44        3       0.628   1.883   0.000  -2.510  -0.000   0.000
   46   16   15   45        3       0.628   1.883   0.000  -2.510  -0.000   0.000
   40   13   12   38        3       0.628   1.883   0.000  -2.510  -0.000   0.000
   27    5    4   25        3       0.628   1.883   0.000  -2.510  -0.000   0.000
   36   11   10   34        3       0.628   1.883   0.000  -2.510  -0.000   0.000
   21    2    1   18        3       0.628   1.883   0.000  -2.510  -0.000   0.000
   22    2    1   20        3       0.628   1.883   0.000  -2.510  -0.000   0.000
   21    2    1   19        3       0.628   1.883   0.000  -2.510  -0.000   0.000
   36   11   10   35        3       0.628   1.883   0.000  -2.510  -0.000   0.000
   45   15   14   43        3       0.628   1.883   0.000  -2.510  -0.000   0.000

[ pairs ]
     1     4    1
     2     5    1
     2     6    1
     3     7    1
     5     7    1
     4     8    1
     6     9    1
     6    10    1
     3    14    1
     7    11    1
     7    12    1
     6    13    1
     5    14    1
     4    15    1
     9    11    1
     4    16    1
     3    17    1
     9    12    1
     3    18    1
     8    14    1
     7    15    1
     5    17    1
     3    19    1
     7    16    1
     3    20    1
     1    23    1
     8    17    1
     4    21    1
     1    24    1
     4    22    1
     2    25    1
     5    23    1
     6    23    1
     5    24    1
     3    26    1
     6    24    1
     3    27    1
     3    28    1
     7    25    1
     6    26    1
     6    27    1
     4    29    1
     6    28    1
     4    30    1
     9    29    1
     7    31    1
    18    21    1
    14    25    1
    10    29    1
     9    30    1
     7    32    1
    19    21    1
    18    22    1
    10    30    1
     7    33    1
    20    21    1
    19    22    1
    10    31    1
     7    34    1
    20    22    1
    17    25    1
    13    29    1
    10    32    1
     7    35    1
    14    29    1
    13    30    1
    10    33    1
     9    34    1
    21    23    1
    14    30    1
    13    31    1
     9    35    1
     8    36    1
    22    23    1
    21    24    1
    13    32    1
     8    37    1
    22    24    1
    17    29    1
    13    33    1
    12    34    1
     8    38    1
     4    42    1
    17    30    1
    13    34    1
    12    35    1
     8    39    1
     7    40    1
     4    43    1
    23    25    1
    13    35    1
    10    38    1
     7    41    1
    24    25    1
    13    36    1
    10    39    1
     9    40    1
     7    42    1
    13    37    1
    10    40    1
     9    41    1
     7    43    1
     6    44    1
    25    26    1
    11    40    1
    10    41    1
     6    45    1
    25    27    1
    11    41    1
     6    46    1
     4    48    1
    25    28    1
     6    47    1
     4    49    1
     7    48    1
     7    49    1
    16    42    1
    17    42    1
    16    43    1
    17    43    1
    14    46    1
    17    44    1
    14    47    1
    17    45    1
    14    48    1
    15    48    1
    14    49    1
    15    49    1
    34    36    1
    35    36    1
    34    37    1
    35    37    1
    36    38    1
    37    38    1
    36    39    1
    37    39    1
    38    40    1
    39    40    1
    38    41    1
    39    41    1
    42    44    1
    43    44    1
    42    45    1
    43    45    1
    44    46    1
    45    46    1
    44    47    1
    45    47    1
    46    48    1
    47    48    1
    46    49    1
    47    49    1

