LIGPARGEN GENERATED GRO FILE
   39
    1UNK    C00    1   0.100   0.100   0.000
    1UNK    C01    2  -0.053   0.100   0.000
    1UNK    C02    3  -0.115   0.100   0.141
    1UNK    C03    4  -0.076   0.229   0.216
    1UNK    C04    5  -0.269   0.086   0.139
    1UNK    C05    6  -0.338  -0.035   0.068
    1UNK    C06    7  -0.301  -0.177   0.128
    1UNK    C07    8  -0.159  -0.228   0.105
    1UNK    C08    9  -0.337  -0.184   0.275
    1UNK    N09   10  -0.366  -0.190   0.398
    1UNK    C0A   11  -0.498  -0.011   0.059
    1UNK    C0B   12  -0.528   0.113  -0.030
    1UNK    C0C   13  -0.569  -0.130  -0.008
    1UNK    C0D   14  -0.567   0.015   0.195
    1UNK    H0E   15   0.137   0.109  -0.103
    1UNK    H0F   16   0.139   0.006   0.042
    1UNK    H0G   17   0.142   0.183   0.057
    1UNK    H0H   18  -0.086   0.012  -0.056
    1UNK    H0I   19  -0.088   0.188  -0.055
    1UNK    H0J   20  -0.072   0.019   0.201
    1UNK    H0K   21  -0.087   0.318   0.153
    1UNK    H0M   22   0.029   0.225   0.250
    1UNK    H0N   23  -0.137   0.244   0.306
    1UNK    H0O   24  -0.305   0.179   0.093
    1UNK    H0P   25  -0.303   0.090   0.243
    1UNK    H0Q   26  -0.302  -0.036  -0.035
    1UNK    H0R   27  -0.363  -0.252   0.077
    1UNK    H0S   28  -0.082  -0.169   0.154
    1UNK    H0T   29  -0.136  -0.234  -0.002
    1UNK    H0U   30  -0.149  -0.329   0.146
    1UNK    H0V   31  -0.481   0.103  -0.128
    1UNK    H0W   32  -0.494   0.206   0.016
    1UNK    H0X   33  -0.636   0.124  -0.045
    1UNK    H0Y   34  -0.522  -0.155  -0.104
    1UNK    H0Z   35  -0.675  -0.108  -0.028
    1UNK    H10   36  -0.568  -0.220   0.055
    1UNK    H11   37  -0.528   0.104   0.244
    1UNK    H12   38  -0.559  -0.070   0.263
    1UNK    H13   39  -0.675   0.031   0.180
   1.00000   1.00000   1.00000

