LIGPARGEN GENERATED GRO FILE
   40
    1UNK    C00    1   0.100   0.100   0.000
    1UNK    O01    2  -0.043   0.100   0.000
    1UNK    C02    3  -0.097   0.100   0.132
    1UNK    C03    4  -0.059   0.224   0.216
    1UNK    O04    5  -0.006   0.323   0.164
    1UNK    C05    6  -0.091   0.229   0.365
    1UNK    C06    7  -0.079   0.101   0.449
    1UNK    C07    8   0.044   0.011   0.425
    1UNK    C08    9   0.180   0.081   0.440
    1UNK    C09   10   0.212   0.126   0.583
    1UNK    C0A   11   0.211   0.008   0.681
    1UNK    C0B   12   0.348   0.196   0.587
    1UNK    O0C   13  -0.200   0.021   0.455
    1UNK    C0D   14  -0.259  -0.023   0.342
    1UNK    O0E   15  -0.277  -0.141   0.317
    1UNK    O0F   16  -0.298   0.081   0.264
    1UNK    C0G   17  -0.250   0.084   0.129
    1UNK    C0H   18  -0.296  -0.037   0.048
    1UNK    H0I   19   0.134   0.042  -0.086
    1UNK    H0J   20   0.142   0.055   0.091
    1UNK    H0K   21   0.137   0.202  -0.010
    1UNK    H0M   22  -0.056   0.011   0.179
    1UNK    H0N   23  -0.190   0.274   0.377
    1UNK    H0O   24  -0.020   0.302   0.408
    1UNK    H0P   25  -0.071   0.136   0.552
    1UNK    H0Q   26   0.042  -0.036   0.328
    1UNK    H0R   27   0.038  -0.075   0.493
    1UNK    H0S   28   0.185   0.167   0.372
    1UNK    H0T   29   0.258   0.011   0.406
    1UNK    H0U   30   0.137   0.198   0.616
    1UNK    H0V   31   0.279  -0.072   0.647
    1UNK    H0W   32   0.111  -0.034   0.691
    1UNK    H0X   33   0.243   0.040   0.781
    1UNK    H0Y   34   0.428   0.129   0.554
    1UNK    H0Z   35   0.371   0.229   0.689
    1UNK    H10   36   0.348   0.284   0.523
    1UNK    H11   37  -0.294   0.173   0.083
    1UNK    H12   38  -0.250  -0.130   0.083
    1UNK    H13   39  -0.268  -0.026  -0.058
    1UNK    H14   40  -0.404  -0.049   0.055
   1.00000   1.00000   1.00000

