
;
; GENERATED BY LigParGen Server
; Jorgensen Lab @ Yale University 
;
[ atomtypes ]
  opls_818  H818     1.0080     0.000    A    2.50000E-01   1.25520E-01
  opls_824  H824     1.0080     0.000    A    2.50000E-01   1.25520E-01
  opls_805  C805    12.0110     0.000    A    3.50000E-01   2.76144E-01
  opls_804  O804    15.9990     0.000    A    2.96000E-01   8.78640E-01
  opls_836  H836     1.0080     0.000    A    2.50000E-01   1.25520E-01
  opls_834  H834     1.0080     0.000    A    2.50000E-01   1.25520E-01
  opls_828  H828     1.0080     0.000    A    2.50000E-01   1.25520E-01
  opls_812  O812    15.9990     0.000    A    2.90000E-01   5.85760E-01
  opls_815  O815    15.9990     0.000    A    2.90000E-01   5.85760E-01
  opls_802  C802    12.0110     0.000    A    3.50000E-01   2.76144E-01
  opls_827  H827     1.0080     0.000    A    2.50000E-01   1.25520E-01
  opls_809  C809    12.0110     0.000    A    3.50000E-01   2.76144E-01
  opls_806  C806    12.0110     0.000    A    3.50000E-01   2.76144E-01
  opls_801  O801    15.9990     0.000    A    2.90000E-01   5.85760E-01
  opls_807  C807    12.0110     0.000    A    3.50000E-01   2.76144E-01
  opls_838  H838     1.0080     0.000    A    2.50000E-01   1.25520E-01
  opls_825  H825     1.0080     0.000    A    2.50000E-01   1.25520E-01
  opls_830  H830     1.0080     0.000    A    2.50000E-01   1.25520E-01
  opls_816  C816    12.0110     0.000    A    3.50000E-01   2.76144E-01
  opls_820  H820     1.0080     0.000    A    2.50000E-01   1.25520E-01
  opls_837  H837     1.0080     0.000    A    2.50000E-01   1.25520E-01
  opls_813  C813    12.0110     0.000    A    3.55000E-01   2.92880E-01
  opls_821  H821     1.0080     0.000    A    2.50000E-01   1.25520E-01
  opls_831  H831     1.0080     0.000    A    2.50000E-01   1.25520E-01
  opls_832  H832     1.0080     0.000    A    2.50000E-01   1.25520E-01
  opls_800  C800    12.0110     0.000    A    3.50000E-01   2.76144E-01
  opls_811  C811    12.0110     0.000    A    3.50000E-01   2.76144E-01
  opls_823  H823     1.0080     0.000    A    2.50000E-01   1.25520E-01
  opls_826  H826     1.0080     0.000    A    2.50000E-01   1.25520E-01
  opls_835  H835     1.0080     0.000    A    2.50000E-01   1.25520E-01
  opls_819  H819     1.0080     0.000    A    2.50000E-01   1.25520E-01
  opls_810  C810    12.0110     0.000    A    3.50000E-01   2.76144E-01
  opls_833  H833     1.0080     0.000    A    2.50000E-01   1.25520E-01
  opls_839  H839     1.0080     0.000    A    2.50000E-01   1.25520E-01
  opls_817  C817    12.0110     0.000    A    3.50000E-01   2.76144E-01
  opls_808  C808    12.0110     0.000    A    3.50000E-01   2.76144E-01
  opls_803  C803    12.0110     0.000    A    3.55000E-01   2.92880E-01
  opls_814  O814    15.9990     0.000    A    2.96000E-01   8.78640E-01
  opls_829  H829     1.0080     0.000    A    2.50000E-01   1.25520E-01
  opls_822  H822     1.0080     0.000    A    2.50000E-01   1.25520E-01
[ moleculetype ]
; Name               nrexcl
UNK                   3
[ atoms ]
;   nr       type  resnr residue  atom   cgnr     charge       mass  
     1   opls_800      1    UNK   C00      1    -0.0590    12.0110 
     2   opls_801      1    UNK   O01      1    -0.3467    15.9990 
     3   opls_802      1    UNK   C02      1    -0.0133    12.0110 
     4   opls_803      1    UNK   C03      1     0.2882    12.0110 
     5   opls_804      1    UNK   O04      1    -0.3780    15.9990 
     6   opls_805      1    UNK   C05      1    -0.2575    12.0110 
     7   opls_806      1    UNK   C06      1     0.1104    12.0110 
     8   opls_807      1    UNK   C07      1    -0.2154    12.0110 
     9   opls_808      1    UNK   C08      1    -0.1702    12.0110 
    10   opls_809      1    UNK   C09      1    -0.1184    12.0110 
    11   opls_810      1    UNK   C0A      1    -0.2387    12.0110 
    12   opls_811      1    UNK   C0B      1    -0.2377    12.0110 
    13   opls_812      1    UNK   O0C      1    -0.3681    15.9990 
    14   opls_813      1    UNK   C0D      1     0.5945    12.0110 
    15   opls_814      1    UNK   O0E      1    -0.3928    15.9990 
    16   opls_815      1    UNK   O0F      1    -0.3902    15.9990 
    17   opls_816      1    UNK   C0G      1     0.1064    12.0110 
    18   opls_817      1    UNK   C0H      1    -0.2740    12.0110 
    19   opls_818      1    UNK   H0I      1     0.0940     1.0080 
    20   opls_819      1    UNK   H0J      1     0.0940     1.0080 
    21   opls_820      1    UNK   H0K      1     0.0940     1.0080 
    22   opls_821      1    UNK   H0M      1     0.1079     1.0080 
    23   opls_822      1    UNK   H0N      1     0.1539     1.0080 
    24   opls_823      1    UNK   H0O      1     0.1539     1.0080 
    25   opls_824      1    UNK   H0P      1     0.1433     1.0080 
    26   opls_825      1    UNK   H0Q      1     0.1074     1.0080 
    27   opls_826      1    UNK   H0R      1     0.1074     1.0080 
    28   opls_827      1    UNK   H0S      1     0.0977     1.0080 
    29   opls_828      1    UNK   H0T      1     0.0977     1.0080 
    30   opls_829      1    UNK   H0U      1     0.0936     1.0080 
    31   opls_830      1    UNK   H0V      1     0.0859     1.0080 
    32   opls_831      1    UNK   H0W      1     0.0859     1.0080 
    33   opls_832      1    UNK   H0X      2     0.0859     1.0080 
    34   opls_833      1    UNK   H0Y      2     0.0855     1.0080 
    35   opls_834      1    UNK   H0Z      2     0.0855     1.0080 
    36   opls_835      1    UNK   H10      2     0.0855     1.0080 
    37   opls_836      1    UNK   H11      2     0.1576     1.0080 
    38   opls_837      1    UNK   H12      2     0.1147     1.0080 
    39   opls_838      1    UNK   H13      2     0.1147     1.0080 
    40   opls_839      1    UNK   H14      2     0.1147     1.0080 
[ bonds ]
    2     1     1      0.1410 267776.000
    3     2     1      0.1410 267776.000
    4     3     1      0.1522 265265.600
    5     4     1      0.1229 476976.000
    6     4     1      0.1522 265265.600
    7     6     1      0.1529 224262.400
    8     7     1      0.1529 224262.400
    9     8     1      0.1529 224262.400
   10     9     1      0.1529 224262.400
   11    10     1      0.1529 224262.400
   12    10     1      0.1529 224262.400
   13     7     1      0.1410 267776.000
   14    13     1      0.1327 179075.200
   15    14     1      0.1229 476976.000
   16    14     1      0.1327 179075.200
   17     3     1      0.1529 224262.400
   18    17     1      0.1529 224262.400
   19     1     1      0.1090 284512.000
   20     1     1      0.1090 284512.000
   21     1     1      0.1090 284512.000
   22     3     1      0.1090 284512.000
   23     6     1      0.1090 284512.000
   24     6     1      0.1090 284512.000
   25     7     1      0.1090 284512.000
   26     8     1      0.1090 284512.000
   27     8     1      0.1090 284512.000
   28     9     1      0.1090 284512.000
   29     9     1      0.1090 284512.000
   30    10     1      0.1090 284512.000
   31    11     1      0.1090 284512.000
   32    11     1      0.1090 284512.000
   33    11     1      0.1090 284512.000
   34    12     1      0.1090 284512.000
   35    12     1      0.1090 284512.000
   36    12     1      0.1090 284512.000
   37    17     1      0.1090 284512.000
   38    18     1      0.1090 284512.000
   39    18     1      0.1090 284512.000
   40    18     1      0.1090 284512.000
   17    16     1      0.1410 267776.000

[ angles ]
;  ai    aj    ak funct            c0            c1            c2            c3 
    1     2     3     1    109.500    502.080
    2     3     4     1    109.500    418.400
    3     4     5     1    120.400    669.440
    3     4     6     1    116.000    585.760
    4     6     7     1    111.100    527.184
    6     7     8     1    112.700    488.273
    7     8     9     1    112.700    488.273
    8     9    10     1    112.700    488.273
    9    10    11     1    112.700    488.273
    9    10    12     1    112.700    488.273
    6     7    13     1    109.500    418.400
    7    13    14     1    116.900    694.544
   13    14    15     1    123.400    694.544
   13    14    16     1    118.180    584.923
    2     3    17     1    109.500    418.400
    3    17    18     1    112.700    488.273
    2     1    19     1    109.500    292.880
    2     1    20     1    109.500    292.880
    2     1    21     1    109.500    292.880
    2     3    22     1    109.500    292.880
    4     6    23     1    109.500    292.880
    4     6    24     1    109.500    292.880
    6     7    25     1    110.700    313.800
    7     8    26     1    110.700    313.800
    7     8    27     1    110.700    313.800
    8     9    28     1    110.700    313.800
    8     9    29     1    110.700    313.800
    9    10    30     1    110.700    313.800
   10    11    31     1    110.700    313.800
   10    11    32     1    110.700    313.800
   10    11    33     1    110.700    313.800
   10    12    34     1    110.700    313.800
   10    12    35     1    110.700    313.800
   10    12    36     1    110.700    313.800
    3    17    37     1    110.700    313.800
   17    18    38     1    110.700    313.800
   17    18    39     1    110.700    313.800
   17    18    40     1    110.700    313.800
   19     1    20     1    107.800    276.144
   38    18    39     1    107.800    276.144
    5     4     6     1    120.400    669.440
    3    17    16     1    109.500    418.400
   35    12    36     1    107.800    276.144
    7     6    24     1    110.700    313.800
   34    12    35     1    107.800    276.144
   20     1    21     1    107.800    276.144
   10     9    28     1    110.700    313.800
   11    10    12     1    112.700    488.273
   10     9    29     1    110.700    313.800
   16    17    18     1    109.500    418.400
    8     7    25     1    110.700    313.800
    4     3    22     1    109.500    292.880
    7     6    23     1    110.700    313.800
   12    10    30     1    110.700    313.800
   31    11    32     1    107.800    276.144
    8     7    13     1    109.500    418.400
   34    12    36     1    107.800    276.144
   14    16    17     1    116.900    694.544
   17     3    22     1    110.700    313.800
    9     8    27     1    110.700    313.800
   18    17    37     1    110.700    313.800
   19     1    21     1    107.800    276.144
   38    18    40     1    107.800    276.144
   13     7    25     1    109.500    292.880
   32    11    33     1    107.800    276.144
   16    17    37     1    109.500    292.880
   15    14    16     1    123.400    694.544
   23     6    24     1    107.800    276.144
   39    18    40     1    107.800    276.144
    9     8    26     1    110.700    313.800
    4     3    17     1    111.100    527.184
   26     8    27     1    107.800    276.144
   11    10    30     1    110.700    313.800
   31    11    33     1    107.800    276.144
   28     9    29     1    107.800    276.144

[ dihedrals ]
; IMPROPER DIHEDRAL ANGLES 
;  ai    aj    ak    al funct            c0            c1            c2            c3            c4            c5
     6     4     3     5    4        180.000     43.932     2  
    12    10     9    11    4        180.000     43.932     2  
    18    17     3    16    4        180.000     43.932     2  
    17     3     2     4    4        180.000     43.932     2  
    23     6     4     7    4        180.000     43.932     2  
    24     6     4     7    4        180.000     43.932     2  
    25     7     6     8    4        180.000     43.932     2  
    26     8     7     9    4        180.000     43.932     2  
    27     8     7     9    4        180.000     43.932     2  
    28     9     8    10    4        180.000     43.932     2  
    29     9     8    10    4        180.000     43.932     2  
    30    10     9    11    4        180.000     43.932     2  
    39    18    17    38    4        180.000     43.932     2  
    36    12    10    34    4        180.000     43.932     2  
    35    12    10    34    4        180.000     43.932     2  
    33    11    10    31    4        180.000     43.932     2  
    32    11    10    31    4        180.000     43.932     2  
    40    18    17    38    4        180.000     43.932     2  
    37    17     3    16    4        180.000     43.932     2  
    22     3     2     4    4        180.000     43.932     2  
    20     1     2    19    4        180.000     43.932     2  
    21     1     2    19    4        180.000     43.932     2  
    16    14    13    15    4        180.000     43.932     2  
    13     7     6     8    4        180.000     43.932     2  

[ dihedrals ]
; PROPER DIHEDRAL ANGLES
;  ai    aj    ak    al funct            c0            c1            c2            c3            c4            c5
    4    3    2    1        3      31.206  -9.768  -21.439  -0.000  -0.000   0.000
   14   16   17    3        3      31.206  -9.768  -21.439  -0.000  -0.000   0.000
   14   13    7    8        3      31.206  -9.768  -21.439  -0.000  -0.000   0.000
   14   13    7    6        3      31.206  -9.768  -21.439  -0.000  -0.000   0.000
    6    4    3    2        3       2.092   0.000  -2.092  -0.000  -0.000   0.000
    7    6    4    3        3      -4.812  -1.464   6.276  -0.000  -0.000   0.000
   17    3    4    6        3      -4.812  -1.464   6.276  -0.000  -0.000   0.000
   17    3    4    5        3       2.092   0.000  -2.092  -0.000  -0.000   0.000
    7    6    4    5        3       2.092   0.000  -2.092  -0.000  -0.000   0.000
   18   17    3    4        3      -4.812  -1.464   6.276  -0.000  -0.000   0.000
    8    7    6    4        3      -4.812  -1.464   6.276  -0.000  -0.000   0.000
   12   10    9    8        3      -4.812  -1.464   6.276  -0.000  -0.000   0.000
    9    8    7    6        3      -4.812  -1.464   6.276  -0.000  -0.000   0.000
   10    9    8    7        3      -4.812  -1.464   6.276  -0.000  -0.000   0.000
   11   10    9    8        3      -4.812  -1.464   6.276  -0.000  -0.000   0.000
   18   17    3    2        3       2.092   0.000  -2.092  -0.000  -0.000   0.000
   18   17   16   14        3      31.206  -9.768  -21.439  -0.000  -0.000   0.000
   17    3    2    1        3      31.206  -9.768  -21.439  -0.000  -0.000   0.000
   17   16   14   15        3      21.439   0.000  -21.439  -0.000  -0.000   0.000
   17   16   14   13        3      21.439   0.000  -21.439  -0.000  -0.000   0.000
   22    3    4    6        3      -1.506  -1.674   3.180  -0.000  -0.000   0.000
   23    6    4    3        3      -1.506  -1.674   3.180  -0.000  -0.000   0.000
   24    6    4    3        3      -1.506  -1.674   3.180  -0.000  -0.000   0.000
   23    6    4    5        3       0.000   0.000   0.000  -0.000  -0.000   0.000
   24    6    4    5        3       0.000   0.000   0.000  -0.000  -0.000   0.000
   22    3    4    5        3       0.000   0.000   0.000  -0.000  -0.000   0.000
   37   17    3    4        3      -1.506  -1.674   3.180  -0.000  -0.000   0.000
   25    7    6    4        3      -1.506  -1.674   3.180  -0.000  -0.000   0.000
   35   12   10    9        3      -1.506  -1.674   3.180  -0.000  -0.000   0.000
   22    3   17   18        3      -1.506  -1.674   3.180  -0.000  -0.000   0.000
   32   11   10    9        3      -1.506  -1.674   3.180  -0.000  -0.000   0.000
   33   11   10   12        3      -1.506  -1.674   3.180  -0.000  -0.000   0.000
   29    9   10   11        3      -1.506  -1.674   3.180  -0.000  -0.000   0.000
   24    6    7    8        3      -1.506  -1.674   3.180  -0.000  -0.000   0.000
   34   12   10   11        3      -1.506  -1.674   3.180  -0.000  -0.000   0.000
   35   12   10   11        3      -1.506  -1.674   3.180  -0.000  -0.000   0.000
   33   11   10    9        3      -1.506  -1.674   3.180  -0.000  -0.000   0.000
   32   11   10   12        3      -1.506  -1.674   3.180  -0.000  -0.000   0.000
   29    9   10   12        3      -1.506  -1.674   3.180  -0.000  -0.000   0.000
   27    8    7    6        3      -1.506  -1.674   3.180  -0.000  -0.000   0.000
   28    9    8    7        3      -1.506  -1.674   3.180  -0.000  -0.000   0.000
   39   18   17    3        3      -1.506  -1.674   3.180  -0.000  -0.000   0.000
   26    8    9   10        3      -1.506  -1.674   3.180  -0.000  -0.000   0.000
   29    9    8    7        3      -1.506  -1.674   3.180  -0.000  -0.000   0.000
   26    8    7    6        3      -1.506  -1.674   3.180  -0.000  -0.000   0.000
   31   11   10    9        3      -1.506  -1.674   3.180  -0.000  -0.000   0.000
   36   12   10   11        3      -1.506  -1.674   3.180  -0.000  -0.000   0.000
   27    8    9   10        3      -1.506  -1.674   3.180  -0.000  -0.000   0.000
   28    9   10   11        3      -1.506  -1.674   3.180  -0.000  -0.000   0.000
   34   12   10    9        3      -1.506  -1.674   3.180  -0.000  -0.000   0.000
   28    9   10   12        3      -1.506  -1.674   3.180  -0.000  -0.000   0.000
   25    7    8    9        3      -1.506  -1.674   3.180  -0.000  -0.000   0.000
   38   18   17    3        3      -1.506  -1.674   3.180  -0.000  -0.000   0.000
   36   12   10    9        3      -1.506  -1.674   3.180  -0.000  -0.000   0.000
   30   10    9    8        3      -1.506  -1.674   3.180  -0.000  -0.000   0.000
   23    6    7    8        3      -1.506  -1.674   3.180  -0.000  -0.000   0.000
   40   18   17    3        3      -1.506  -1.674   3.180  -0.000  -0.000   0.000
   31   11   10   12        3      -1.506  -1.674   3.180  -0.000  -0.000   0.000
   39   18   17   37        3       0.628   1.883   0.000  -2.510  -0.000   0.000
   35   12   10   30        3       0.628   1.883   0.000  -2.510  -0.000   0.000
   28    9    8   26        3       0.628   1.883   0.000  -2.510  -0.000   0.000
   29    9    8   27        3       0.628   1.883   0.000  -2.510  -0.000   0.000
   34   12   10   30        3       0.628   1.883   0.000  -2.510  -0.000   0.000
   25    7    6   24        3       0.628   1.883   0.000  -2.510  -0.000   0.000
   40   18   17   37        3       0.628   1.883   0.000  -2.510  -0.000   0.000
   27    8    7   25        3       0.628   1.883   0.000  -2.510  -0.000   0.000
   31   11   10   30        3       0.628   1.883   0.000  -2.510  -0.000   0.000
   32   11   10   30        3       0.628   1.883   0.000  -2.510  -0.000   0.000
   30   10    9   28        3       0.628   1.883   0.000  -2.510  -0.000   0.000
   25    7    6   23        3       0.628   1.883   0.000  -2.510  -0.000   0.000
   26    8    7   25        3       0.628   1.883   0.000  -2.510  -0.000   0.000
   37   17    3   22        3       0.628   1.883   0.000  -2.510  -0.000   0.000
   33   11   10   30        3       0.628   1.883   0.000  -2.510  -0.000   0.000
   38   18   17   37        3       0.628   1.883   0.000  -2.510  -0.000   0.000
   36   12   10   30        3       0.628   1.883   0.000  -2.510  -0.000   0.000
   29    9    8   26        3       0.628   1.883   0.000  -2.510  -0.000   0.000
   28    9    8   27        3       0.628   1.883   0.000  -2.510  -0.000   0.000
   30   10    9   29        3       0.628   1.883   0.000  -2.510  -0.000   0.000
   23    6    7   13        3       0.000   0.000   0.000  -0.000  -0.000   0.000
   40   18   17   16        3       0.000   0.000   0.000  -0.000  -0.000   0.000
   27    8    7   13        3       0.000   0.000   0.000  -0.000  -0.000   0.000
   22    3   17   16        3       0.000   0.000   0.000  -0.000  -0.000   0.000
   37   17    3    2        3       0.000   0.000   0.000  -0.000  -0.000   0.000
   38   18   17   16        3       0.000   0.000   0.000  -0.000  -0.000   0.000
   39   18   17   16        3       0.000   0.000   0.000  -0.000  -0.000   0.000
   26    8    7   13        3       0.000   0.000   0.000  -0.000  -0.000   0.000
   24    6    7   13        3       0.000   0.000   0.000  -0.000  -0.000   0.000
   37   17   16   14        3      31.206  -9.768  -21.439  -0.000  -0.000   0.000
   25    7   13   14        3      31.206  -9.768  -21.439  -0.000  -0.000   0.000
   20    1    2    3        3      31.206  -9.768  -21.439  -0.000  -0.000   0.000
   19    1    2    3        3      31.206  -9.768  -21.439  -0.000  -0.000   0.000
   22    3    2    1        3      31.206  -9.768  -21.439  -0.000  -0.000   0.000
   21    1    2    3        3      31.206  -9.768  -21.439  -0.000  -0.000   0.000
    5    4    3    2        3      16.736  -3.347  -13.389  -0.000  -0.000   0.000
   15   14   13    7        3      21.439   0.000  -21.439  -0.000  -0.000   0.000
   16   14   13    7        3      21.439   0.000  -21.439  -0.000  -0.000   0.000
   16   17    3    4        3       2.092   0.000  -2.092  -0.000  -0.000   0.000
   13    7    6    4        3       2.092   0.000  -2.092  -0.000  -0.000   0.000
   13    7    8    9        3       2.092   0.000  -2.092  -0.000  -0.000   0.000
   16   17    3    2        3      16.736  -3.347  -13.389  -0.000  -0.000   0.000

[ pairs ]
     1     4    1
     2     5    1
     2     6    1
     3     7    1
     5     7    1
     4     8    1
     6     9    1
     7    10    1
     4    13    1
     3    14    1
     2    16    1
     1    17    1
     8    11    1
     8    12    1
     6    14    1
     4    16    1
     2    18    1
     9    13    1
     8    14    1
     7    15    1
     5    17    1
     4    18    1
     3    19    1
     7    16    1
     6    17    1
     3    20    1
     1    22    1
     3    21    1
     3    23    1
     5    22    1
     3    24    1
     6    22    1
     5    23    1
     5    24    1
     4    25    1
    13    17    1
     8    23    1
    15    17    1
    14    18    1
     8    24    1
     6    26    1
     6    27    1
     9    25    1
     7    28    1
    13    23    1
    10    26    1
     7    29    1
    13    24    1
    10    27    1
    16    22    1
     8    30    1
    14    25    1
    13    26    1
    11    28    1
     2    37    1
    18    22    1
    13    27    1
    12    28    1
    11    29    1
     9    31    1
    12    29    1
     9    32    1
     4    37    1
     3    38    1
     9    33    1
     3    39    1
    12    31    1
     9    34    1
     3    40    1
    12    32    1
     9    35    1
    12    33    1
    11    34    1
     9    36    1
    11    35    1
    11    36    1
    23    25    1
    24    25    1
    25    26    1
    14    37    1
    25    27    1
    26    28    1
    16    38    1
    27    28    1
    26    29    1
    16    39    1
    27    29    1
    16    40    1
    28    30    1
    29    30    1
    22    37    1
    30    31    1
    30    32    1
    30    33    1
    30    34    1
    30    35    1
    30    36    1
    37    38    1
    37    39    1
    37    40    1

