LIGPARGEN GENERATED GRO FILE
   55
    1UNK    C00    1   0.100   0.100   0.000
    1UNK    C01    2  -0.055   0.100   0.000
    1UNK    C02    3  -0.101   0.100   0.150
    1UNK    C03    4  -0.185  -0.025   0.166
    1UNK    C04    5  -0.120  -0.122   0.068
    1UNK    C05    6  -0.107  -0.035  -0.059
    1UNK    C06    7  -0.244  -0.038  -0.133
    1UNK    O07    8  -0.337  -0.108  -0.090
    1UNK    C08    9  -0.260   0.030  -0.268
    1UNK    C09   10  -0.399   0.095  -0.282
    1UNK    C0A   11  -0.430   0.242  -0.233
    1UNK    C0B   12  -0.568   0.237  -0.161
    1UNK    C0C   13  -0.684   0.262  -0.259
    1UNK    C0D   14  -0.766   0.388  -0.232
    1UNK    C0E   15  -0.689   0.518  -0.256
    1UNK    C0F   16  -0.595   0.555  -0.142
    1UNK    C0G   17  -0.449   0.564  -0.186
    1UNK    C0H   18  -0.356   0.470  -0.111
    1UNK    C0I   19  -0.319   0.330  -0.166
    1UNK    C0J   20  -0.246   0.262  -0.051
    1UNK    C0K   21  -0.101   0.226  -0.077
    1UNK    H0M   22   0.141   0.012   0.051
    1UNK    H0N   23   0.139   0.189   0.052
    1UNK    H0O   24   0.140   0.101  -0.102
    1UNK    H0P   25  -0.156   0.190   0.180
    1UNK    H0Q   26  -0.015   0.094   0.217
    1UNK    H0R   27  -0.289  -0.004   0.138
    1UNK    H0S   28  -0.186  -0.062   0.269
    1UNK    H0T   29  -0.178  -0.213   0.055
    1UNK    H0U   30  -0.021  -0.151   0.105
    1UNK    H0V   31  -0.034  -0.081  -0.128
    1UNK    H0W   32  -0.254  -0.052  -0.341
    1UNK    H0X   33  -0.180   0.097  -0.295
    1UNK    H0Y   34  -0.471   0.026  -0.237
    1UNK    H0Z   35  -0.425   0.092  -0.388
    1UNK    H10   36  -0.447   0.297  -0.327
    1UNK    H11   37  -0.571   0.302  -0.074
    1UNK    H12   38  -0.584   0.138  -0.117
    1UNK    H13   39  -0.753   0.176  -0.254
    1UNK    H14   40  -0.650   0.264  -0.363
    1UNK    H15   41  -0.808   0.386  -0.131
    1UNK    H16   42  -0.851   0.388  -0.301
    1UNK    H17   43  -0.764   0.597  -0.265
    1UNK    H18   44  -0.638   0.513  -0.352
    1UNK    H19   45  -0.609   0.492  -0.054
    1UNK    H1A   46  -0.625   0.654  -0.104
    1UNK    H1B   47  -0.417   0.667  -0.161
    1UNK    H1C   48  -0.435   0.556  -0.294
    1UNK    H1D   49  -0.394   0.462  -0.008
    1UNK    H1E   50  -0.261   0.524  -0.101
    1UNK    H1F   51  -0.246   0.349  -0.247
    1UNK    H1G   52  -0.305   0.176  -0.015
    1UNK    H1H   53  -0.240   0.328   0.036
    1UNK    H1I   54  -0.039   0.312  -0.047
    1UNK    H1J   55  -0.078   0.214  -0.183
   1.00000   1.00000   1.00000

