
;
; GENERATED BY LigParGen Server
; Jorgensen Lab @ Yale University 
;
[ atomtypes ]
  opls_807  O807    15.9990     0.000    A    2.96000E-01   8.78640E-01
  opls_814  C814    12.0110     0.000    A    3.50000E-01   2.76144E-01
  opls_824  H824     1.0080     0.000    A    2.50000E-01   1.25520E-01
  opls_811  C811    12.0110     0.000    A    3.50000E-01   2.76144E-01
  opls_804  C804    12.0110     0.000    A    3.50000E-01   2.76144E-01
  opls_818  C818    12.0110     0.000    A    3.50000E-01   2.76144E-01
  opls_848  H848     1.0080     0.000    A    2.50000E-01   1.25520E-01
  opls_843  H843     1.0080     0.000    A    2.50000E-01   1.25520E-01
  opls_836  H836     1.0080     0.000    A    2.50000E-01   1.25520E-01
  opls_834  H834     1.0080     0.000    A    2.50000E-01   1.25520E-01
  opls_810  C810    12.0110     0.000    A    3.50000E-01   2.76144E-01
  opls_828  H828     1.0080     0.000    A    2.50000E-01   1.25520E-01
  opls_851  H851     1.0080     0.000    A    2.50000E-01   1.25520E-01
  opls_812  C812    12.0110     0.000    A    3.50000E-01   2.76144E-01
  opls_802  C802    12.0110     0.000    A    3.50000E-01   2.76144E-01
  opls_827  H827     1.0080     0.000    A    2.50000E-01   1.25520E-01
  opls_809  C809    12.0110     0.000    A    3.50000E-01   2.76144E-01
  opls_838  H838     1.0080     0.000    A    2.50000E-01   1.25520E-01
  opls_822  H822     1.0080     0.000    A    2.50000E-01   1.25520E-01
  opls_803  C803    12.0110     0.000    A    3.50000E-01   2.76144E-01
  opls_830  H830     1.0080     0.000    A    2.50000E-01   1.25520E-01
  opls_821  H821     1.0080     0.000    A    2.50000E-01   1.25520E-01
  opls_842  H842     1.0080     0.000    A    2.50000E-01   1.25520E-01
  opls_826  H826     1.0080     0.000    A    2.50000E-01   1.25520E-01
  opls_837  H837     1.0080     0.000    A    2.50000E-01   1.25520E-01
  opls_829  H829     1.0080     0.000    A    2.50000E-01   1.25520E-01
  opls_831  H831     1.0080     0.000    A    2.50000E-01   1.25520E-01
  opls_853  H853     1.0080     0.000    A    2.50000E-01   1.25520E-01
  opls_832  H832     1.0080     0.000    A    2.50000E-01   1.25520E-01
  opls_800  C800    12.0110     0.000    A    3.50000E-01   2.76144E-01
  opls_805  C805    12.0110     0.000    A    3.50000E-01   2.76144E-01
  opls_846  H846     1.0080     0.000    A    2.50000E-01   1.25520E-01
  opls_815  C815    12.0110     0.000    A    3.50000E-01   2.76144E-01
  opls_806  C806    12.0110     0.000    A    3.55000E-01   2.92880E-01
  opls_823  H823     1.0080     0.000    A    2.50000E-01   1.25520E-01
  opls_819  C819    12.0110     0.000    A    3.50000E-01   2.76144E-01
  opls_820  C820    12.0110     0.000    A    3.50000E-01   2.76144E-01
  opls_835  H835     1.0080     0.000    A    2.50000E-01   1.25520E-01
  opls_841  H841     1.0080     0.000    A    2.50000E-01   1.25520E-01
  opls_825  H825     1.0080     0.000    A    2.50000E-01   1.25520E-01
  opls_816  C816    12.0110     0.000    A    3.50000E-01   2.76144E-01
  opls_833  H833     1.0080     0.000    A    2.50000E-01   1.25520E-01
  opls_839  H839     1.0080     0.000    A    2.50000E-01   1.25520E-01
  opls_817  C817    12.0110     0.000    A    3.50000E-01   2.76144E-01
  opls_852  H852     1.0080     0.000    A    2.50000E-01   1.25520E-01
  opls_801  C801    12.0110     0.000    A    3.50000E-01   2.76144E-01
  opls_808  C808    12.0110     0.000    A    3.50000E-01   2.76144E-01
  opls_850  H850     1.0080     0.000    A    2.50000E-01   1.25520E-01
  opls_840  H840     1.0080     0.000    A    2.50000E-01   1.25520E-01
  opls_849  H849     1.0080     0.000    A    2.50000E-01   1.25520E-01
  opls_813  C813    12.0110     0.000    A    3.50000E-01   2.76144E-01
  opls_847  H847     1.0080     0.000    A    2.50000E-01   1.25520E-01
  opls_844  H844     1.0080     0.000    A    2.50000E-01   1.25520E-01
  opls_845  H845     1.0080     0.000    A    2.50000E-01   1.25520E-01
  opls_854  H854     1.0080     0.000    A    2.50000E-01   1.25520E-01
[ moleculetype ]
; Name               nrexcl
UNK                   3
[ atoms ]
;   nr       type  resnr residue  atom   cgnr     charge       mass  
     1   opls_800      1    UNK   C00      1    -0.2347    12.0110 
     2   opls_801      1    UNK   C01      1    -0.0304    12.0110 
     3   opls_802      1    UNK   C02      1    -0.1811    12.0110 
     4   opls_803      1    UNK   C03      1    -0.1881    12.0110 
     5   opls_804      1    UNK   C04      1    -0.1769    12.0110 
     6   opls_805      1    UNK   C05      1    -0.1544    12.0110 
     7   opls_806      1    UNK   C06      1     0.3787    12.0110 
     8   opls_807      1    UNK   O07      1    -0.4637    15.9990 
     9   opls_808      1    UNK   C08      1    -0.2172    12.0110 
    10   opls_809      1    UNK   C09      1    -0.1665    12.0110 
    11   opls_810      1    UNK   C0A      1    -0.0905    12.0110 
    12   opls_811      1    UNK   C0B      1    -0.1719    12.0110 
    13   opls_812      1    UNK   C0C      1    -0.1728    12.0110 
    14   opls_813      1    UNK   C0D      1    -0.1752    12.0110 
    15   opls_814      1    UNK   C0E      1      -0.17    12.0110 
    16   opls_815      1    UNK   C0F      1    -0.1726    12.0110 
    17   opls_816      1    UNK   C0G      1    -0.1678    12.0110 
    18   opls_817      1    UNK   C0H      1    -0.1682    12.0110 
    19   opls_818      1    UNK   C0I      1    -0.0845    12.0110 
    20   opls_819      1    UNK   C0J      1    -0.1866    12.0110 
    21   opls_820      1    UNK   C0K      1    -0.1647    12.0110 
    22   opls_821      1    UNK   H0M      1     0.0839     1.0080 
    23   opls_822      1    UNK   H0N      1     0.0839     1.0080 
    24   opls_823      1    UNK   H0O      1     0.0839     1.0080 
    25   opls_824      1    UNK   H0P      1     0.0941     1.0080 
    26   opls_825      1    UNK   H0Q      1     0.0941     1.0080 
    27   opls_826      1    UNK   H0R      1     0.1027     1.0080 
    28   opls_827      1    UNK   H0S      1     0.1027     1.0080 
    29   opls_828      1    UNK   H0T      1     0.1047     1.0080 
    30   opls_829      1    UNK   H0U      1     0.1047     1.0080 
    31   opls_830      1    UNK   H0V      1     0.1242     1.0080 
    32   opls_831      1    UNK   H0W      1     0.1137     1.0080 
    33   opls_832      1    UNK   H0X      2     0.1137     1.0080 
    34   opls_833      1    UNK   H0Y      2     0.0977     1.0080 
    35   opls_834      1    UNK   H0Z      2     0.0977     1.0080 
    36   opls_835      1    UNK   H10      2     0.0849     1.0080 
    37   opls_836      1    UNK   H11      2     0.0949     1.0080 
    38   opls_837      1    UNK   H12      2     0.0949     1.0080 
    39   opls_838      1    UNK   H13      2     0.0847     1.0080 
    40   opls_839      1    UNK   H14      2     0.0847     1.0080 
    41   opls_840      1    UNK   H15      2     0.0858     1.0080 
    42   opls_841      1    UNK   H16      2     0.0858     1.0080 
    43   opls_842      1    UNK   H17      2     0.0859     1.0080 
    44   opls_843      1    UNK   H18      2     0.0859     1.0080 
    45   opls_844      1    UNK   H19      2     0.0866     1.0080 
    46   opls_845      1    UNK   H1A      2     0.0866     1.0080 
    47   opls_846      1    UNK   H1B      2     0.0873     1.0080 
    48   opls_847      1    UNK   H1C      2     0.0873     1.0080 
    49   opls_848      1    UNK   H1D      2      0.083     1.0080 
    50   opls_849      1    UNK   H1E      2      0.083     1.0080 
    51   opls_850      1    UNK   H1F      2     0.0879     1.0080 
    52   opls_851      1    UNK   H1G      2     0.0957     1.0080 
    53   opls_852      1    UNK   H1H      2     0.0957     1.0080 
    54   opls_853      1    UNK   H1I      2     0.0883     1.0080 
    55   opls_854      1    UNK   H1J      2     0.0883     1.0080 
[ bonds ]
    2     1     1      0.1529 224262.400
    3     2     1      0.1529 224262.400
    4     3     1      0.1529 224262.400
    5     4     1      0.1529 224262.400
    6     2     1      0.1529 224262.400
    7     6     1      0.1522 265265.600
    8     7     1      0.1229 476976.000
    9     7     1      0.1522 265265.600
   10     9     1      0.1529 224262.400
   11    10     1      0.1529 224262.400
   12    11     1      0.1529 224262.400
   13    12     1      0.1529 224262.400
   14    13     1      0.1529 224262.400
   15    14     1      0.1529 224262.400
   16    15     1      0.1529 224262.400
   17    16     1      0.1529 224262.400
   18    17     1      0.1529 224262.400
   19    11     1      0.1529 224262.400
   20    19     1      0.1529 224262.400
   21     2     1      0.1529 224262.400
   22     1     1      0.1090 284512.000
   23     1     1      0.1090 284512.000
   24     1     1      0.1090 284512.000
   25     3     1      0.1090 284512.000
   26     3     1      0.1090 284512.000
   27     4     1      0.1090 284512.000
   28     4     1      0.1090 284512.000
   29     5     1      0.1090 284512.000
   30     5     1      0.1090 284512.000
   31     6     1      0.1090 284512.000
   32     9     1      0.1090 284512.000
   33     9     1      0.1090 284512.000
   34    10     1      0.1090 284512.000
   35    10     1      0.1090 284512.000
   36    11     1      0.1090 284512.000
   37    12     1      0.1090 284512.000
   38    12     1      0.1090 284512.000
   39    13     1      0.1090 284512.000
   40    13     1      0.1090 284512.000
   41    14     1      0.1090 284512.000
   42    14     1      0.1090 284512.000
   43    15     1      0.1090 284512.000
   44    15     1      0.1090 284512.000
   45    16     1      0.1090 284512.000
   46    16     1      0.1090 284512.000
   47    17     1      0.1090 284512.000
   48    17     1      0.1090 284512.000
   49    18     1      0.1090 284512.000
   50    18     1      0.1090 284512.000
   51    19     1      0.1090 284512.000
   52    20     1      0.1090 284512.000
   53    20     1      0.1090 284512.000
   54    21     1      0.1090 284512.000
   55    21     1      0.1090 284512.000
    6     5     1      0.1529 224262.400
   19    18     1      0.1529 224262.400
   21    20     1      0.1529 224262.400

[ angles ]
;  ai    aj    ak funct            c0            c1            c2            c3 
    1     2     3     1    112.700    488.273
    2     3     4     1    112.700    488.273
    3     4     5     1    112.700    488.273
    1     2     6     1    112.700    488.273
    2     6     7     1    111.100    527.184
    6     7     8     1    120.400    669.440
    6     7     9     1    116.000    585.760
    7     9    10     1    111.100    527.184
    9    10    11     1    112.700    488.273
   10    11    12     1    112.700    488.273
   11    12    13     1    112.700    488.273
   12    13    14     1    112.700    488.273
   13    14    15     1    112.700    488.273
   14    15    16     1    112.700    488.273
   15    16    17     1    112.700    488.273
   16    17    18     1    112.700    488.273
   10    11    19     1    112.700    488.273
   11    19    20     1    112.700    488.273
    1     2    21     1    112.700    488.273
    2     1    22     1    110.700    313.800
    2     1    23     1    110.700    313.800
    2     1    24     1    110.700    313.800
    2     3    25     1    110.700    313.800
    2     3    26     1    110.700    313.800
    3     4    27     1    110.700    313.800
    3     4    28     1    110.700    313.800
    4     5    29     1    110.700    313.800
    4     5    30     1    110.700    313.800
    2     6    31     1    110.700    313.800
    7     9    32     1    109.500    292.880
    7     9    33     1    109.500    292.880
    9    10    34     1    110.700    313.800
    9    10    35     1    110.700    313.800
   10    11    36     1    110.700    313.800
   11    12    37     1    110.700    313.800
   11    12    38     1    110.700    313.800
   12    13    39     1    110.700    313.800
   12    13    40     1    110.700    313.800
   13    14    41     1    110.700    313.800
   13    14    42     1    110.700    313.800
   14    15    43     1    110.700    313.800
   14    15    44     1    110.700    313.800
   15    16    45     1    110.700    313.800
   15    16    46     1    110.700    313.800
   16    17    47     1    110.700    313.800
   16    17    48     1    110.700    313.800
   17    18    49     1    110.700    313.800
   17    18    50     1    110.700    313.800
   11    19    51     1    110.700    313.800
   19    20    52     1    110.700    313.800
   19    20    53     1    110.700    313.800
    2    21    54     1    110.700    313.800
    2    21    55     1    110.700    313.800
   18    17    47     1    110.700    313.800
   13    12    37     1    110.700    313.800
   19    18    49     1    110.700    313.800
   21    20    52     1    110.700    313.800
   45    16    46     1    107.800    276.144
   54    21    55     1    107.800    276.144
   13    12    38     1    110.700    313.800
   27     4    28     1    107.800    276.144
   22     1    24     1    107.800    276.144
   14    13    40     1    110.700    313.800
   19    11    36     1    110.700    313.800
    6     2    21     1    112.700    488.273
   18    17    48     1    110.700    313.800
   19    20    21     1    112.700    488.273
   10     9    33     1    110.700    313.800
   34    10    35     1    107.800    276.144
   49    18    50     1    107.800    276.144
    5     4    27     1    110.700    313.800
   20    21    54     1    110.700    313.800
   18    19    20     1    112.700    488.273
    7     6    31     1    109.500    292.880
    6     5    30     1    110.700    313.800
   20    19    51     1    110.700    313.800
   43    15    44     1    107.800    276.144
   16    15    44     1    110.700    313.800
   16    15    43     1    110.700    313.800
   37    12    38     1    107.800    276.144
   17    16    45     1    110.700    313.800
    5     4    28     1    110.700    313.800
   14    13    39     1    110.700    313.800
    8     7     9     1    120.400    669.440
    2    21    20     1    112.700    488.273
   23     1    24     1    107.800    276.144
   15    14    41     1    110.700    313.800
   11    10    35     1    110.700    313.800
   11    10    34     1    110.700    313.800
   41    14    42     1    107.800    276.144
   32     9    33     1    107.800    276.144
   10     9    32     1    110.700    313.800
   47    17    48     1    107.800    276.144
   29     5    30     1    107.800    276.144
   21    20    53     1    110.700    313.800
    5     6     7     1    111.100    527.184
   12    11    36     1    110.700    313.800
   20    21    55     1    110.700    313.800
    5     6    31     1    110.700    313.800
    3     2     6     1    112.700    488.273
   17    18    19     1    112.700    488.273
   17    16    46     1    110.700    313.800
   12    11    19     1    112.700    488.273
   25     3    26     1    107.800    276.144
    4     3    26     1    110.700    313.800
   39    13    40     1    107.800    276.144
    3     2    21     1    112.700    488.273
   19    18    50     1    110.700    313.800
    4     5     6     1    112.700    488.273
   15    14    42     1    110.700    313.800
    4     3    25     1    110.700    313.800
   22     1    23     1    107.800    276.144
   18    19    51     1    110.700    313.800
   11    19    18     1    112.700    488.273
    2     6     5     1    112.700    488.273
    6     5    29     1    110.700    313.800
   52    20    53     1    107.800    276.144

[ dihedrals ]
; IMPROPER DIHEDRAL ANGLES 
;  ai    aj    ak    al funct            c0            c1            c2            c3            c4            c5
     9     7     6     8    4        180.000     43.932     2  

[ dihedrals ]
; PROPER DIHEDRAL ANGLES
;  ai    aj    ak    al funct            c0            c1            c2            c3            c4            c5
    7    6    2    1        3      -4.960   6.286   1.310  -2.636  -0.000   0.000
    7    6    2    3        3      -4.960   6.286   1.310  -2.636  -0.000   0.000
    7    6    5    4        3      -4.960   6.286   1.310  -2.636  -0.000   0.000
    9    7    6    2        3       0.818  -7.906   0.602   6.485  -0.000   0.000
    9    7    6    5        3       0.818  -7.906   0.602   6.485  -0.000   0.000
   10    9    7    6        3       0.818  -7.906   0.602   6.485  -0.000   0.000
   10    9    7    8        3       0.000   0.000   0.000  -0.000  -0.000   0.000
   21    2    6    7        3      -4.960   6.286   1.310  -2.636  -0.000   0.000
   11   10    9    7        3      -4.960   6.286   1.310  -2.636  -0.000   0.000
    4    3    2    1        3       2.301  -1.464   0.837  -1.674  -0.000   0.000
   20   21    2    6        3       2.301  -1.464   0.837  -1.674  -0.000   0.000
   17   18   19   11        3       2.301  -1.464   0.837  -1.674  -0.000   0.000
   19   20   21    2        3       2.301  -1.464   0.837  -1.674  -0.000   0.000
    5    6    2    3        3       2.301  -1.464   0.837  -1.674  -0.000   0.000
    4    5    6    2        3       2.301  -1.464   0.837  -1.674  -0.000   0.000
    5    6    2    1        3       2.301  -1.464   0.837  -1.674  -0.000   0.000
   21   20   19   18        3       2.301  -1.464   0.837  -1.674  -0.000   0.000
   19   18   17   16        3       2.301  -1.464   0.837  -1.674  -0.000   0.000
   21    2    6    5        3       2.301  -1.464   0.837  -1.674  -0.000   0.000
   18   19   11   12        3       2.301  -1.464   0.837  -1.674  -0.000   0.000
    6    5    4    3        3       2.301  -1.464   0.837  -1.674  -0.000   0.000
   20   19   11   10        3       2.301  -1.464   0.837  -1.674  -0.000   0.000
   20   21    2    1        3       2.301  -1.464   0.837  -1.674  -0.000   0.000
   18   19   11   10        3       2.301  -1.464   0.837  -1.674  -0.000   0.000
   19   11   12   13        3       2.301  -1.464   0.837  -1.674  -0.000   0.000
   18   17   16   15        3       2.301  -1.464   0.837  -1.674  -0.000   0.000
    5    4    3    2        3       2.301  -1.464   0.837  -1.674  -0.000   0.000
   12   11   10    9        3       2.301  -1.464   0.837  -1.674  -0.000   0.000
   13   12   11   10        3       2.301  -1.464   0.837  -1.674  -0.000   0.000
   14   13   12   11        3       2.301  -1.464   0.837  -1.674  -0.000   0.000
   15   14   13   12        3       2.301  -1.464   0.837  -1.674  -0.000   0.000
   16   15   14   13        3       2.301  -1.464   0.837  -1.674  -0.000   0.000
   17   16   15   14        3       2.301  -1.464   0.837  -1.674  -0.000   0.000
   20   19   11   12        3       2.301  -1.464   0.837  -1.674  -0.000   0.000
   21    2    3    4        3       2.301  -1.464   0.837  -1.674  -0.000   0.000
   20   21    2    3        3       2.301  -1.464   0.837  -1.674  -0.000   0.000
   19   11   10    9        3       2.301  -1.464   0.837  -1.674  -0.000   0.000
   20   19   18   17        3       2.301  -1.464   0.837  -1.674  -0.000   0.000
    6    2    3    4        3       2.301  -1.464   0.837  -1.674  -0.000   0.000
   21   20   19   11        3       2.301  -1.464   0.837  -1.674  -0.000   0.000
   32    9    7    6        3       0.575   1.726   0.000  -2.301  -0.000   0.000
   33    9    7    6        3       0.575   1.726   0.000  -2.301  -0.000   0.000
   31    6    7    9        3       0.575   1.726   0.000  -2.301  -0.000   0.000
   33    9    7    8        3       0.000   0.000   0.000  -0.000  -0.000   0.000
   32    9    7    8        3       0.000   0.000   0.000  -0.000  -0.000   0.000
   31    6    7    8        3       0.000   0.000   0.000  -0.000  -0.000   0.000
   34   10    9    7        3      -0.209  -0.628   0.000   0.837  -0.000   0.000
   29    5    6    7        3      -0.209  -0.628   0.000   0.837  -0.000   0.000
   30    5    6    7        3      -0.209  -0.628   0.000   0.837  -0.000   0.000
   35   10    9    7        3      -0.209  -0.628   0.000   0.837  -0.000   0.000
   24    1    2   21        3       0.628   1.883   0.000  -2.510  -0.000   0.000
   37   12   11   19        3       0.628   1.883   0.000  -2.510  -0.000   0.000
   36   11   19   18        3       0.628   1.883   0.000  -2.510  -0.000   0.000
   49   18   19   11        3       0.628   1.883   0.000  -2.510  -0.000   0.000
   54   21    2    3        3       0.628   1.883   0.000  -2.510  -0.000   0.000
   54   21    2    1        3       0.628   1.883   0.000  -2.510  -0.000   0.000
   26    3    4    5        3       0.628   1.883   0.000  -2.510  -0.000   0.000
   55   21    2    6        3       0.628   1.883   0.000  -2.510  -0.000   0.000
   49   18   19   20        3       0.628   1.883   0.000  -2.510  -0.000   0.000
   24    1    2    6        3       0.628   1.883   0.000  -2.510  -0.000   0.000
   43   15   16   17        3       0.628   1.883   0.000  -2.510  -0.000   0.000
   29    5    6    2        3       0.628   1.883   0.000  -2.510  -0.000   0.000
   27    4    5    6        3       0.628   1.883   0.000  -2.510  -0.000   0.000
   46   16   15   14        3       0.628   1.883   0.000  -2.510  -0.000   0.000
   52   20   21    2        3       0.628   1.883   0.000  -2.510  -0.000   0.000
   28    4    5    6        3       0.628   1.883   0.000  -2.510  -0.000   0.000
   24    1    2    3        3       0.628   1.883   0.000  -2.510  -0.000   0.000
   50   18   19   11        3       0.628   1.883   0.000  -2.510  -0.000   0.000
   31    6    2    3        3       0.628   1.883   0.000  -2.510  -0.000   0.000
   43   15   14   13        3       0.628   1.883   0.000  -2.510  -0.000   0.000
   23    1    2   21        3       0.628   1.883   0.000  -2.510  -0.000   0.000
   27    4    3    2        3       0.628   1.883   0.000  -2.510  -0.000   0.000
   51   19   20   21        3       0.628   1.883   0.000  -2.510  -0.000   0.000
   29    5    4    3        3       0.628   1.883   0.000  -2.510  -0.000   0.000
   23    1    2    6        3       0.628   1.883   0.000  -2.510  -0.000   0.000
   53   20   21    2        3       0.628   1.883   0.000  -2.510  -0.000   0.000
   22    1    2   21        3       0.628   1.883   0.000  -2.510  -0.000   0.000
   25    3    2    1        3       0.628   1.883   0.000  -2.510  -0.000   0.000
   40   13   12   11        3       0.628   1.883   0.000  -2.510  -0.000   0.000
   38   12   11   10        3       0.628   1.883   0.000  -2.510  -0.000   0.000
   34   10   11   19        3       0.628   1.883   0.000  -2.510  -0.000   0.000
   39   13   12   11        3       0.628   1.883   0.000  -2.510  -0.000   0.000
   48   17   18   19        3       0.628   1.883   0.000  -2.510  -0.000   0.000
   31    6    5    4        3       0.628   1.883   0.000  -2.510  -0.000   0.000
   38   12   11   19        3       0.628   1.883   0.000  -2.510  -0.000   0.000
   45   16   15   14        3       0.628   1.883   0.000  -2.510  -0.000   0.000
   44   15   16   17        3       0.628   1.883   0.000  -2.510  -0.000   0.000
   37   12   13   14        3       0.628   1.883   0.000  -2.510  -0.000   0.000
   41   14   15   16        3       0.628   1.883   0.000  -2.510  -0.000   0.000
   52   20   19   11        3       0.628   1.883   0.000  -2.510  -0.000   0.000
   50   18   17   16        3       0.628   1.883   0.000  -2.510  -0.000   0.000
   33    9   10   11        3       0.628   1.883   0.000  -2.510  -0.000   0.000
   25    3    2    6        3       0.628   1.883   0.000  -2.510  -0.000   0.000
   47   17   16   15        3       0.628   1.883   0.000  -2.510  -0.000   0.000
   31    6    2    1        3       0.628   1.883   0.000  -2.510  -0.000   0.000
   35   10   11   19        3       0.628   1.883   0.000  -2.510  -0.000   0.000
   53   20   19   18        3       0.628   1.883   0.000  -2.510  -0.000   0.000
   22    1    2    6        3       0.628   1.883   0.000  -2.510  -0.000   0.000
   31    6    2   21        3       0.628   1.883   0.000  -2.510  -0.000   0.000
   36   11   10    9        3       0.628   1.883   0.000  -2.510  -0.000   0.000
   46   16   17   18        3       0.628   1.883   0.000  -2.510  -0.000   0.000
   55   21   20   19        3       0.628   1.883   0.000  -2.510  -0.000   0.000
   49   18   17   16        3       0.628   1.883   0.000  -2.510  -0.000   0.000
   26    3    2   21        3       0.628   1.883   0.000  -2.510  -0.000   0.000
   44   15   14   13        3       0.628   1.883   0.000  -2.510  -0.000   0.000
   50   18   19   20        3       0.628   1.883   0.000  -2.510  -0.000   0.000
   42   14   15   16        3       0.628   1.883   0.000  -2.510  -0.000   0.000
   38   12   13   14        3       0.628   1.883   0.000  -2.510  -0.000   0.000
   55   21    2    3        3       0.628   1.883   0.000  -2.510  -0.000   0.000
   55   21    2    1        3       0.628   1.883   0.000  -2.510  -0.000   0.000
   23    1    2    3        3       0.628   1.883   0.000  -2.510  -0.000   0.000
   54   21   20   19        3       0.628   1.883   0.000  -2.510  -0.000   0.000
   34   10   11   12        3       0.628   1.883   0.000  -2.510  -0.000   0.000
   30    5    6    2        3       0.628   1.883   0.000  -2.510  -0.000   0.000
   48   17   16   15        3       0.628   1.883   0.000  -2.510  -0.000   0.000
   26    3    2    1        3       0.628   1.883   0.000  -2.510  -0.000   0.000
   53   20   19   11        3       0.628   1.883   0.000  -2.510  -0.000   0.000
   39   13   14   15        3       0.628   1.883   0.000  -2.510  -0.000   0.000
   25    3    2   21        3       0.628   1.883   0.000  -2.510  -0.000   0.000
   32    9   10   11        3       0.628   1.883   0.000  -2.510  -0.000   0.000
   35   10   11   12        3       0.628   1.883   0.000  -2.510  -0.000   0.000
   45   16   17   18        3       0.628   1.883   0.000  -2.510  -0.000   0.000
   25    3    4    5        3       0.628   1.883   0.000  -2.510  -0.000   0.000
   28    4    3    2        3       0.628   1.883   0.000  -2.510  -0.000   0.000
   36   11   12   13        3       0.628   1.883   0.000  -2.510  -0.000   0.000
   42   14   13   12        3       0.628   1.883   0.000  -2.510  -0.000   0.000
   30    5    4    3        3       0.628   1.883   0.000  -2.510  -0.000   0.000
   54   21    2    6        3       0.628   1.883   0.000  -2.510  -0.000   0.000
   22    1    2    3        3       0.628   1.883   0.000  -2.510  -0.000   0.000
   41   14   13   12        3       0.628   1.883   0.000  -2.510  -0.000   0.000
   52   20   19   18        3       0.628   1.883   0.000  -2.510  -0.000   0.000
   36   11   19   20        3       0.628   1.883   0.000  -2.510  -0.000   0.000
   37   12   11   10        3       0.628   1.883   0.000  -2.510  -0.000   0.000
   47   17   18   19        3       0.628   1.883   0.000  -2.510  -0.000   0.000
   51   19   11   10        3       0.628   1.883   0.000  -2.510  -0.000   0.000
   51   19   18   17        3       0.628   1.883   0.000  -2.510  -0.000   0.000
   26    3    2    6        3       0.628   1.883   0.000  -2.510  -0.000   0.000
   40   13   14   15        3       0.628   1.883   0.000  -2.510  -0.000   0.000
   51   19   11   12        3       0.628   1.883   0.000  -2.510  -0.000   0.000
   30    5    4   28        3       0.628   1.883   0.000  -2.510  -0.000   0.000
   34   10    9   33        3       0.628   1.883   0.000  -2.510  -0.000   0.000
   48   17   16   46        3       0.628   1.883   0.000  -2.510  -0.000   0.000
   28    4    3   26        3       0.628   1.883   0.000  -2.510  -0.000   0.000
   37   12   11   36        3       0.628   1.883   0.000  -2.510  -0.000   0.000
   49   18   17   47        3       0.628   1.883   0.000  -2.510  -0.000   0.000
   41   14   13   39        3       0.628   1.883   0.000  -2.510  -0.000   0.000
   44   15   14   42        3       0.628   1.883   0.000  -2.510  -0.000   0.000
   42   14   13   40        3       0.628   1.883   0.000  -2.510  -0.000   0.000
   41   14   13   40        3       0.628   1.883   0.000  -2.510  -0.000   0.000
   43   15   14   41        3       0.628   1.883   0.000  -2.510  -0.000   0.000
   51   19   18   49        3       0.628   1.883   0.000  -2.510  -0.000   0.000
   30    5    4   27        3       0.628   1.883   0.000  -2.510  -0.000   0.000
   40   13   12   37        3       0.628   1.883   0.000  -2.510  -0.000   0.000
   36   11   10   35        3       0.628   1.883   0.000  -2.510  -0.000   0.000
   45   16   15   44        3       0.628   1.883   0.000  -2.510  -0.000   0.000
   46   16   15   43        3       0.628   1.883   0.000  -2.510  -0.000   0.000
   38   12   11   36        3       0.628   1.883   0.000  -2.510  -0.000   0.000
   43   15   14   42        3       0.628   1.883   0.000  -2.510  -0.000   0.000
   29    5    4   27        3       0.628   1.883   0.000  -2.510  -0.000   0.000
   53   20   19   51        3       0.628   1.883   0.000  -2.510  -0.000   0.000
   35   10    9   32        3       0.628   1.883   0.000  -2.510  -0.000   0.000
   48   17   16   45        3       0.628   1.883   0.000  -2.510  -0.000   0.000
   47   17   16   46        3       0.628   1.883   0.000  -2.510  -0.000   0.000
   40   13   12   38        3       0.628   1.883   0.000  -2.510  -0.000   0.000
   28    4    3   25        3       0.628   1.883   0.000  -2.510  -0.000   0.000
   52   20   19   51        3       0.628   1.883   0.000  -2.510  -0.000   0.000
   35   10    9   33        3       0.628   1.883   0.000  -2.510  -0.000   0.000
   47   17   16   45        3       0.628   1.883   0.000  -2.510  -0.000   0.000
   45   16   15   43        3       0.628   1.883   0.000  -2.510  -0.000   0.000
   34   10    9   32        3       0.628   1.883   0.000  -2.510  -0.000   0.000
   27    4    3   25        3       0.628   1.883   0.000  -2.510  -0.000   0.000
   29    5    4   28        3       0.628   1.883   0.000  -2.510  -0.000   0.000
   55   21   20   53        3       0.628   1.883   0.000  -2.510  -0.000   0.000
   31    6    5   29        3       0.628   1.883   0.000  -2.510  -0.000   0.000
   39   13   12   38        3       0.628   1.883   0.000  -2.510  -0.000   0.000
   46   16   15   44        3       0.628   1.883   0.000  -2.510  -0.000   0.000
   50   18   17   48        3       0.628   1.883   0.000  -2.510  -0.000   0.000
   39   13   12   37        3       0.628   1.883   0.000  -2.510  -0.000   0.000
   51   19   18   50        3       0.628   1.883   0.000  -2.510  -0.000   0.000
   27    4    3   26        3       0.628   1.883   0.000  -2.510  -0.000   0.000
   55   21   20   52        3       0.628   1.883   0.000  -2.510  -0.000   0.000
   50   18   17   47        3       0.628   1.883   0.000  -2.510  -0.000   0.000
   49   18   17   48        3       0.628   1.883   0.000  -2.510  -0.000   0.000
   42   14   13   39        3       0.628   1.883   0.000  -2.510  -0.000   0.000
   36   11   10   34        3       0.628   1.883   0.000  -2.510  -0.000   0.000
   31    6    5   30        3       0.628   1.883   0.000  -2.510  -0.000   0.000
   44   15   14   41        3       0.628   1.883   0.000  -2.510  -0.000   0.000
   51   19   11   36        3       0.628   1.883   0.000  -2.510  -0.000   0.000
   54   21   20   53        3       0.628   1.883   0.000  -2.510  -0.000   0.000
   54   21   20   52        3       0.628   1.883   0.000  -2.510  -0.000   0.000
    8    7    6    5        3       0.000   0.000   0.000  -0.000  -0.000   0.000
    8    7    6    2        3       0.000   0.000   0.000  -0.000  -0.000   0.000

[ pairs ]
     1     4    1
     1     5    1
     1     7    1
     3     7    1
     2     8    1
     4     7    1
     2     9    1
     5     8    1
     5     9    1
     6    10    1
     8    10    1
     7    11    1
     9    12    1
     2    19    1
     1    20    1
    10    13    1
     3    20    1
    11    14    1
     4    21    1
     3    22    1
     6    20    1
     5    21    1
     3    23    1
     1    25    1
    12    15    1
     3    24    1
     1    26    1
    11    17    1
    10    18    1
     9    19    1
     7    21    1
     6    22    1
    13    16    1
     6    23    1
     2    27    1
    12    18    1
    10    20    1
     6    24    1
     5    25    1
     2    28    1
    14    17    1
     6    25    1
     5    26    1
     2    29    1
    13    19    1
    12    20    1
    11    21    1
     6    26    1
     3    29    1
     2    30    1
     1    31    1
    15    18    1
     6    27    1
     3    30    1
     6    28    1
     3    31    1
    16    19    1
     4    31    1
     7    29    1
    17    20    1
     7    30    1
     6    32    1
    18    21    1
     8    31    1
     6    33    1
     9    31    1
     8    32    1
     8    33    1
     7    34    1
     7    35    1
    21    22    1
    11    32    1
    21    23    1
    11    33    1
    21    24    1
     9    36    1
    21    25    1
    12    34    1
    21    26    1
    12    35    1
    10    37    1
    10    38    1
    13    36    1
    11    39    1
    14    37    1
    11    40    1
    25    27    1
    21    31    1
    14    38    1
    26    27    1
    25    28    1
    19    34    1
    12    41    1
    26    28    1
    19    35    1
    18    36    1
    15    39    1
    12    42    1
     2    52    1
    15    40    1
     2    53    1
     1    54    1
    27    29    1
    20    36    1
    19    37    1
    13    43    1
     1    55    1
    28    29    1
    27    30    1
    19    38    1
    16    41    1
    13    44    1
     3    54    1
    28    30    1
    16    42    1
     3    55    1
    14    45    1
    29    31    1
    17    43    1
    14    46    1
    11    49    1
     6    54    1
    30    31    1
    17    44    1
    11    50    1
    10    51    1
     6    55    1
    15    47    1
    18    45    1
    15    48    1
    12    51    1
    11    52    1
    18    46    1
    11    53    1
    16    49    1
    32    34    1
    19    47    1
    16    50    1
    33    34    1
    32    35    1
    19    48    1
    33    35    1
    17    51    1
    20    49    1
    34    36    1
    20    50    1
    18    52    1
    35    36    1
    18    53    1
    21    51    1
    36    37    1
    19    54    1
    36    38    1
    19    55    1
    37    39    1
    38    39    1
    37    40    1
    38    40    1
    39    41    1
    40    41    1
    39    42    1
    40    42    1
    41    43    1
    42    43    1
    41    44    1
    42    44    1
    36    51    1
    43    45    1
    44    45    1
    43    46    1
    44    46    1
    45    47    1
    46    47    1
    45    48    1
    46    48    1
    47    49    1
    48    49    1
    47    50    1
    48    50    1
    49    51    1
    50    51    1
    51    52    1
    51    53    1
    52    54    1
    53    54    1
    52    55    1
    53    55    1

