LIGPARGEN GENERATED GRO FILE
   38
    1UNK    C00    1   0.100   0.100   0.000
    1UNK    C01    2  -0.052   0.100   0.000
    1UNK    C02    3  -0.108   0.100   0.142
    1UNK    O03    4  -0.041   0.151   0.233
    1UNK    C04    5  -0.250   0.041   0.169
    1UNK    C05    6  -0.273   0.057   0.322
    1UNK    C06    7  -0.349   0.131   0.091
    1UNK    C07    8  -0.498   0.096   0.080
    1UNK    C08    9  -0.577   0.100   0.211
    1UNK    C09   10  -0.522  -0.032  -0.002
    1UNK    C0A   11  -0.505  -0.165   0.069
    1UNK    C0B   12  -0.385  -0.184   0.161
    1UNK    C0C   13  -0.255  -0.110   0.125
    1UNK    C0D   14  -0.137  -0.191   0.183
    1UNK    H0E   15   0.138   0.095  -0.102
    1UNK    H0F   16   0.139   0.014   0.055
    1UNK    H0G   17   0.140   0.191   0.047
    1UNK    H0H   18  -0.087   0.012  -0.054
    1UNK    H0I   19  -0.089   0.189  -0.051
    1UNK    H0J   20  -0.274   0.163   0.350
    1UNK    H0K   21  -0.193   0.010   0.380
    1UNK    H0M   22  -0.367   0.015   0.357
    1UNK    H0N   23  -0.313   0.140  -0.012
    1UNK    H0O   24  -0.342   0.233   0.131
    1UNK    H0P   25  -0.540   0.177   0.019
    1UNK    H0Q   26  -0.561   0.012   0.274
    1UNK    H0R   27  -0.684   0.104   0.190
    1UNK    H0S   28  -0.551   0.189   0.269
    1UNK    H0T   29  -0.457  -0.030  -0.090
    1UNK    H0U   30  -0.624  -0.028  -0.042
    1UNK    H0V   31  -0.502  -0.243  -0.008
    1UNK    H0W   32  -0.596  -0.186   0.127
    1UNK    H0X   33  -0.365  -0.293   0.161
    1UNK    H0Y   34  -0.414  -0.163   0.264
    1UNK    H0Z   35  -0.244  -0.115   0.015
    1UNK    H10   36  -0.141  -0.194   0.293
    1UNK    H11   37  -0.040  -0.150   0.154
    1UNK    H12   38  -0.140  -0.294   0.147
   1.00000   1.00000   1.00000

