LIGPARGEN GENERATED GRO FILE
   23
    1UNK    C00    1   0.100   0.100   0.000
    1UNK    C01    2  -0.051   0.100   0.000
    1UNK    C02    3  -0.115   0.100   0.141
    1UNK    C03    4  -0.244   0.181   0.118
    1UNK    C04    5  -0.329   0.108   0.012
    1UNK    C05    6  -0.234   0.107  -0.109
    1UNK    C06    7  -0.120   0.003  -0.100
    1UNK    C07    8  -0.128   0.215  -0.074
    1UNK    C08    9  -0.191   0.299   0.036
    1UNK    H09   10   0.139   0.010   0.049
    1UNK    H0A   11   0.140   0.187   0.053
    1UNK    H0B   12   0.140   0.102  -0.102
    1UNK    H0C   13  -0.051   0.151   0.213
    1UNK    H0D   14  -0.135  -0.001   0.177
    1UNK    H0E   15  -0.298   0.207   0.209
    1UNK    H0F   16  -0.420   0.165  -0.010
    1UNK    H0G   17  -0.357   0.007   0.044
    1UNK    H0H   18  -0.284   0.115  -0.206
    1UNK    H0I   19  -0.066  -0.010  -0.195
    1UNK    H0J   20  -0.147  -0.096  -0.062
    1UNK    H0K   21  -0.077   0.264  -0.157
    1UNK    H0M   22  -0.270   0.365  -0.001
    1UNK    H0N   23  -0.117   0.359   0.091
   1.00000   1.00000   1.00000

