
;
; GENERATED BY LigParGen Server
; Jorgensen Lab @ Yale University 
;
[ atomtypes ]
  opls_818  H818     1.0080     0.000    A    2.50000E-01   1.25520E-01
  opls_805  C805    12.0110     0.000    A    3.45000E-01   3.47272E-01
  opls_813  H813     1.0080     0.000    A    2.50000E-01   1.25520E-01
  opls_807  C807    12.0110     0.000    A    3.45000E-01   3.47272E-01
  opls_802  C802    12.0110     0.000    A    3.50000E-01   2.76144E-01
  opls_815  H815     1.0080     0.000    A    2.50000E-01   1.25520E-01
  opls_822  H822     1.0080     0.000    A    2.50000E-01   1.25520E-01
  opls_803  C803    12.0110     0.000    A    3.50000E-01   2.76144E-01
  opls_814  H814     1.0080     0.000    A    2.50000E-01   1.25520E-01
  opls_821  H821     1.0080     0.000    A    2.50000E-01   1.25520E-01
  opls_820  H820     1.0080     0.000    A    2.50000E-01   1.25520E-01
  opls_811  H811     1.0080     0.000    A    2.50000E-01   1.25520E-01
  opls_810  H810     1.0080     0.000    A    2.50000E-01   1.25520E-01
  opls_816  H816     1.0080     0.000    A    2.50000E-01   1.25520E-01
  opls_800  C800    12.0110     0.000    A    3.50000E-01   2.76144E-01
  opls_806  C806    12.0110     0.000    A    3.45000E-01   3.47272E-01
  opls_819  H819     1.0080     0.000    A    2.50000E-01   1.25520E-01
  opls_804  C804    12.0110     0.000    A    3.50000E-01   2.76144E-01
  opls_808  C808    12.0110     0.000    A    3.50000E-01   2.76144E-01
  opls_817  H817     1.0080     0.000    A    2.50000E-01   1.25520E-01
  opls_801  C801    12.0110     0.000    A    3.45000E-01   3.47272E-01
  opls_812  H812     1.0080     0.000    A    2.50000E-01   1.25520E-01
  opls_809  H809     1.0080     0.000    A    2.50000E-01   1.25520E-01
[ moleculetype ]
; Name               nrexcl
UNK                   3
[ atoms ]
;   nr       type  resnr residue  atom   cgnr     charge       mass  
     1   opls_800      1    UNK   C00      1    -0.2132    12.0110 
     2   opls_801      1    UNK   C01      1    -0.0883    12.0110 
     3   opls_802      1    UNK   C02      1     -0.156    12.0110 
     4   opls_803      1    UNK   C03      1    -0.1351    12.0110 
     5   opls_804      1    UNK   C04      1    -0.1621    12.0110 
     6   opls_805      1    UNK   C05      1    -0.1491    12.0110 
     7   opls_806      1    UNK   C06      1    -0.1762    12.0110 
     8   opls_807      1    UNK   C07      1    -0.1513    12.0110 
     9   opls_808      1    UNK   C08      1    -0.1772    12.0110 
    10   opls_809      1    UNK   H09      1     0.0829     1.0080 
    11   opls_810      1    UNK   H0A      1     0.0829     1.0080 
    12   opls_811      1    UNK   H0B      1     0.0829     1.0080 
    13   opls_812      1    UNK   H0C      1     0.0984     1.0080 
    14   opls_813      1    UNK   H0D      1     0.0984     1.0080 
    15   opls_814      1    UNK   H0E      1     0.1173     1.0080 
    16   opls_815      1    UNK   H0F      1     0.0976     1.0080 
    17   opls_816      1    UNK   H0G      1     0.0976     1.0080 
    18   opls_817      1    UNK   H0H      1     0.1146     1.0080 
    19   opls_818      1    UNK   H0I      1     0.1009     1.0080 
    20   opls_819      1    UNK   H0J      1     0.1009     1.0080 
    21   opls_820      1    UNK   H0K      1     0.1334     1.0080 
    22   opls_821      1    UNK   H0M      1     0.1003     1.0080 
    23   opls_822      1    UNK   H0N      1     0.1003     1.0080 
[ bonds ]
    2     1     1      0.1510 234304.000
    3     2     1      0.1510 234304.000
    4     3     1      0.1529 224262.400
    5     4     1      0.1529 224262.400
    6     5     1      0.1510 234304.000
    7     2     1      0.1520 217568.000
    8     2     1      0.1520 217568.000
    9     4     1      0.1529 224262.400
   10     1     1      0.1090 284512.000
   11     1     1      0.1090 284512.000
   12     1     1      0.1090 284512.000
   13     3     1      0.1090 284512.000
   14     3     1      0.1090 284512.000
   15     4     1      0.1090 284512.000
   16     5     1      0.1090 284512.000
   17     5     1      0.1090 284512.000
   18     6     1      0.1088 284512.000
   19     7     1      0.1088 284512.000
   20     7     1      0.1088 284512.000
   21     8     1      0.1088 284512.000
   22     9     1      0.1090 284512.000
   23     9     1      0.1090 284512.000
    7     6     1      0.1520 217568.000
    8     6     1      0.1520 217568.000
    9     8     1      0.1510 234304.000

[ angles ]
;  ai    aj    ak funct            c0            c1            c2            c3 
    1     2     3     1    114.300    292.880
    2     3     4     1    112.700    488.273
    3     4     5     1    112.700    488.273
    4     5     6     1    112.700    488.273
    1     2     7     1    117.200    313.800
    1     2     8     1    117.200    313.800
    3     4     9     1    112.700    488.273
    2     1    10     1    110.700    313.800
    2     1    11     1    110.700    313.800
    2     1    12     1    110.700    313.800
    2     3    13     1    110.700    313.800
    2     3    14     1    110.700    313.800
    3     4    15     1    110.700    313.800
    4     5    16     1    110.700    313.800
    4     5    17     1    110.700    313.800
    5     6    18     1    114.300    292.880
    2     7    19     1    117.200    313.800
    2     7    20     1    117.200    313.800
    2     8    21     1    117.200    313.800
    4     9    22     1    110.700    313.800
    4     9    23     1    110.700    313.800
    6     7    20     1    117.200    313.800
    7     6    18     1    117.200    313.800
    9     4    15     1    110.700    313.800
   13     3    14     1    107.800    276.144
   16     5    17     1    107.800    276.144
    2     7     6     1     83.000    251.040
    5     4     9     1    112.700    488.273
    6     7    19     1    117.200    313.800
    5     6     8     1    117.200    313.800
    6     5    17     1    110.700    313.800
   22     9    23     1    107.800    276.144
    4     9     8     1    112.700    488.273
    3     2     8     1    117.200    313.800
    6     8    21     1    117.200    313.800
   19     7    20     1    114.300    292.880
   11     1    12     1    107.800    276.144
    2     8     6     1     83.000    251.040
    5     4    15     1    110.700    313.800
    7     2     8     1     83.000    251.040
   10     1    12     1    107.800    276.144
    6     5    16     1    110.700    313.800
   10     1    11     1    107.800    276.144
    7     6     8     1     83.000    251.040
    6     8     9     1    117.200    313.800
    4     3    14     1    110.700    313.800
    8     6    18     1    117.200    313.800
    3     2     7     1    117.200    313.800
    4     3    13     1    110.700    313.800
    9     8    21     1    114.300    292.880
    2     8     9     1    117.200    313.800
    8     9    23     1    110.700    313.800
    5     6     7     1    117.200    313.800
    8     9    22     1    110.700    313.800

[ dihedrals ]
; IMPROPER DIHEDRAL ANGLES 
;  ai    aj    ak    al funct            c0            c1            c2            c3            c4            c5

[ dihedrals ]
; PROPER DIHEDRAL ANGLES
;  ai    aj    ak    al funct            c0            c1            c2            c3            c4            c5
    9    4    5    6        3       2.301  -1.464   0.837  -1.674  -0.000   0.000
    5    4    3    2        3       2.301  -1.464   0.837  -1.674  -0.000   0.000
    9    4    3    2        3       2.301  -1.464   0.837  -1.674  -0.000   0.000
    4    3    2    1        3       2.301  -1.464   0.837  -1.674  -0.000   0.000
    4    9    8    2        3       0.000   0.000   0.000  -0.000  -0.000   0.000
    9    8    6    5        3       0.000   0.000   0.000  -0.000  -0.000   0.000
    9    8    2    3        3       0.000   0.000   0.000  -0.000  -0.000   0.000
    9    8    2    1        3       0.000   0.000   0.000  -0.000  -0.000   0.000
    9    8    2    7        3       0.000   0.000   0.000  -0.000  -0.000   0.000
    9    8    6    7        3       0.000   0.000   0.000  -0.000  -0.000   0.000
    5    6    8    2        3       0.000   0.000   0.000  -0.000  -0.000   0.000
    5    6    7    2        3       0.000   0.000   0.000  -0.000  -0.000   0.000
    8    9    4    3        3       2.301  -1.464   0.837  -1.674  -0.000   0.000
    6    5    4    3        3       2.301  -1.464   0.837  -1.674  -0.000   0.000
    8    9    4    5        3       2.301  -1.464   0.837  -1.674  -0.000   0.000
    6    8    9    4        3       0.000   0.000   0.000  -0.000  -0.000   0.000
    7    2    3    4        3       0.000   0.000   0.000  -0.000  -0.000   0.000
    8    2    3    4        3       0.000   0.000   0.000  -0.000  -0.000   0.000
    8    6    5    4        3       0.000   0.000   0.000  -0.000  -0.000   0.000
    7    6    5    4        3       0.000   0.000   0.000  -0.000  -0.000   0.000
    6    7    2    1        3       0.000   0.000   0.000  -0.000  -0.000   0.000
    6    7    2    3        3       0.000   0.000   0.000  -0.000  -0.000   0.000
    6    8    2    3        3       0.000   0.000   0.000  -0.000  -0.000   0.000
    6    8    2    1        3       0.000   0.000   0.000  -0.000  -0.000   0.000
   14    3    4    5        3       0.628   1.883   0.000  -2.510  -0.000   0.000
   13    3    4    5        3       0.628   1.883   0.000  -2.510  -0.000   0.000
   13    3    4    9        3       0.628   1.883   0.000  -2.510  -0.000   0.000
   16    5    4    9        3       0.628   1.883   0.000  -2.510  -0.000   0.000
   22    9    4    3        3       0.628   1.883   0.000  -2.510  -0.000   0.000
   14    3    4    9        3       0.628   1.883   0.000  -2.510  -0.000   0.000
   22    9    4    5        3       0.628   1.883   0.000  -2.510  -0.000   0.000
   17    5    4    9        3       0.628   1.883   0.000  -2.510  -0.000   0.000
   23    9    4    5        3       0.628   1.883   0.000  -2.510  -0.000   0.000
   17    5    4    3        3       0.628   1.883   0.000  -2.510  -0.000   0.000
   23    9    4    3        3       0.628   1.883   0.000  -2.510  -0.000   0.000
   16    5    4    3        3       0.628   1.883   0.000  -2.510  -0.000   0.000
   15    4    5    6        3       0.628   1.883   0.000  -2.510  -0.000   0.000
   15    4    3    2        3       0.628   1.883   0.000  -2.510  -0.000   0.000
   15    4    9    8        3       0.628   1.883   0.000  -2.510  -0.000   0.000
   15    4    3   14        3       0.628   1.883   0.000  -2.510  -0.000   0.000
   16    5    4   15        3       0.628   1.883   0.000  -2.510  -0.000   0.000
   17    5    4   15        3       0.628   1.883   0.000  -2.510  -0.000   0.000
   22    9    4   15        3       0.628   1.883   0.000  -2.510  -0.000   0.000
   15    4    3   13        3       0.628   1.883   0.000  -2.510  -0.000   0.000
   23    9    4   15        3       0.628   1.883   0.000  -2.510  -0.000   0.000
   13    3    2    1        3       0.628   1.883   0.000  -2.510  -0.000   0.000
   14    3    2    1        3       0.628   1.883   0.000  -2.510  -0.000   0.000
   10    1    2    3        3       0.628   1.883   0.000  -2.510  -0.000   0.000
   12    1    2    3        3       0.628   1.883   0.000  -2.510  -0.000   0.000
   11    1    2    3        3       0.628   1.883   0.000  -2.510  -0.000   0.000
   12    1    2    8        3       0.628   1.883   0.000  -2.510  -0.000   0.000
   14    3    2    8        3       0.628   1.883   0.000  -2.510  -0.000   0.000
   10    1    2    7        3       0.628   1.883   0.000  -2.510  -0.000   0.000
   10    1    2    8        3       0.628   1.883   0.000  -2.510  -0.000   0.000
   11    1    2    7        3       0.628   1.883   0.000  -2.510  -0.000   0.000
   11    1    2    8        3       0.628   1.883   0.000  -2.510  -0.000   0.000
   17    5    6    8        3       0.628   1.883   0.000  -2.510  -0.000   0.000
   12    1    2    7        3       0.628   1.883   0.000  -2.510  -0.000   0.000
   13    3    2    8        3       0.628   1.883   0.000  -2.510  -0.000   0.000
   16    5    6    7        3       0.628   1.883   0.000  -2.510  -0.000   0.000
   14    3    2    7        3       0.628   1.883   0.000  -2.510  -0.000   0.000
   17    5    6    7        3       0.628   1.883   0.000  -2.510  -0.000   0.000
   16    5    6    8        3       0.628   1.883   0.000  -2.510  -0.000   0.000
   13    3    2    7        3       0.628   1.883   0.000  -2.510  -0.000   0.000
   22    9    8    6        3       0.628   1.883   0.000  -2.510  -0.000   0.000
   22    9    8    2        3       0.628   1.883   0.000  -2.510  -0.000   0.000
   23    9    8    2        3       0.628   1.883   0.000  -2.510  -0.000   0.000
   23    9    8    6        3       0.628   1.883   0.000  -2.510  -0.000   0.000
   23    9    8   21        3       0.628   1.883   0.000  -2.510  -0.000   0.000
   22    9    8   21        3       0.628   1.883   0.000  -2.510  -0.000   0.000
   18    6    5    4        3       0.628   1.883   0.000  -2.510  -0.000   0.000
   21    8    9    4        3       0.628   1.883   0.000  -2.510  -0.000   0.000
   18    6    5   16        3       0.628   1.883   0.000  -2.510  -0.000   0.000
   18    6    5   17        3       0.628   1.883   0.000  -2.510  -0.000   0.000
   18    6    8    9        3       0.000   0.000   0.000  -0.000  -0.000   0.000
   20    7    6    5        3       0.000   0.000   0.000  -0.000  -0.000   0.000
   20    7    2    3        3       0.000   0.000   0.000  -0.000  -0.000   0.000
   19    7    2    3        3       0.000   0.000   0.000  -0.000  -0.000   0.000
   20    7    2    1        3       0.000   0.000   0.000  -0.000  -0.000   0.000
   19    7    2    1        3       0.000   0.000   0.000  -0.000  -0.000   0.000
   21    8    2    3        3       0.000   0.000   0.000  -0.000  -0.000   0.000
   21    8    2    1        3       0.000   0.000   0.000  -0.000  -0.000   0.000
   21    8    6    5        3       0.000   0.000   0.000  -0.000  -0.000   0.000
   19    7    6    5        3       0.000   0.000   0.000  -0.000  -0.000   0.000
   20    7    2    8        3       0.000   0.000   0.000  -0.000  -0.000   0.000
   21    8    6    7        3       0.000   0.000   0.000  -0.000  -0.000   0.000
   19    7    2    8        3       0.000   0.000   0.000  -0.000  -0.000   0.000
   18    6    7    2        3       0.000   0.000   0.000  -0.000  -0.000   0.000
   21    8    2    7        3       0.000   0.000   0.000  -0.000  -0.000   0.000
   18    6    8    2        3       0.000   0.000   0.000  -0.000  -0.000   0.000
   19    7    6    8        3       0.000   0.000   0.000  -0.000  -0.000   0.000
   20    7    6    8        3       0.000   0.000   0.000  -0.000  -0.000   0.000
   19    7    6   18        3       0.000   0.000   0.000  -0.000  -0.000   0.000
   20    7    6   18        3       0.000   0.000   0.000  -0.000  -0.000   0.000
   21    8    6   18        3       0.000   0.000   0.000  -0.000  -0.000   0.000

[ pairs ]
     1     4    1
     2     5    1
     1     6    1
     3     6    1
     1     9    1
     4     7    1
     3    10    1
     3    11    1
     1    13    1
     3    12    1
     1    14    1
     7     9    1
     7    10    1
     2    15    1
     8    10    1
     7    11    1
     5    13    1
     8    11    1
     7    12    1
     5    14    1
     3    16    1
     8    12    1
     7    13    1
     3    17    1
     2    18    1
     1    19    1
     8    13    1
     7    14    1
     6    15    1
     1    20    1
     9    13    1
     8    14    1
     4    18    1
     3    19    1
     1    21    1
     9    14    1
     8    15    1
     7    16    1
     3    20    1
     8    16    1
     7    17    1
     5    19    1
     3    21    1
     2    22    1
     9    16    1
     8    17    1
     5    20    1
     4    21    1
     3    22    1
     2    23    1
     9    17    1
     5    21    1
     3    23    1
     9    18    1
     8    19    1
     5    22    1
    13    15    1
     8    20    1
     7    21    1
     6    22    1
     5    23    1
    14    15    1
     6    23    1
    15    16    1
    15    17    1
    16    18    1
    17    18    1
    18    19    1
    15    22    1
    18    20    1
    15    23    1
    18    21    1
    21    22    1
    21    23    1

