LIGPARGEN GENERATED GRO FILE
   35
    1UNK    C00    1   0.100   0.100   0.000
    1UNK    C01    2  -0.052   0.100   0.000
    1UNK    C02    3  -0.110   0.100   0.141
    1UNK    C03    4  -0.262   0.100   0.136
    1UNK    O04    5  -0.315   0.106   0.269
    1UNK    C05    6  -0.457   0.096   0.268
    1UNK    C06    7  -0.508   0.094   0.411
    1UNK    C07    8  -0.462   0.211   0.500
    1UNK    C08    9  -0.506   0.342   0.438
    1UNK    O09   10  -0.591   0.416   0.488
    1UNK    C0A   11  -0.518   0.203   0.643
    1UNK    S0B   12  -0.456   0.064   0.736
    1UNK    C0C   13  -0.527   0.089   0.897
    1UNK    O0D   14  -0.517  -0.057   0.684
    1UNK    O0E   15  -0.313   0.078   0.748
    1UNK    H0F   16   0.137   0.100  -0.103
    1UNK    H0G   17   0.139   0.011   0.050
    1UNK    H0H   18   0.139   0.189   0.050
    1UNK    H0I   19  -0.088   0.012  -0.055
    1UNK    H0J   20  -0.087   0.189  -0.054
    1UNK    H0K   21  -0.074   0.187   0.198
    1UNK    H0M   22  -0.075   0.012   0.197
    1UNK    H0N   23  -0.297   0.009   0.087
    1UNK    H0O   24  -0.298   0.187   0.080
    1UNK    H0P   25  -0.487   0.003   0.218
    1UNK    H0Q   26  -0.499   0.180   0.212
    1UNK    H0R   27  -0.472   0.000   0.455
    1UNK    H0S   28  -0.618   0.089   0.409
    1UNK    H0T   29  -0.352   0.213   0.504
    1UNK    H0U   30  -0.457   0.369   0.343
    1UNK    H0V   31  -0.627   0.197   0.643
    1UNK    H0W   32  -0.488   0.292   0.699
    1UNK    H0X   33  -0.635   0.090   0.888
    1UNK    H0Y   34  -0.490   0.183   0.938
    1UNK    H0Z   35  -0.496   0.006   0.960
   1.00000   1.00000   1.00000

