
;
; GENERATED BY LigParGen Server
; Jorgensen Lab @ Yale University 
;
[ atomtypes ]
  opls_818  H818     1.0080     0.000    A    2.50000E-01   1.25520E-01
  opls_811  S811    32.0600     0.000    A    3.55000E-01   1.04600E+00
  opls_824  H824     1.0080     0.000    A    2.50000E-01   1.25520E-01
  opls_805  C805    12.0110     0.000    A    3.50000E-01   2.76144E-01
  opls_833  H833     1.0080     0.000    A    2.50000E-01   1.25520E-01
  opls_834  H834     1.0080     0.000    A    2.50000E-01   1.25520E-01
  opls_828  H828     1.0080     0.000    A    2.50000E-01   1.25520E-01
  opls_832  H832     1.0080     0.000    A    2.50000E-01   1.25520E-01
  opls_802  C802    12.0110     0.000    A    3.50000E-01   2.76144E-01
  opls_815  H815     1.0080     0.000    A    2.50000E-01   1.25520E-01
  opls_801  C801    12.0110     0.000    A    3.50000E-01   2.76144E-01
  opls_822  H822     1.0080     0.000    A    2.50000E-01   1.25520E-01
  opls_803  C803    12.0110     0.000    A    3.50000E-01   2.76144E-01
  opls_825  H825     1.0080     0.000    A    2.50000E-01   1.25520E-01
  opls_830  H830     1.0080     0.000    A    2.50000E-01   1.25520E-01
  opls_809  O809    15.9990     0.000    A    2.96000E-01   8.78640E-01
  opls_821  H821     1.0080     0.000    A    2.50000E-01   1.25520E-01
  opls_820  H820     1.0080     0.000    A    2.50000E-01   1.25520E-01
  opls_829  H829     1.0080     0.000    A    2.50000E-01   1.25520E-01
  opls_831  H831     1.0080     0.000    A    2.50000E-01   1.25520E-01
  opls_816  H816     1.0080     0.000    A    2.50000E-01   1.25520E-01
  opls_800  C800    12.0110     0.000    A    3.50000E-01   2.76144E-01
  opls_806  C806    12.0110     0.000    A    3.50000E-01   2.76144E-01
  opls_823  H823     1.0080     0.000    A    2.50000E-01   1.25520E-01
  opls_826  H826     1.0080     0.000    A    2.50000E-01   1.25520E-01
  opls_813  O813    15.9990     0.000    A    2.96000E-01   7.11280E-01
  opls_819  H819     1.0080     0.000    A    2.50000E-01   1.25520E-01
  opls_810  C810    12.0110     0.000    A    3.50000E-01   2.76144E-01
  opls_827  H827     1.0080     0.000    A    2.50000E-01   1.25520E-01
  opls_812  C812    12.0110     0.000    A    3.50000E-01   2.76144E-01
  opls_817  H817     1.0080     0.000    A    2.50000E-01   1.25520E-01
  opls_804  O804    15.9990     0.000    A    2.90000E-01   5.85760E-01
  opls_814  O814    15.9990     0.000    A    2.96000E-01   7.11280E-01
  opls_808  C808    12.0110     0.000    A    3.55000E-01   2.92880E-01
  opls_807  C807    12.0110     0.000    A    3.50000E-01   2.76144E-01
[ moleculetype ]
; Name               nrexcl
UNK                   3
[ atoms ]
;   nr       type  resnr residue  atom   cgnr     charge       mass  
     1   opls_800      1    UNK   C00      1     -0.237    12.0110 
     2   opls_801      1    UNK   C01      1    -0.1765    12.0110 
     3   opls_802      1    UNK   C02      1    -0.1835    12.0110 
     4   opls_803      1    UNK   C03      1     0.0066    12.0110 
     5   opls_804      1    UNK   O04      1    -0.3865    15.9990 
     6   opls_805      1    UNK   C05      1     0.0068    12.0110 
     7   opls_806      1    UNK   C06      1    -0.1837    12.0110 
     8   opls_807      1    UNK   C07      1    -0.1421    12.0110 
     9   opls_808      1    UNK   C08      1      0.323    12.0110 
    10   opls_809      1    UNK   O09      1    -0.4458    15.9990 
    11   opls_810      1    UNK   C0A      1    -0.5015    12.0110 
    12   opls_811      1    UNK   S0B      1     1.2997    32.0600 
    13   opls_812      1    UNK   C0C      1     -0.583    12.0110 
    14   opls_813      1    UNK   O0D      1     -0.566    15.9990 
    15   opls_814      1    UNK   O0E      1     -0.566    15.9990 
    16   opls_815      1    UNK   H0F      1     0.0842     1.0080 
    17   opls_816      1    UNK   H0G      1     0.0842     1.0080 
    18   opls_817      1    UNK   H0H      1     0.0842     1.0080 
    19   opls_818      1    UNK   H0I      1     0.0879     1.0080 
    20   opls_819      1    UNK   H0J      1     0.0879     1.0080 
    21   opls_820      1    UNK   H0K      1     0.1069     1.0080 
    22   opls_821      1    UNK   H0M      1     0.1069     1.0080 
    23   opls_822      1    UNK   H0N      1     0.0761     1.0080 
    24   opls_823      1    UNK   H0O      1     0.0761     1.0080 
    25   opls_824      1    UNK   H0P      1     0.0811     1.0080 
    26   opls_825      1    UNK   H0Q      1     0.0811     1.0080 
    27   opls_826      1    UNK   H0R      1     0.1258     1.0080 
    28   opls_827      1    UNK   H0S      1     0.1258     1.0080 
    29   opls_828      1    UNK   H0T      1     0.1644     1.0080 
    30   opls_829      1    UNK   H0U      1     0.1239     1.0080 
    31   opls_830      1    UNK   H0V      1     0.1687     1.0080 
    32   opls_831      1    UNK   H0W      1     0.1687     1.0080 
    33   opls_832      1    UNK   H0X      2     0.1671     1.0080 
    34   opls_833      1    UNK   H0Y      2     0.1671     1.0080 
    35   opls_834      1    UNK   H0Z      2     0.1671     1.0080 
[ bonds ]
    2     1     1      0.1529 224262.400
    3     2     1      0.1529 224262.400
    4     3     1      0.1529 224262.400
    5     4     1      0.1410 267776.000
    6     5     1      0.1410 267776.000
    7     6     1      0.1529 224262.400
    8     7     1      0.1529 224262.400
    9     8     1      0.1522 265265.600
   10     9     1      0.1229 476976.000
   11     8     1      0.1529 224262.400
   12    11     1      0.1770 284512.000
   13    12     1      0.1770 284512.000
   14    12     1      0.1440 585760.000
   15    12     1      0.1440 585760.000
   16     1     1      0.1090 284512.000
   17     1     1      0.1090 284512.000
   18     1     1      0.1090 284512.000
   19     2     1      0.1090 284512.000
   20     2     1      0.1090 284512.000
   21     3     1      0.1090 284512.000
   22     3     1      0.1090 284512.000
   23     4     1      0.1090 284512.000
   24     4     1      0.1090 284512.000
   25     6     1      0.1090 284512.000
   26     6     1      0.1090 284512.000
   27     7     1      0.1090 284512.000
   28     7     1      0.1090 284512.000
   29     8     1      0.1090 284512.000
   30     9     1      0.1090 284512.000
   31    11     1      0.1090 284512.000
   32    11     1      0.1090 284512.000
   33    13     1      0.1090 284512.000
   34    13     1      0.1090 284512.000
   35    13     1      0.1090 284512.000

[ angles ]
;  ai    aj    ak funct            c0            c1            c2            c3 
    1     2     3     1    112.700    488.273
    2     3     4     1    112.700    488.273
    3     4     5     1    109.500    418.400
    4     5     6     1    109.500    502.080
    5     6     7     1    109.500    418.400
    6     7     8     1    112.700    488.273
    7     8     9     1    111.100    527.184
    8     9    10     1    120.400    669.440
    7     8    11     1    112.700    488.273
    8    11    12     1    108.600    418.400
   11    12    13     1    102.000    518.816
   11    12    14     1    108.900    619.232
   11    12    15     1    108.900    619.232
    2     1    16     1    110.700    313.800
    2     1    17     1    110.700    313.800
    2     1    18     1    110.700    313.800
    1     2    19     1    110.700    313.800
    1     2    20     1    110.700    313.800
    2     3    21     1    110.700    313.800
    2     3    22     1    110.700    313.800
    3     4    23     1    110.700    313.800
    3     4    24     1    110.700    313.800
    5     6    25     1    109.500    292.880
    5     6    26     1    109.500    292.880
    6     7    27     1    110.700    313.800
    6     7    28     1    110.700    313.800
    7     8    29     1    110.700    313.800
    8     9    30     1    115.000    292.880
    8    11    31     1    110.700    313.800
    8    11    32     1    110.700    313.800
   12    13    33     1    109.500    292.880
   12    13    34     1    109.500    292.880
   12    13    35     1    109.500    292.880
   12    11    31     1    109.500    292.880
    3     2    20     1    110.700    313.800
   13    12    14     1    108.900    619.232
   23     4    24     1    107.800    276.144
   25     6    26     1    107.800    276.144
   16     1    18     1    107.800    276.144
   33    13    34     1    107.800    276.144
    5     4    24     1    109.500    292.880
   10     9    30     1    123.000    292.880
   33    13    35     1    107.800    276.144
    7     6    25     1    110.700    313.800
    4     3    22     1    110.700    313.800
   34    13    35     1    107.800    276.144
    8     7    27     1    110.700    313.800
   12    11    32     1    109.500    292.880
   31    11    32     1    107.800    276.144
    9     8    29     1    109.500    292.880
   21     3    22     1    107.800    276.144
   14    12    15     1    119.000    870.272
    5     4    23     1    109.500    292.880
    7     6    26     1    110.700    313.800
    8     7    28     1    110.700    313.800
    3     2    19     1    110.700    313.800
   16     1    17     1    107.800    276.144
   27     7    28     1    107.800    276.144
    4     3    21     1    110.700    313.800
   13    12    15     1    108.900    619.232
    9     8    11     1    111.100    527.184
   17     1    18     1    107.800    276.144
   19     2    20     1    107.800    276.144
   11     8    29     1    110.700    313.800

[ dihedrals ]
; IMPROPER DIHEDRAL ANGLES 
;  ai    aj    ak    al funct            c0            c1            c2            c3            c4            c5
    30     9     8    10    4        180.000     43.932     2  

[ dihedrals ]
; PROPER DIHEDRAL ANGLES
;  ai    aj    ak    al funct            c0            c1            c2            c3            c4            c5
    9    8    7    6        3      -4.960   6.286   1.310  -2.636  -0.000   0.000
   11    8    9   10        3       0.000   0.000   0.000  -0.000  -0.000   0.000
    4    3    2    1        3       2.301  -1.464   0.837  -1.674  -0.000   0.000
   11    8    7    6        3       2.301  -1.464   0.837  -1.674  -0.000   0.000
    8    7    6    5        3       2.874   0.582   2.092  -5.548  -0.000   0.000
    7    6    5    4        3       1.715   2.845   1.046  -5.607  -0.000   0.000
    6    5    4    3        3       1.715   2.845   1.046  -5.607  -0.000   0.000
   13   12   11    8        3       0.000   0.000   0.000  -0.000  -0.000   0.000
   30    9    8    7        3       0.000   0.000   0.000  -0.000  -0.000   0.000
   30    9    8   11        3       0.000   0.000   0.000  -0.000  -0.000   0.000
   30    9    8   29        3       0.753   2.259   0.000  -3.012  -0.000   0.000
   29    8    9   10        3       0.000   0.000   0.000  -0.000  -0.000   0.000
   27    7    8    9        3      -0.209  -0.628   0.000   0.837  -0.000   0.000
   32   11    8    9        3      -0.209  -0.628   0.000   0.837  -0.000   0.000
   28    7    8    9        3      -0.209  -0.628   0.000   0.837  -0.000   0.000
   31   11    8    9        3      -0.209  -0.628   0.000   0.837  -0.000   0.000
   23    4    3    2        3       0.628   1.883   0.000  -2.510  -0.000   0.000
   32   11    8    7        3       0.628   1.883   0.000  -2.510  -0.000   0.000
   28    7    8   11        3       0.628   1.883   0.000  -2.510  -0.000   0.000
   19    2    3    4        3       0.628   1.883   0.000  -2.510  -0.000   0.000
   25    6    7    8        3       0.628   1.883   0.000  -2.510  -0.000   0.000
   22    3    2    1        3       0.628   1.883   0.000  -2.510  -0.000   0.000
   20    2    3    4        3       0.628   1.883   0.000  -2.510  -0.000   0.000
   24    4    3    2        3       0.628   1.883   0.000  -2.510  -0.000   0.000
   21    3    2    1        3       0.628   1.883   0.000  -2.510  -0.000   0.000
   18    1    2    3        3       0.628   1.883   0.000  -2.510  -0.000   0.000
   27    7    8   11        3       0.628   1.883   0.000  -2.510  -0.000   0.000
   29    8    7    6        3       0.628   1.883   0.000  -2.510  -0.000   0.000
   31   11    8    7        3       0.628   1.883   0.000  -2.510  -0.000   0.000
   26    6    7    8        3       0.628   1.883   0.000  -2.510  -0.000   0.000
   16    1    2    3        3       0.628   1.883   0.000  -2.510  -0.000   0.000
   17    1    2    3        3       0.628   1.883   0.000  -2.510  -0.000   0.000
   22    3    2   19        3       0.628   1.883   0.000  -2.510  -0.000   0.000
   24    4    3   22        3       0.628   1.883   0.000  -2.510  -0.000   0.000
   32   11    8   29        3       0.628   1.883   0.000  -2.510  -0.000   0.000
   19    2    1   17        3       0.628   1.883   0.000  -2.510  -0.000   0.000
   21    3    2   20        3       0.628   1.883   0.000  -2.510  -0.000   0.000
   19    2    1   18        3       0.628   1.883   0.000  -2.510  -0.000   0.000
   22    3    2   20        3       0.628   1.883   0.000  -2.510  -0.000   0.000
   21    3    2   19        3       0.628   1.883   0.000  -2.510  -0.000   0.000
   31   11    8   29        3       0.628   1.883   0.000  -2.510  -0.000   0.000
   29    8    7   28        3       0.628   1.883   0.000  -2.510  -0.000   0.000
   23    4    3   22        3       0.628   1.883   0.000  -2.510  -0.000   0.000
   27    7    6   25        3       0.628   1.883   0.000  -2.510  -0.000   0.000
   29    8    7   27        3       0.628   1.883   0.000  -2.510  -0.000   0.000
   20    2    1   16        3       0.628   1.883   0.000  -2.510  -0.000   0.000
   20    2    1   18        3       0.628   1.883   0.000  -2.510  -0.000   0.000
   23    4    3   21        3       0.628   1.883   0.000  -2.510  -0.000   0.000
   24    4    3   21        3       0.628   1.883   0.000  -2.510  -0.000   0.000
   27    7    6   26        3       0.628   1.883   0.000  -2.510  -0.000   0.000
   19    2    1   16        3       0.628   1.883   0.000  -2.510  -0.000   0.000
   28    7    6   25        3       0.628   1.883   0.000  -2.510  -0.000   0.000
   28    7    6   26        3       0.628   1.883   0.000  -2.510  -0.000   0.000
   20    2    1   17        3       0.628   1.883   0.000  -2.510  -0.000   0.000
   22    3    4    5        3       0.979   2.937   0.000  -3.916  -0.000   0.000
   21    3    4    5        3       0.979   2.937   0.000  -3.916  -0.000   0.000
   27    7    6    5        3       0.979   2.937   0.000  -3.916  -0.000   0.000
   28    7    6    5        3       0.979   2.937   0.000  -3.916  -0.000   0.000
   29    8   11   12        3       0.946   2.837   0.000  -3.782  -0.000   0.000
   24    4    5    6        3       1.590   4.770   0.000  -6.360  -0.000   0.000
   26    6    5    4        3       1.590   4.770   0.000  -6.360  -0.000   0.000
   25    6    5    4        3       1.590   4.770   0.000  -6.360  -0.000   0.000
   23    4    5    6        3       1.590   4.770   0.000  -6.360  -0.000   0.000
   35   13   12   11        3       0.732   2.197   0.000  -2.929  -0.000   0.000
   34   13   12   11        3       0.732   2.197   0.000  -2.929  -0.000   0.000
   33   13   12   11        3       0.732   2.197   0.000  -2.929  -0.000   0.000
   32   11   12   13        3       0.732   2.197   0.000  -2.929  -0.000   0.000
   31   11   12   13        3       0.732   2.197   0.000  -2.929  -0.000   0.000
   32   11   12   15        3       0.732   2.197   0.000  -2.929  -0.000   0.000
   31   11   12   15        3       0.732   2.197   0.000  -2.929  -0.000   0.000
   33   13   12   15        3       0.732   2.197   0.000  -2.929  -0.000   0.000
   35   13   12   14        3       0.732   2.197   0.000  -2.929  -0.000   0.000
   35   13   12   15        3       0.732   2.197   0.000  -2.929  -0.000   0.000
   33   13   12   14        3       0.732   2.197   0.000  -2.929  -0.000   0.000
   34   13   12   14        3       0.732   2.197   0.000  -2.929  -0.000   0.000
   32   11   12   14        3       0.732   2.197   0.000  -2.929  -0.000   0.000
   34   13   12   15        3       0.732   2.197   0.000  -2.929  -0.000   0.000
   31   11   12   14        3       0.732   2.197   0.000  -2.929  -0.000   0.000
   10    9    8    7        3       0.000   0.000   0.000  -0.000  -0.000   0.000
    5    4    3    2        3       2.874   0.582   2.092  -5.548  -0.000   0.000
   14   12   11    8        3       0.000   0.000   0.000  -0.000  -0.000   0.000
   15   12   11    8        3       0.000   0.000   0.000  -0.000  -0.000   0.000
   12   11    8    9        3      -16.259   9.088   7.171  -0.000  -0.000   0.000
   12   11    8    7        3       2.784   0.278   0.828  -3.891  -0.000   0.000

[ pairs ]
     1     4    1
     2     5    1
     3     6    1
     4     7    1
     5     8    1
     6     9    1
     7    10    1
     6    11    1
     7    12    1
     3    16    1
     3    17    1
    10    11    1
     9    12    1
     8    13    1
     3    18    1
     8    14    1
     1    21    1
     8    15    1
     4    19    1
     1    22    1
     4    20    1
     2    23    1
     5    21    1
     2    24    1
     5    22    1
     6    23    1
     4    25    1
     6    24    1
     4    26    1
     5    27    1
     8    25    1
     5    28    1
     8    26    1
    16    19    1
     6    29    1
    17    19    1
    16    20    1
     9    27    1
    18    19    1
    17    20    1
     9    28    1
     7    30    1
    18    20    1
    11    27    1
     7    31    1
    11    28    1
    10    29    1
     7    32    1
    19    21    1
     9    31    1
    20    21    1
    19    22    1
    12    29    1
    11    30    1
     9    32    1
    20    22    1
    21    23    1
    13    31    1
    11    33    1
    22    23    1
    21    24    1
    14    31    1
    13    32    1
    11    34    1
    22    24    1
    15    31    1
    14    32    1
    11    35    1
    15    32    1
    14    33    1
    15    33    1
    14    34    1
    15    34    1
    14    35    1
    15    35    1
    25    27    1
    26    27    1
    25    28    1
    26    28    1
    27    29    1
    28    29    1
    29    30    1
    29    31    1
    29    32    1

