LIGPARGEN GENERATED GRO FILE
   27
    1UNK    C00    1   0.100   0.100   0.000
    1UNK    C01    2  -0.053   0.100   0.000
    1UNK    C02    3  -0.124   0.100   0.139
    1UNK    C03    4  -0.078   0.219   0.228
    1UNK    C04    5  -0.097   0.358   0.169
    1UNK    C05    6  -0.277   0.113   0.106
    1UNK    Cl0    7  -0.384   0.116   0.249
    1UNK    C07    8  -0.103  -0.037   0.206
    1UNK    C08    9   0.029  -0.085   0.261
    1UNK    C09   10  -0.084  -0.055   0.355
    1UNK    H0A   11   0.136   0.105  -0.103
    1UNK    H0B   12   0.141   0.008   0.043
    1UNK    H0C   13   0.141   0.186   0.053
    1UNK    H0D   14  -0.085   0.012  -0.058
    1UNK    H0E   15  -0.085   0.188  -0.058
    1UNK    H0F   16   0.028   0.207   0.254
    1UNK    H0G   17  -0.131   0.217   0.324
    1UNK    H0H   18  -0.035   0.374   0.081
    1UNK    H0I   19  -0.068   0.434   0.243
    1UNK    H0J   20  -0.201   0.378   0.143
    1UNK    H0K   21  -0.310   0.028   0.044
    1UNK    H0M   22  -0.298   0.204   0.048
    1UNK    H0N   23  -0.162  -0.114   0.156
    1UNK    H0O   24   0.115  -0.018   0.264
    1UNK    H0P   25   0.056  -0.189   0.245
    1UNK    H0Q   26  -0.070   0.030   0.421
    1UNK    H0R   27  -0.133  -0.139   0.403
   1.00000   1.00000   1.00000

