
;
; GENERATED BY LigParGen Server
; Jorgensen Lab @ Yale University 
;
[ atomtypes ]
  opls_818  H818     1.0080     0.000    A    2.50000E-01   1.25520E-01
  opls_824  H824     1.0080     0.000    A    2.50000E-01   1.25520E-01
  opls_805  C805    12.0110     0.000    A    3.50000E-01   2.76144E-01
  opls_813  H813     1.0080     0.000    A    2.50000E-01   1.25520E-01
  opls_807  C807    12.0110     0.000    A    3.45000E-01   3.47272E-01
  opls_802  C802    12.0110     0.000    A    3.50000E-01   2.76144E-01
  opls_815  H815     1.0080     0.000    A    2.50000E-01   1.25520E-01
  opls_801  C801    12.0110     0.000    A    3.50000E-01   2.76144E-01
  opls_822  H822     1.0080     0.000    A    2.50000E-01   1.25520E-01
  opls_803  C803    12.0110     0.000    A    3.50000E-01   2.76144E-01
  opls_808  C808    12.0110     0.000    A    3.45000E-01   3.47272E-01
  opls_825  H825     1.0080     0.000    A    2.50000E-01   1.25520E-01
  opls_814  H814     1.0080     0.000    A    2.50000E-01   1.25520E-01
  opls_821  H821     1.0080     0.000    A    2.50000E-01   1.25520E-01
  opls_820  H820     1.0080     0.000    A    2.50000E-01   1.25520E-01
  opls_811  H811     1.0080     0.000    A    2.50000E-01   1.25520E-01
  opls_810  H810     1.0080     0.000    A    2.50000E-01   1.25520E-01
  opls_816  H816     1.0080     0.000    A    2.50000E-01   1.25520E-01
  opls_800  C800    12.0110     0.000    A    3.50000E-01   2.76144E-01
  opls_823  H823     1.0080     0.000    A    2.50000E-01   1.25520E-01
  opls_826  H826     1.0080     0.000    A    2.50000E-01   1.25520E-01
  opls_819  H819     1.0080     0.000    A    2.50000E-01   1.25520E-01
  opls_804  C804    12.0110     0.000    A    3.50000E-01   2.76144E-01
  opls_817  H817     1.0080     0.000    A    2.50000E-01   1.25520E-01
  opls_809  C809    12.0110     0.000    A    3.45000E-01   3.47272E-01
  opls_812  H812     1.0080     0.000    A    2.50000E-01   1.25520E-01
  opls_806 Cl806    35.4500     0.000    A    3.40000E-01   1.25520E+00
[ moleculetype ]
; Name               nrexcl
UNK                   3
[ atoms ]
;   nr       type  resnr residue  atom   cgnr     charge       mass  
     1   opls_800      1    UNK   C00      1    -0.2349    12.0110 
     2   opls_801      1    UNK   C01      1    -0.1679    12.0110 
     3   opls_802      1    UNK   C02      1    -0.0057    12.0110 
     4   opls_803      1    UNK   C03      1    -0.1684    12.0110 
     5   opls_804      1    UNK   C04      1    -0.2378    12.0110 
     6   opls_805      1    UNK   C05      1     0.0221    12.0110 
     7   opls_806      1    UNK   Cl0      1    -0.2883    35.4500 
     8   opls_807      1    UNK   C07      1    -0.1715    12.0110 
     9   opls_808      1    UNK   C08      1     -0.245    12.0110 
    10   opls_809      1    UNK   C09      1    -0.2289    12.0110 
    11   opls_810      1    UNK   H0A      1      0.084     1.0080 
    12   opls_811      1    UNK   H0B      1      0.084     1.0080 
    13   opls_812      1    UNK   H0C      1      0.084     1.0080 
    14   opls_813      1    UNK   H0D      1     0.0867     1.0080 
    15   opls_814      1    UNK   H0E      1     0.0867     1.0080 
    16   opls_815      1    UNK   H0F      1     0.0979     1.0080 
    17   opls_816      1    UNK   H0G      1     0.0979     1.0080 
    18   opls_817      1    UNK   H0H      1     0.0826     1.0080 
    19   opls_818      1    UNK   H0I      1     0.0826     1.0080 
    20   opls_819      1    UNK   H0J      1     0.0826     1.0080 
    21   opls_820      1    UNK   H0K      1     0.1134     1.0080 
    22   opls_821      1    UNK   H0M      1     0.1134     1.0080 
    23   opls_822      1    UNK   H0N      1     0.1312     1.0080 
    24   opls_823      1    UNK   H0O      1     0.1233     1.0080 
    25   opls_824      1    UNK   H0P      1     0.1233     1.0080 
    26   opls_825      1    UNK   H0Q      1     0.1263     1.0080 
    27   opls_826      1    UNK   H0R      1     0.1263     1.0080 
[ bonds ]
    2     1     1      0.1529 224262.400
    3     2     1      0.1529 224262.400
    4     3     1      0.1529 224262.400
    5     4     1      0.1529 224262.400
    6     3     1      0.1529 224262.400
    7     6     1      0.1781 205016.000
    8     3     1      0.1510 234304.000
    9     8     1      0.1520 217568.000
   10     8     1      0.1520 217568.000
   11     1     1      0.1090 284512.000
   12     1     1      0.1090 284512.000
   13     1     1      0.1090 284512.000
   14     2     1      0.1090 284512.000
   15     2     1      0.1090 284512.000
   16     4     1      0.1090 284512.000
   17     4     1      0.1090 284512.000
   18     5     1      0.1090 284512.000
   19     5     1      0.1090 284512.000
   20     5     1      0.1090 284512.000
   21     6     1      0.1090 284512.000
   22     6     1      0.1090 284512.000
   23     8     1      0.1088 284512.000
   24     9     1      0.1088 284512.000
   25     9     1      0.1088 284512.000
   26    10     1      0.1088 284512.000
   27    10     1      0.1088 284512.000
   10     9     1      0.1520 217568.000

[ angles ]
;  ai    aj    ak funct            c0            c1            c2            c3 
    1     2     3     1    112.700    488.273
    2     3     4     1    112.700    488.273
    3     4     5     1    112.700    488.273
    2     3     6     1    112.700    488.273
    3     6     7     1    109.800    577.392
    2     3     8     1    112.700    488.273
    3     8     9     1    117.200    313.800
    3     8    10     1    117.200    313.800
    2     1    11     1    110.700    313.800
    2     1    12     1    110.700    313.800
    2     1    13     1    110.700    313.800
    1     2    14     1    110.700    313.800
    1     2    15     1    110.700    313.800
    3     4    16     1    110.700    313.800
    3     4    17     1    110.700    313.800
    4     5    18     1    110.700    313.800
    4     5    19     1    110.700    313.800
    4     5    20     1    110.700    313.800
    3     6    21     1    110.700    313.800
    3     6    22     1    110.700    313.800
    3     8    23     1    114.300    292.880
    8     9    24     1    117.200    313.800
    8     9    25     1    117.200    313.800
    8    10    26     1    117.200    313.800
    8    10    27     1    117.200    313.800
   26    10    27     1    114.300    292.880
   21     6    22     1    107.800    276.144
    3     2    14     1    110.700    313.800
    8    10     9     1     83.000    251.040
    6     3     8     1    112.700    488.273
   11     1    13     1    107.800    276.144
   10     8    23     1    117.200    313.800
    7     6    22     1    107.600    426.768
    3     2    15     1    110.700    313.800
   18     5    20     1    107.800    276.144
    9     8    10     1     83.000    251.040
    5     4    16     1    110.700    313.800
   24     9    25     1    114.300    292.880
   19     5    20     1    107.800    276.144
   11     1    12     1    107.800    276.144
   12     1    13     1    107.800    276.144
   14     2    15     1    107.800    276.144
   16     4    17     1    107.800    276.144
   10     9    25     1    117.200    313.800
    4     3     6     1    112.700    488.273
    9     8    23     1    117.200    313.800
   18     5    19     1    107.800    276.144
   10     9    24     1    117.200    313.800
    9    10    27     1    117.200    313.800
    8     9    10     1     83.000    251.040
    4     3     8     1    112.700    488.273
    7     6    21     1    107.600    426.768
    9    10    26     1    117.200    313.800
    5     4    17     1    110.700    313.800

[ dihedrals ]
; IMPROPER DIHEDRAL ANGLES 
;  ai    aj    ak    al funct            c0            c1            c2            c3            c4            c5

[ dihedrals ]
; PROPER DIHEDRAL ANGLES
;  ai    aj    ak    al funct            c0            c1            c2            c3            c4            c5
    4    3    2    1        3       2.301  -1.464   0.837  -1.674  -0.000   0.000
    6    3    4    5        3       2.301  -1.464   0.837  -1.674  -0.000   0.000
    6    3    2    1        3       2.301  -1.464   0.837  -1.674  -0.000   0.000
    5    4    3    2        3       2.301  -1.464   0.837  -1.674  -0.000   0.000
    8    3    4    5        3       2.301  -1.464   0.837  -1.674  -0.000   0.000
    8    3    2    1        3       2.301  -1.464   0.837  -1.674  -0.000   0.000
    8    3    6    7        3       0.837   2.510   0.000  -3.347  -0.000   0.000
    9    8    3    6        3       0.000   0.000   0.000  -0.000  -0.000   0.000
    9    8    3    2        3       0.000   0.000   0.000  -0.000  -0.000   0.000
   10    8    3    6        3       0.000   0.000   0.000  -0.000  -0.000   0.000
   10    8    3    4        3       0.000   0.000   0.000  -0.000  -0.000   0.000
    9    8    3    4        3       0.000   0.000   0.000  -0.000  -0.000   0.000
   10    8    3    2        3       0.000   0.000   0.000  -0.000  -0.000   0.000
   10    8    3    9        3       0.000   0.000   0.000  -0.000  -0.000   0.000
    7    6    3    2        3       0.837   2.510   0.000  -3.347  -0.000   0.000
    7    6    3    4        3       0.837   2.510   0.000  -3.347  -0.000   0.000
   22    6    3    4        3       0.628   1.883   0.000  -2.510  -0.000   0.000
   13    1    2    3        3       0.628   1.883   0.000  -2.510  -0.000   0.000
   20    5    4    3        3       0.628   1.883   0.000  -2.510  -0.000   0.000
   17    4    3    6        3       0.628   1.883   0.000  -2.510  -0.000   0.000
   14    2    3    4        3       0.628   1.883   0.000  -2.510  -0.000   0.000
   16    4    3    2        3       0.628   1.883   0.000  -2.510  -0.000   0.000
   12    1    2    3        3       0.628   1.883   0.000  -2.510  -0.000   0.000
   19    5    4    3        3       0.628   1.883   0.000  -2.510  -0.000   0.000
   22    6    3    2        3       0.628   1.883   0.000  -2.510  -0.000   0.000
   14    2    3    6        3       0.628   1.883   0.000  -2.510  -0.000   0.000
   15    2    3    4        3       0.628   1.883   0.000  -2.510  -0.000   0.000
   17    4    3    2        3       0.628   1.883   0.000  -2.510  -0.000   0.000
   11    1    2    3        3       0.628   1.883   0.000  -2.510  -0.000   0.000
   18    5    4    3        3       0.628   1.883   0.000  -2.510  -0.000   0.000
   15    2    3    6        3       0.628   1.883   0.000  -2.510  -0.000   0.000
   21    6    3    2        3       0.628   1.883   0.000  -2.510  -0.000   0.000
   21    6    3    4        3       0.628   1.883   0.000  -2.510  -0.000   0.000
   16    4    3    6        3       0.628   1.883   0.000  -2.510  -0.000   0.000
   14    2    3    8        3       0.628   1.883   0.000  -2.510  -0.000   0.000
   21    6    3    8        3       0.628   1.883   0.000  -2.510  -0.000   0.000
   15    2    3    8        3       0.628   1.883   0.000  -2.510  -0.000   0.000
   17    4    3    8        3       0.628   1.883   0.000  -2.510  -0.000   0.000
   22    6    3    8        3       0.628   1.883   0.000  -2.510  -0.000   0.000
   16    4    3    8        3       0.628   1.883   0.000  -2.510  -0.000   0.000
   20    5    4   17        3       0.628   1.883   0.000  -2.510  -0.000   0.000
   18    5    4   16        3       0.628   1.883   0.000  -2.510  -0.000   0.000
   15    2    1   11        3       0.628   1.883   0.000  -2.510  -0.000   0.000
   14    2    1   12        3       0.628   1.883   0.000  -2.510  -0.000   0.000
   18    5    4   17        3       0.628   1.883   0.000  -2.510  -0.000   0.000
   15    2    1   13        3       0.628   1.883   0.000  -2.510  -0.000   0.000
   19    5    4   16        3       0.628   1.883   0.000  -2.510  -0.000   0.000
   14    2    1   11        3       0.628   1.883   0.000  -2.510  -0.000   0.000
   19    5    4   17        3       0.628   1.883   0.000  -2.510  -0.000   0.000
   20    5    4   16        3       0.628   1.883   0.000  -2.510  -0.000   0.000
   14    2    1   13        3       0.628   1.883   0.000  -2.510  -0.000   0.000
   15    2    1   12        3       0.628   1.883   0.000  -2.510  -0.000   0.000
   23    8    3    2        3       0.628   1.883   0.000  -2.510  -0.000   0.000
   23    8    3    6        3       0.628   1.883   0.000  -2.510  -0.000   0.000
   23    8    3    4        3       0.628   1.883   0.000  -2.510  -0.000   0.000
   24    9    8    3        3       0.000   0.000   0.000  -0.000  -0.000   0.000
   27   10    8    3        3       0.000   0.000   0.000  -0.000  -0.000   0.000
   26   10    8    3        3       0.000   0.000   0.000  -0.000  -0.000   0.000
   25    9    8    3        3       0.000   0.000   0.000  -0.000  -0.000   0.000
   24    9    8   10        3       0.000   0.000   0.000  -0.000  -0.000   0.000
   25    9    8   10        3       0.000   0.000   0.000  -0.000  -0.000   0.000
   26   10    8    9        3       0.000   0.000   0.000  -0.000  -0.000   0.000
   26   10    9    8        3       0.000   0.000   0.000  -0.000  -0.000   0.000
   27   10    8    9        3       0.000   0.000   0.000  -0.000  -0.000   0.000
   25    9   10    8        3       0.000   0.000   0.000  -0.000  -0.000   0.000
   24    9   10    8        3       0.000   0.000   0.000  -0.000  -0.000   0.000
   23    8    9   10        3       0.000   0.000   0.000  -0.000  -0.000   0.000
   23    8   10    9        3       0.000   0.000   0.000  -0.000  -0.000   0.000
   27   10    9    8        3       0.000   0.000   0.000  -0.000  -0.000   0.000
   27   10    8   23        3       0.000   0.000   0.000  -0.000  -0.000   0.000
   26   10    8   23        3       0.000   0.000   0.000  -0.000  -0.000   0.000
   27   10    9   25        3       0.000   0.000   0.000  -0.000  -0.000   0.000
   24    9    8   23        3       0.000   0.000   0.000  -0.000  -0.000   0.000
   26   10    9   25        3       0.000   0.000   0.000  -0.000  -0.000   0.000
   25    9    8   23        3       0.000   0.000   0.000  -0.000  -0.000   0.000
   27   10    9   24        3       0.000   0.000   0.000  -0.000  -0.000   0.000
   26   10    9   24        3       0.000   0.000   0.000  -0.000  -0.000   0.000

[ pairs ]
     1     4    1
     2     5    1
     1     6    1
     2     7    1
     1     8    1
     5     6    1
     4     7    1
     2     9    1
     2    10    1
     5     8    1
     4     9    1
     4    10    1
     3    11    1
     7     8    1
     6     9    1
     3    12    1
     6    10    1
     3    13    1
     4    14    1
     2    16    1
     4    15    1
     2    17    1
     6    14    1
     6    15    1
     3    18    1
     8    14    1
     6    16    1
     3    19    1
     8    15    1
     6    17    1
     3    20    1
     2    21    1
     8    16    1
     2    22    1
    11    14    1
     8    17    1
     4    21    1
     2    23    1
    12    14    1
    11    15    1
     4    22    1
    13    14    1
    12    15    1
     4    23    1
     3    24    1
    13    15    1
     3    25    1
     8    21    1
     6    23    1
     3    26    1
     8    22    1
     3    27    1
    16    18    1
    17    18    1
    16    19    1
    17    19    1
    16    20    1
    17    20    1
    23    24    1
    23    25    1
    23    26    1
    24    26    1
    23    27    1
    25    26    1
    24    27    1
    25    27    1

