LIGPARGEN GENERATED GRO FILE
   44
    1UNK    C00    1   0.100   0.100   0.000
    1UNK    O01    2  -0.043   0.100   0.000
    1UNK    C02    3  -0.098   0.100   0.124
    1UNK    O03    4  -0.035   0.100   0.230
    1UNK    C04    5  -0.249   0.100   0.114
    1UNK    C05    6  -0.303  -0.027   0.180
    1UNK    C06    7  -0.308   0.224   0.183
    1UNK    C07    8  -0.263   0.361   0.127
    1UNK    C08    9  -0.302   0.377  -0.020
    1UNK    C09   10  -0.324   0.477   0.210
    1UNK    C0A   11  -0.273   0.477   0.355
    1UNK    C0B   12  -0.328   0.588   0.447
    1UNK    C0C   13  -0.482   0.582   0.453
    1UNK    C0D   14  -0.266   0.576   0.590
    1UNK    C0E   15  -0.113   0.587   0.588
    1UNK    C0F   16  -0.321   0.679   0.689
    1UNK    H0G   17   0.134   0.093  -0.104
    1UNK    H0H   18   0.139   0.013   0.054
    1UNK    H0I   19   0.138   0.193   0.043
    1UNK    H0J   20  -0.278   0.098   0.008
    1UNK    H0K   21  -0.298  -0.021   0.289
    1UNK    H0M   22  -0.244  -0.115   0.150
    1UNK    H0N   23  -0.407  -0.044   0.151
    1UNK    H0O   24  -0.280   0.217   0.289
    1UNK    H0P   25  -0.417   0.218   0.179
    1UNK    H0Q   26  -0.154   0.369   0.133
    1UNK    H0R   27  -0.409   0.356  -0.035
    1UNK    H0S   28  -0.245   0.309  -0.084
    1UNK    H0T   29  -0.282   0.479  -0.055
    1UNK    H0U   30  -0.433   0.468   0.207
    1UNK    H0V   31  -0.297   0.573   0.164
    1UNK    H0W   32  -0.164   0.484   0.350
    1UNK    H0X   33  -0.297   0.381   0.404
    1UNK    H0Y   34  -0.300   0.686   0.405
    1UNK    H0Z   35  -0.516   0.487   0.493
    1UNK    H10   36  -0.526   0.595   0.353
    1UNK    H11   37  -0.523   0.663   0.514
    1UNK    H12   38  -0.291   0.476   0.630
    1UNK    H13   39  -0.081   0.680   0.539
    1UNK    H14   40  -0.066   0.503   0.537
    1UNK    H15   41  -0.072   0.587   0.690
    1UNK    H16   42  -0.307   0.781   0.651
    1UNK    H17   43  -0.270   0.671   0.785
    1UNK    H18   44  -0.427   0.663   0.709
   1.00000   1.00000   1.00000

