LIGPARGEN GENERATED GRO FILE
   51
    1UNK    C00    1   0.100   0.100   0.000
    1UNK    C01    2  -0.053   0.100   0.000
    1UNK    C02    3  -0.105   0.100   0.144
    1UNK    C03    4  -0.105   0.220  -0.081
    1UNK    C04    5  -0.258   0.227  -0.086
    1UNK    C05    6  -0.305   0.347  -0.168
    1UNK    C06    7  -0.459   0.355  -0.184
    1UNK    C07    8  -0.529   0.369  -0.049
    1UNK    C08    9  -0.499   0.473  -0.276
    1UNK    C09   10  -0.444   0.456  -0.418
    1UNK    C0A   11  -0.479   0.567  -0.518
    1UNK    C0B   12  -0.429   0.707  -0.475
    1UNK    C0C   13  -0.277   0.718  -0.476
    1UNK    C0D   14  -0.218   0.678  -0.612
    1UNK    C0E   15  -0.266   0.540  -0.658
    1UNK    C0F   16  -0.211   0.506  -0.796
    1UNK    C0G   17  -0.419   0.532  -0.656
    1UNK    H0H   18   0.139   0.013   0.055
    1UNK    H0I   19   0.140   0.190   0.048
    1UNK    H0J   20   0.139   0.096  -0.102
    1UNK    H0K   21  -0.087   0.007  -0.048
    1UNK    H0M   22  -0.084   0.195   0.194
    1UNK    H0N   23  -0.058   0.020   0.202
    1UNK    H0O   24  -0.213   0.083   0.147
    1UNK    H0P   25  -0.066   0.213  -0.183
    1UNK    H0Q   26  -0.066   0.313  -0.039
    1UNK    H0R   27  -0.297   0.235   0.016
    1UNK    H0S   28  -0.298   0.134  -0.130
    1UNK    H0T   29  -0.257   0.339  -0.265
    1UNK    H0U   30  -0.268   0.440  -0.122
    1UNK    H0V   31  -0.493   0.262  -0.231
    1UNK    H0W   32  -0.496   0.458   0.004
    1UNK    H0X   33  -0.511   0.282   0.015
    1UNK    H0Y   34  -0.638   0.376  -0.063
    1UNK    H0Z   35  -0.462   0.566  -0.232
    1UNK    H10   36  -0.608   0.480  -0.280
    1UNK    H11   37  -0.482   0.360  -0.457
    1UNK    H12   38  -0.336   0.446  -0.412
    1UNK    H13   39  -0.588   0.572  -0.527
    1UNK    H14   40  -0.468   0.734  -0.376
    1UNK    H15   41  -0.470   0.781  -0.545
    1UNK    H16   42  -0.234   0.654  -0.398
    1UNK    H17   43  -0.248   0.821  -0.453
    1UNK    H18   44  -0.108   0.680  -0.605
    1UNK    H19   45  -0.246   0.754  -0.686
    1UNK    H1A   46  -0.225   0.465  -0.589
    1UNK    H1B   47  -0.247   0.577  -0.872
    1UNK    H1C   48  -0.243   0.405  -0.826
    1UNK    H1D   49  -0.102   0.508  -0.796
    1UNK    H1E   50  -0.452   0.431  -0.685
    1UNK    H1F   51  -0.460   0.601  -0.731
   1.00000   1.00000   1.00000

