
;
; GENERATED BY LigParGen Server
; Jorgensen Lab @ Yale University 
;
[ atomtypes ]
  opls_818  H818     1.0080     0.000    A    2.50000E-01   1.25520E-01
  opls_824  H824     1.0080     0.000    A    2.50000E-01   1.25520E-01
  opls_805  C805    12.0110     0.000    A    3.50000E-01   2.76144E-01
  opls_813  H813     1.0080     0.000    A    2.50000E-01   1.25520E-01
  opls_801  O801    15.9990     0.000    A    2.90000E-01   5.85760E-01
  opls_803  O803    15.9990     0.000    A    2.96000E-01   8.78640E-01
  opls_806  C806    12.0110     0.000    A    3.50000E-01   2.76144E-01
  opls_815  H815     1.0080     0.000    A    2.50000E-01   1.25520E-01
  opls_822  H822     1.0080     0.000    A    2.50000E-01   1.25520E-01
  opls_807  C807    12.0110     0.000    A    3.50000E-01   2.76144E-01
  opls_814  H814     1.0080     0.000    A    2.50000E-01   1.25520E-01
  opls_810  O810    15.9990     0.000    A    2.96000E-01   8.78640E-01
  opls_821  H821     1.0080     0.000    A    2.50000E-01   1.25520E-01
  opls_820  H820     1.0080     0.000    A    2.50000E-01   1.25520E-01
  opls_809  C809    12.0110     0.000    A    3.55000E-01   2.92880E-01
  opls_816  H816     1.0080     0.000    A    2.50000E-01   1.25520E-01
  opls_800  C800    12.0110     0.000    A    3.50000E-01   2.76144E-01
  opls_823  H823     1.0080     0.000    A    2.50000E-01   1.25520E-01
  opls_802  C802    12.0110     0.000    A    3.55000E-01   2.92880E-01
  opls_811 Cl811    35.4500     0.000    A    3.40000E-01   1.25520E+00
  opls_819  H819     1.0080     0.000    A    2.50000E-01   1.25520E-01
  opls_804  C804    12.0110     0.000    A    3.50000E-01   2.76144E-01
  opls_808  C808    12.0110     0.000    A    3.50000E-01   2.76144E-01
  opls_817  H817     1.0080     0.000    A    2.50000E-01   1.25520E-01
  opls_812  H812     1.0080     0.000    A    2.50000E-01   1.25520E-01
[ moleculetype ]
; Name               nrexcl
UNK                   3
[ atoms ]
;   nr       type  resnr residue  atom   cgnr     charge       mass  
     1   opls_800      1    UNK   C00      1    -0.0573    12.0110 
     2   opls_801      1    UNK   O01      1    -0.3582    15.9990 
     3   opls_802      1    UNK   C02      1     0.4348    12.0110 
     4   opls_803      1    UNK   O03      1    -0.4454    15.9990 
     5   opls_804      1    UNK   C04      1     -0.188    12.0110 
     6   opls_805      1    UNK   C05      1    -0.1735    12.0110 
     7   opls_806      1    UNK   C06      1    -0.1062    12.0110 
     8   opls_807      1    UNK   C07      1    -0.2452    12.0110 
     9   opls_808      1    UNK   C08      1    -0.2136    12.0110 
    10   opls_809      1    UNK   C09      1     0.4211    12.0110 
    11   opls_810      1    UNK   O0A      1    -0.3925    15.9990 
    12   opls_811      1    UNK   Cl0      1    -0.1388    35.4500 
    13   opls_812      1    UNK   H0C      1     0.1028     1.0080 
    14   opls_813      1    UNK   H0D      1     0.1028     1.0080 
    15   opls_814      1    UNK   H0E      1     0.1028     1.0080 
    16   opls_815      1    UNK   H0F      1     0.1355     1.0080 
    17   opls_816      1    UNK   H0G      1     0.1355     1.0080 
    18   opls_817      1    UNK   H0H      1     0.1075     1.0080 
    19   opls_818      1    UNK   H0I      1     0.1075     1.0080 
    20   opls_819      1    UNK   H0J      1     0.1201     1.0080 
    21   opls_820      1    UNK   H0K      1     0.0908     1.0080 
    22   opls_821      1    UNK   H0M      1     0.0908     1.0080 
    23   opls_822      1    UNK   H0N      1     0.0908     1.0080 
    24   opls_823      1    UNK   H0O      1     0.1379     1.0080 
    25   opls_824      1    UNK   H0P      1     0.1379     1.0080 
[ bonds ]
    2     1     1      0.1410 267776.000
    3     2     1      0.1327 179075.200
    4     3     1      0.1229 476976.000
    5     3     1      0.1522 265265.600
    6     5     1      0.1529 224262.400
    7     6     1      0.1529 224262.400
    8     7     1      0.1529 224262.400
    9     7     1      0.1529 224262.400
   10     9     1      0.1522 265265.600
   11    10     1      0.1229 476976.000
   12    10     1      0.1790 251040.000
   13     1     1      0.1090 284512.000
   14     1     1      0.1090 284512.000
   15     1     1      0.1090 284512.000
   16     5     1      0.1090 284512.000
   17     5     1      0.1090 284512.000
   18     6     1      0.1090 284512.000
   19     6     1      0.1090 284512.000
   20     7     1      0.1090 284512.000
   21     8     1      0.1090 284512.000
   22     8     1      0.1090 284512.000
   23     8     1      0.1090 284512.000
   24     9     1      0.1090 284512.000
   25     9     1      0.1090 284512.000

[ angles ]
;  ai    aj    ak funct            c0            c1            c2            c3 
    1     2     3     1    116.900    694.544
    2     3     4     1    123.400    694.544
    2     3     5     1    111.400    677.808
    3     5     6     1    111.100    527.184
    5     6     7     1    112.700    488.273
    6     7     8     1    112.700    488.273
    6     7     9     1    112.700    488.273
    7     9    10     1    111.100    527.184
    9    10    11     1    120.400    669.440
    9    10    12     1    109.000    627.600
    2     1    13     1    109.500    292.880
    2     1    14     1    109.500    292.880
    2     1    15     1    109.500    292.880
    3     5    16     1    109.500    292.880
    3     5    17     1    109.500    292.880
    5     6    18     1    110.700    313.800
    5     6    19     1    110.700    313.800
    6     7    20     1    110.700    313.800
    7     8    21     1    110.700    313.800
    7     8    22     1    110.700    313.800
    7     8    23     1    110.700    313.800
    7     9    24     1    110.700    313.800
    7     9    25     1    110.700    313.800
   11    10    12     1    119.000    627.600
    7     6    18     1    110.700    313.800
   21     8    22     1    107.800    276.144
   18     6    19     1    107.800    276.144
   16     5    17     1    107.800    276.144
   21     8    23     1    107.800    276.144
   22     8    23     1    107.800    276.144
    8     7     9     1    112.700    488.273
    6     5    17     1    110.700    313.800
    4     3     5     1    120.400    669.440
   24     9    25     1    107.800    276.144
    7     6    19     1    110.700    313.800
   13     1    14     1    107.800    276.144
   14     1    15     1    107.800    276.144
   10     9    25     1    109.500    292.880
    6     5    16     1    110.700    313.800
   10     9    24     1    109.500    292.880
   13     1    15     1    107.800    276.144
    8     7    20     1    110.700    313.800
    9     7    20     1    110.700    313.800

[ dihedrals ]
; IMPROPER DIHEDRAL ANGLES 
;  ai    aj    ak    al funct            c0            c1            c2            c3            c4            c5
     5     3     2     4    4        180.000     43.932     2  
    12    10     9    11    4        180.000     43.932     2  

[ dihedrals ]
; PROPER DIHEDRAL ANGLES
;  ai    aj    ak    al funct            c0            c1            c2            c3            c4            c5
   10    9    7    8        3      -4.960   6.286   1.310  -2.636  -0.000   0.000
   10    9    7    6        3      -4.960   6.286   1.310  -2.636  -0.000   0.000
    5    3    2    1        3      31.206  -9.768  -21.439  -0.000  -0.000   0.000
    6    5    3    4        3       0.000   0.000   0.000  -0.000  -0.000   0.000
    6    5    3    2        3      -1.157  -3.471   0.000   4.628  -0.000   0.000
    7    6    5    3        3      -4.960   6.286   1.310  -2.636  -0.000   0.000
    8    7    6    5        3       2.301  -1.464   0.837  -1.674  -0.000   0.000
    9    7    6    5        3       2.301  -1.464   0.837  -1.674  -0.000   0.000
   12   10    9    7        3       0.000   0.000   0.000  -0.000  -0.000   0.000
   24    9   10   12        3       0.753   2.259   0.000  -3.012  -0.000   0.000
   25    9   10   12        3       0.753   2.259   0.000  -3.012  -0.000   0.000
   17    5    3    4        3       0.000   0.000   0.000  -0.000  -0.000   0.000
   24    9   10   11        3       0.000   0.000   0.000  -0.000  -0.000   0.000
   25    9   10   11        3       0.000   0.000   0.000  -0.000  -0.000   0.000
   16    5    3    4        3       0.000   0.000   0.000  -0.000  -0.000   0.000
   16    5    3    2        3       0.276   0.828   0.000  -1.105  -0.000   0.000
   17    5    3    2        3       0.276   0.828   0.000  -1.105  -0.000   0.000
   19    6    5    3        3      -0.209  -0.628   0.000   0.837  -0.000   0.000
   18    6    5    3        3      -0.209  -0.628   0.000   0.837  -0.000   0.000
   20    7    9   10        3      -0.209  -0.628   0.000   0.837  -0.000   0.000
   20    7    6    5        3       0.628   1.883   0.000  -2.510  -0.000   0.000
   25    9    7    8        3       0.628   1.883   0.000  -2.510  -0.000   0.000
   25    9    7    6        3       0.628   1.883   0.000  -2.510  -0.000   0.000
   18    6    7    9        3       0.628   1.883   0.000  -2.510  -0.000   0.000
   21    8    7    9        3       0.628   1.883   0.000  -2.510  -0.000   0.000
   23    8    7    6        3       0.628   1.883   0.000  -2.510  -0.000   0.000
   17    5    6    7        3       0.628   1.883   0.000  -2.510  -0.000   0.000
   24    9    7    8        3       0.628   1.883   0.000  -2.510  -0.000   0.000
   19    6    7    9        3       0.628   1.883   0.000  -2.510  -0.000   0.000
   23    8    7    9        3       0.628   1.883   0.000  -2.510  -0.000   0.000
   24    9    7    6        3       0.628   1.883   0.000  -2.510  -0.000   0.000
   16    5    6    7        3       0.628   1.883   0.000  -2.510  -0.000   0.000
   21    8    7    6        3       0.628   1.883   0.000  -2.510  -0.000   0.000
   22    8    7    6        3       0.628   1.883   0.000  -2.510  -0.000   0.000
   18    6    7    8        3       0.628   1.883   0.000  -2.510  -0.000   0.000
   22    8    7    9        3       0.628   1.883   0.000  -2.510  -0.000   0.000
   19    6    7    8        3       0.628   1.883   0.000  -2.510  -0.000   0.000
   18    6    5   17        3       0.628   1.883   0.000  -2.510  -0.000   0.000
   19    6    5   16        3       0.628   1.883   0.000  -2.510  -0.000   0.000
   24    9    7   20        3       0.628   1.883   0.000  -2.510  -0.000   0.000
   19    6    5   17        3       0.628   1.883   0.000  -2.510  -0.000   0.000
   25    9    7   20        3       0.628   1.883   0.000  -2.510  -0.000   0.000
   20    7    6   18        3       0.628   1.883   0.000  -2.510  -0.000   0.000
   18    6    5   16        3       0.628   1.883   0.000  -2.510  -0.000   0.000
   21    8    7   20        3       0.628   1.883   0.000  -2.510  -0.000   0.000
   23    8    7   20        3       0.628   1.883   0.000  -2.510  -0.000   0.000
   20    7    6   19        3       0.628   1.883   0.000  -2.510  -0.000   0.000
   22    8    7   20        3       0.628   1.883   0.000  -2.510  -0.000   0.000
   14    1    2    3        3       0.414   1.243   0.000  -1.657  -0.000   0.000
   13    1    2    3        3       0.414   1.243   0.000  -1.657  -0.000   0.000
   15    1    2    3        3       0.414   1.243   0.000  -1.657  -0.000   0.000
   11   10    9    7        3       0.000   0.000   0.000  -0.000  -0.000   0.000
    4    3    2    1        3      21.439   0.000  -21.439  -0.000  -0.000   0.000

[ pairs ]
     1     4    1
     1     5    1
     2     6    1
     4     6    1
     3     7    1
     5     8    1
     5     9    1
     6    10    1
     3    13    1
     3    14    1
     8    10    1
     7    11    1
     3    15    1
     2    16    1
     7    12    1
     2    17    1
     4    16    1
     4    17    1
     3    18    1
     3    19    1
     7    16    1
     7    17    1
     5    20    1
     8    18    1
     9    18    1
     8    19    1
     6    21    1
     9    19    1
     6    22    1
     6    23    1
    10    20    1
     9    21    1
     6    24    1
     9    22    1
     6    25    1
     9    23    1
     8    24    1
     8    25    1
    16    18    1
    17    18    1
    16    19    1
    11    24    1
    17    19    1
    12    24    1
    11    25    1
    12    25    1
    18    20    1
    19    20    1
    20    21    1
    20    22    1
    20    23    1
    20    24    1
    20    25    1

