LIGPARGEN GENERATED GRO FILE
   33
    1UNK    C00    1   0.100   0.100   0.000
    1UNK    C01    2  -0.052   0.100   0.000
    1UNK    C02    3  -0.107   0.100   0.143
    1UNK    C03    4  -0.260   0.100   0.146
    1UNK    C04    5  -0.310   0.100   0.290
    1UNK    C05    6  -0.462   0.093   0.305
    1UNK    C06    7  -0.529  -0.030   0.241
    1UNK    C07    8  -0.477  -0.160   0.302
    1UNK    C08    9  -0.683  -0.031   0.247
    1UNK    C09   10  -0.515   0.145   0.438
    1UNK    C0A   11  -0.534   0.226   0.312
    1UNK    H0B   12   0.138   0.100  -0.103
    1UNK    H0C   13   0.139   0.011   0.051
    1UNK    H0D   14   0.139   0.189   0.051
    1UNK    H0E   15  -0.088   0.012  -0.054
    1UNK    H0F   16  -0.088   0.188  -0.054
    1UNK    H0G   17  -0.069   0.188   0.196
    1UNK    H0H   18  -0.069   0.011   0.196
    1UNK    H0I   19  -0.296   0.011   0.092
    1UNK    H0J   20  -0.299   0.188   0.093
    1UNK    H0K   21  -0.272   0.191   0.339
    1UNK    H0M   22  -0.265   0.016   0.346
    1UNK    H0N   23  -0.504  -0.030   0.135
    1UNK    H0O   24  -0.496  -0.164   0.410
    1UNK    H0P   25  -0.369  -0.171   0.287
    1UNK    H0Q   26  -0.525  -0.247   0.257
    1UNK    H0R   27  -0.720  -0.033   0.350
    1UNK    H0S   28  -0.722  -0.121   0.196
    1UNK    H0T   29  -0.726   0.055   0.196
    1UNK    H0U   30  -0.444   0.182   0.511
    1UNK    H0V   31  -0.602   0.099   0.483
    1UNK    H0W   32  -0.477   0.318   0.302
    1UNK    H0X   33  -0.635   0.236   0.274
   1.00000   1.00000   1.00000

