LIGPARGEN GENERATED GRO FILE
   25
    1UNK    C00    1   0.100   0.100   0.000
    1UNK    O01    2  -0.043   0.100   0.000
    1UNK    C02    3  -0.098   0.100   0.125
    1UNK    O03    4  -0.036   0.100   0.230
    1UNK    C04    5  -0.249   0.100   0.112
    1UNK    C05    6  -0.318   0.100   0.249
    1UNK    C06    7  -0.472   0.100   0.242
    1UNK    C07    8  -0.525  -0.025   0.170
    1UNK    C08    9  -0.528   0.108   0.386
    1UNK    C09   10  -0.679   0.120   0.392
    1UNK    O0A   11  -0.744   0.175   0.305
    1UNK    Cl0   12  -0.743   0.052   0.539
    1UNK    H0C   13   0.134   0.100  -0.104
    1UNK    H0D   14   0.138   0.010   0.049
    1UNK    H0E   15   0.139   0.190   0.049
    1UNK    H0F   16  -0.276   0.010   0.056
    1UNK    H0G   17  -0.279   0.189   0.055
    1UNK    H0H   18  -0.284   0.188   0.305
    1UNK    H0I   19  -0.283   0.013   0.306
    1UNK    H0J   20  -0.505   0.188   0.186
    1UNK    H0K   21  -0.489  -0.116   0.218
    1UNK    H0M   22  -0.493  -0.026   0.065
    1UNK    H0N   23  -0.634  -0.027   0.169
    1UNK    H0O   24  -0.487   0.197   0.436
    1UNK    H0P   25  -0.495   0.020   0.442
   1.00000   1.00000   1.00000

