LIGPARGEN GENERATED GRO FILE
   33
    1UNK    C00    1   0.100   0.100   0.000
    1UNK    C01    2  -0.053   0.100   0.000
    1UNK    C02    3  -0.101   0.100   0.145
    1UNK    C03    4  -0.231   0.171   0.135
    1UNK    O04    5  -0.324   0.153   0.213
    1UNK    C05    6  -0.233   0.271   0.024
    1UNK    C06    7  -0.373   0.293  -0.026
    1UNK    O07    8  -0.412   0.401  -0.069
    1UNK    C08    9  -0.118   0.224  -0.071
    1UNK    C09   10  -0.149   0.203  -0.226
    1UNK    C0A   11  -0.024   0.150  -0.300
    1UNK    C0B   12  -0.260   0.098  -0.249
    1UNK    C0C   13  -0.193   0.333  -0.299
    1UNK    C0D   14  -0.093   0.447  -0.292
    1UNK    O0E   15  -0.032   0.489  -0.390
    1UNK    H0F   16   0.138   0.011   0.052
    1UNK    H0G   17   0.140   0.188   0.052
    1UNK    H0H   18   0.142   0.099  -0.101
    1UNK    H0I   19  -0.088   0.007  -0.047
    1UNK    H0J   20  -0.036   0.157   0.212
    1UNK    H0K   21  -0.114  -0.002   0.184
    1UNK    H0M   22  -0.201   0.366   0.069
    1UNK    H0N   23  -0.439   0.205  -0.027
    1UNK    H0O   24  -0.042   0.304  -0.067
    1UNK    H0P   25   0.005   0.051  -0.266
    1UNK    H0Q   26   0.061   0.218  -0.288
    1UNK    H0R   27  -0.043   0.141  -0.408
    1UNK    H0S   28  -0.243   0.006  -0.192
    1UNK    H0T   29  -0.265   0.069  -0.355
    1UNK    H0U   30  -0.360   0.135  -0.224
    1UNK    H0V   31  -0.287   0.372  -0.262
    1UNK    H0W   32  -0.209   0.312  -0.406
    1UNK    H0X   33  -0.077   0.490  -0.192
   1.00000   1.00000   1.00000

