LIGPARGEN GENERATED GRO FILE
   45
    1UNK    C00    1   0.100   0.100   0.000
    1UNK    C01    2  -0.052   0.100   0.000
    1UNK    C02    3  -0.105   0.100   0.143
    1UNK    C03    4  -0.257   0.100   0.149
    1UNK    C04    5  -0.300   0.106   0.296
    1UNK    C05    6  -0.451   0.116   0.315
    1UNK    C06    7  -0.498   0.116   0.463
    1UNK    C07    8  -0.453   0.240   0.546
    1UNK    C08    9  -0.303   0.260   0.568
    1UNK    C09   10  -0.654   0.103   0.473
    1UNK    C0A   11  -0.722   0.219   0.409
    1UNK    N0B   12  -0.775   0.308   0.359
    1UNK    C0C   13  -0.713  -0.027   0.413
    1UNK    C0D   14  -0.665  -0.159   0.476
    1UNK    C0E   15  -0.700  -0.168   0.625
    1UNK    C0F   16  -0.727  -0.277   0.401
    1UNK    H0G   17   0.138   0.100  -0.102
    1UNK    H0H   18   0.139   0.011   0.051
    1UNK    H0I   19   0.139   0.189   0.051
    1UNK    H0J   20  -0.089   0.012  -0.054
    1UNK    H0K   21  -0.088   0.189  -0.053
    1UNK    H0M   22  -0.066   0.189   0.195
    1UNK    H0N   23  -0.066   0.012   0.196
    1UNK    H0O   24  -0.298   0.010   0.102
    1UNK    H0P   25  -0.297   0.187   0.095
    1UNK    H0Q   26  -0.252   0.195   0.337
    1UNK    H0R   27  -0.261   0.019   0.350
    1UNK    H0S   28  -0.494   0.029   0.264
    1UNK    H0T   29  -0.488   0.205   0.263
    1UNK    H0U   30  -0.454   0.029   0.511
    1UNK    H0V   31  -0.498   0.230   0.646
    1UNK    H0W   32  -0.493   0.332   0.503
    1UNK    H0X   33  -0.250   0.165   0.575
    1UNK    H0Y   34  -0.286   0.314   0.662
    1UNK    H0Z   35  -0.260   0.322   0.489
    1UNK    H10   36  -0.680   0.106   0.579
    1UNK    H11   37  -0.695  -0.030   0.305
    1UNK    H12   38  -0.823  -0.023   0.423
    1UNK    H13   39  -0.556  -0.168   0.466
    1UNK    H14   40  -0.806  -0.148   0.642
    1UNK    H15   41  -0.642  -0.097   0.684
    1UNK    H16   42  -0.678  -0.268   0.664
    1UNK    H17   43  -0.837  -0.274   0.406
    1UNK    H18   44  -0.694  -0.373   0.444
    1UNK    H19   45  -0.698  -0.276   0.296
   1.00000   1.00000   1.00000

