LIGPARGEN GENERATED GRO FILE
   31
    1UNK    C00    1   0.100   0.100   0.000
    1UNK    C01    2  -0.053   0.100   0.000
    1UNK    C02    3  -0.114   0.100   0.140
    1UNK    C03    4  -0.133  -0.048   0.181
    1UNK    C04    5  -0.012  -0.097   0.264
    1UNK    C05    6  -0.255  -0.061   0.274
    1UNK    C06    7  -0.141  -0.126   0.047
    1UNK    C07    8  -0.275  -0.187   0.006
    1UNK    C08    9  -0.350  -0.073  -0.061
    1UNK    C09   10  -0.242  -0.001  -0.140
    1UNK    C0A   11  -0.110  -0.026  -0.066
    1UNK    H0B   12   0.139   0.182   0.062
    1UNK    H0C   13   0.137   0.115  -0.102
    1UNK    H0D   14   0.142   0.006   0.036
    1UNK    H0E   15  -0.084   0.191  -0.053
    1UNK    H0F   16  -0.212   0.149   0.134
    1UNK    H0G   17  -0.054   0.157   0.212
    1UNK    H0H   18   0.002  -0.035   0.354
    1UNK    H0I   19   0.082  -0.094   0.207
    1UNK    H0J   20  -0.027  -0.200   0.296
    1UNK    H0K   21  -0.241  -0.002   0.365
    1UNK    H0M   22  -0.271  -0.165   0.304
    1UNK    H0N   23  -0.347  -0.024   0.227
    1UNK    H0O   24  -0.065  -0.206   0.047
    1UNK    H0P   25  -0.331  -0.232   0.089
    1UNK    H0Q   26  -0.258  -0.266  -0.068
    1UNK    H0R   27  -0.394  -0.006   0.013
    1UNK    H0S   28  -0.431  -0.109  -0.125
    1UNK    H0T   29  -0.267   0.105  -0.153
    1UNK    H0U   30  -0.236  -0.044  -0.240
    1UNK    H0V   31  -0.038  -0.068  -0.138
   1.00000   1.00000   1.00000

