LIGPARGEN GENERATED GRO FILE
   36
    1UNK    C00    1   0.100   0.100   0.000
    1UNK    C01    2  -0.052   0.100   0.000
    1UNK    C02    3  -0.114   0.100   0.140
    1UNK    C03    4  -0.074   0.217   0.231
    1UNK    C04    5  -0.115   0.356   0.176
    1UNK    C05    6  -0.075   0.473   0.268
    1UNK    C06    7   0.066   0.459   0.312
    1UNK    N07    8   0.176   0.443   0.344
    1UNK    C08    9  -0.080   0.607   0.197
    1UNK    N09   10  -0.085   0.718   0.137
    1UNK    C0A   11  -0.138   0.196   0.369
    1UNK    O0B   12  -0.260   0.202   0.383
    1UNK    C0C   13  -0.045   0.180   0.488
    1UNK    C0D   14  -0.107   0.095   0.598
    1UNK    C0E   15  -0.129  -0.046   0.548
    1UNK    O0F   16  -0.064  -0.098   0.458
    1UNK    O0G   17  -0.231  -0.104   0.616
    1UNK    C0H   18  -0.262  -0.236   0.571
    1UNK    H0I   19   0.138   0.067  -0.097
    1UNK    H0J   20   0.140   0.033   0.077
    1UNK    H0K   21   0.139   0.201   0.018
    1UNK    H0M   22  -0.087   0.010  -0.052
    1UNK    H0N   23  -0.089   0.185  -0.058
    1UNK    H0O   24  -0.086   0.006   0.190
    1UNK    H0P   25  -0.224   0.097   0.130
    1UNK    H0Q   26   0.035   0.213   0.243
    1UNK    H0R   27  -0.224   0.360   0.161
    1UNK    H0S   28  -0.069   0.370   0.077
    1UNK    H0T   29  -0.140   0.477   0.356
    1UNK    H0U   30  -0.025   0.281   0.527
    1UNK    H0V   31   0.050   0.138   0.455
    1UNK    H0W   32  -0.203   0.138   0.629
    1UNK    H0X   33  -0.041   0.090   0.684
    1UNK    H0Y   34  -0.350  -0.271   0.626
    1UNK    H0Z   35  -0.179  -0.304   0.592
    1UNK    H10   36  -0.286  -0.235   0.464
   1.00000   1.00000   1.00000

