
;
; GENERATED BY LigParGen Server
; Jorgensen Lab @ Yale University 
;
[ atomtypes ]
  opls_818  H818     1.0080     0.000    A    2.50000E-01   1.25520E-01
  opls_809  N809    14.0070     0.000    A    3.20000E-01   7.11280E-01
  opls_806  C806    12.0110     0.000    A    3.30000E-01   2.76144E-01
  opls_824  H824     1.0080     0.000    A    2.50000E-01   1.25520E-01
  opls_805  C805    12.0110     0.000    A    3.50000E-01   2.76144E-01
  opls_834  H834     1.0080     0.000    A    2.50000E-01   1.25520E-01
  opls_828  H828     1.0080     0.000    A    2.50000E-01   1.25520E-01
  opls_814  C814    12.0110     0.000    A    3.55000E-01   2.92880E-01
  opls_802  C802    12.0110     0.000    A    3.50000E-01   2.76144E-01
  opls_827  H827     1.0080     0.000    A    2.50000E-01   1.25520E-01
  opls_801  C801    12.0110     0.000    A    3.50000E-01   2.76144E-01
  opls_811  O811    15.9990     0.000    A    2.96000E-01   8.78640E-01
  opls_822  H822     1.0080     0.000    A    2.50000E-01   1.25520E-01
  opls_803  C803    12.0110     0.000    A    3.50000E-01   2.76144E-01
  opls_807  N807    14.0070     0.000    A    3.20000E-01   7.11280E-01
  opls_825  H825     1.0080     0.000    A    2.50000E-01   1.25520E-01
  opls_830  H830     1.0080     0.000    A    2.50000E-01   1.25520E-01
  opls_808  C808    12.0110     0.000    A    3.30000E-01   2.76144E-01
  opls_821  H821     1.0080     0.000    A    2.50000E-01   1.25520E-01
  opls_820  H820     1.0080     0.000    A    2.50000E-01   1.25520E-01
  opls_829  H829     1.0080     0.000    A    2.50000E-01   1.25520E-01
  opls_831  H831     1.0080     0.000    A    2.50000E-01   1.25520E-01
  opls_810  C810    12.0110     0.000    A    3.55000E-01   2.92880E-01
  opls_832  H832     1.0080     0.000    A    2.50000E-01   1.25520E-01
  opls_800  C800    12.0110     0.000    A    3.50000E-01   2.76144E-01
  opls_823  H823     1.0080     0.000    A    2.50000E-01   1.25520E-01
  opls_833  H833     1.0080     0.000    A    2.50000E-01   1.25520E-01
  opls_813  C813    12.0110     0.000    A    3.50000E-01   2.76144E-01
  opls_816  O816    15.9990     0.000    A    2.90000E-01   5.85760E-01
  opls_826  H826     1.0080     0.000    A    2.50000E-01   1.25520E-01
  opls_835  H835     1.0080     0.000    A    2.50000E-01   1.25520E-01
  opls_819  H819     1.0080     0.000    A    2.50000E-01   1.25520E-01
  opls_804  C804    12.0110     0.000    A    3.50000E-01   2.76144E-01
  opls_817  C817    12.0110     0.000    A    3.50000E-01   2.76144E-01
  opls_812  C812    12.0110     0.000    A    3.50000E-01   2.76144E-01
  opls_815  O815    15.9990     0.000    A    2.96000E-01   8.78640E-01
[ moleculetype ]
; Name               nrexcl
UNK                   3
[ atoms ]
;   nr       type  resnr residue  atom   cgnr     charge       mass  
     1   opls_800      1    UNK   C00      1     -0.243    12.0110 
     2   opls_801      1    UNK   C01      1    -0.1771    12.0110 
     3   opls_802      1    UNK   C02      1    -0.1702    12.0110 
     4   opls_803      1    UNK   C03      1    -0.1574    12.0110 
     5   opls_804      1    UNK   C04      1     -0.164    12.0110 
     6   opls_805      1    UNK   C05      1     0.1477    12.0110 
     7   opls_806      1    UNK   C06      1     0.1421    12.0110 
     8   opls_807      1    UNK   N07      1    -0.3472    14.0070 
     9   opls_808      1    UNK   C08      1     0.1236    12.0110 
    10   opls_809      1    UNK   N09      1    -0.3408    14.0070 
    11   opls_810      1    UNK   C0A      1     0.3608    12.0110 
    12   opls_811      1    UNK   O0B      1    -0.4451    15.9990 
    13   opls_812      1    UNK   C0C      1    -0.2263    12.0110 
    14   opls_813      1    UNK   C0D      1    -0.1852    12.0110 
    15   opls_814      1    UNK   C0E      1     0.4389    12.0110 
    16   opls_815      1    UNK   O0F      1    -0.4577    15.9990 
    17   opls_816      1    UNK   O0G      1     -0.344    15.9990 
    18   opls_817      1    UNK   C0H      1    -0.0591    12.0110 
    19   opls_818      1    UNK   H0I      1     0.0853     1.0080 
    20   opls_819      1    UNK   H0J      1     0.0853     1.0080 
    21   opls_820      1    UNK   H0K      1     0.0853     1.0080 
    22   opls_821      1    UNK   H0M      1      0.092     1.0080 
    23   opls_822      1    UNK   H0N      1      0.092     1.0080 
    24   opls_823      1    UNK   H0O      1     0.1113     1.0080 
    25   opls_824      1    UNK   H0P      1     0.1113     1.0080 
    26   opls_825      1    UNK   H0Q      1     0.1278     1.0080 
    27   opls_826      1    UNK   H0R      1     0.1303     1.0080 
    28   opls_827      1    UNK   H0S      1     0.1303     1.0080 
    29   opls_828      1    UNK   H0T      1     0.1731     1.0080 
    30   opls_829      1    UNK   H0U      1     0.1376     1.0080 
    31   opls_830      1    UNK   H0V      1     0.1376     1.0080 
    32   opls_831      1    UNK   H0W      1     0.1466     1.0080 
    33   opls_832      1    UNK   H0X      2     0.1466     1.0080 
    34   opls_833      1    UNK   H0Y      2     0.1039     1.0080 
    35   opls_834      1    UNK   H0Z      2     0.1039     1.0080 
    36   opls_835      1    UNK   H10      2     0.1039     1.0080 
[ bonds ]
    2     1     1      0.1529 224262.400
    3     2     1      0.1529 224262.400
    4     3     1      0.1529 224262.400
    5     4     1      0.1529 224262.400
    6     5     1      0.1529 224262.400
    7     6     1      0.1470 326352.000
    8     7     1      0.1157 543920.000
    9     6     1      0.1470 326352.000
   10     9     1      0.1157 543920.000
   11     4     1      0.1522 265265.600
   12    11     1      0.1229 476976.000
   13    11     1      0.1522 265265.600
   14    13     1      0.1529 224262.400
   15    14     1      0.1522 265265.600
   16    15     1      0.1229 476976.000
   17    15     1      0.1327 179075.200
   18    17     1      0.1410 267776.000
   19     1     1      0.1090 284512.000
   20     1     1      0.1090 284512.000
   21     1     1      0.1090 284512.000
   22     2     1      0.1090 284512.000
   23     2     1      0.1090 284512.000
   24     3     1      0.1090 284512.000
   25     3     1      0.1090 284512.000
   26     4     1      0.1090 284512.000
   27     5     1      0.1090 284512.000
   28     5     1      0.1090 284512.000
   29     6     1      0.1090 284512.000
   30    13     1      0.1090 284512.000
   31    13     1      0.1090 284512.000
   32    14     1      0.1090 284512.000
   33    14     1      0.1090 284512.000
   34    18     1      0.1090 284512.000
   35    18     1      0.1090 284512.000
   36    18     1      0.1090 284512.000

[ angles ]
;  ai    aj    ak funct            c0            c1            c2            c3 
    1     2     3     1    112.700    488.273
    2     3     4     1    112.700    488.273
    3     4     5     1    112.700    488.273
    4     5     6     1    112.700    488.273
    5     6     7     1    112.700    488.273
    6     7     8     1    180.000   1255.200
    5     6     9     1    112.700    488.273
    6     9    10     1    180.000   1255.200
    3     4    11     1    111.100    527.184
    4    11    12     1    120.400    669.440
    4    11    13     1    116.000    585.760
   11    13    14     1    111.100    527.184
   13    14    15     1    111.100    527.184
   14    15    16     1    120.400    669.440
   14    15    17     1    111.400    677.808
   15    17    18     1    116.900    694.544
    2     1    19     1    110.700    313.800
    2     1    20     1    110.700    313.800
    2     1    21     1    110.700    313.800
    1     2    22     1    110.700    313.800
    1     2    23     1    110.700    313.800
    2     3    24     1    110.700    313.800
    2     3    25     1    110.700    313.800
    3     4    26     1    110.700    313.800
    4     5    27     1    110.700    313.800
    4     5    28     1    110.700    313.800
    5     6    29     1    110.700    313.800
   11    13    30     1    109.500    292.880
   11    13    31     1    109.500    292.880
   13    14    32     1    110.700    313.800
   13    14    33     1    110.700    313.800
   17    18    34     1    109.500    292.880
   17    18    35     1    109.500    292.880
   17    18    36     1    109.500    292.880
    7     6     9     1    110.580    432.207
   14    13    30     1    110.700    313.800
    5     4    26     1    110.700    313.800
   35    18    36     1    107.800    276.144
   15    14    33     1    109.500    292.880
   20     1    21     1    107.800    276.144
    3     2    22     1    110.700    313.800
    3     2    23     1    110.700    313.800
   19     1    21     1    107.800    276.144
   32    14    33     1    107.800    276.144
   22     2    23     1    107.800    276.144
   11     4    26     1    109.500    292.880
    4     3    25     1    110.700    313.800
    7     6    29     1    108.500    292.880
   14    13    31     1    110.700    313.800
    4     3    24     1    110.700    313.800
   16    15    17     1    123.400    694.544
   15    14    32     1    109.500    292.880
    6     5    27     1    110.700    313.800
   27     5    28     1    107.800    276.144
    5     4    11     1    111.100    527.184
   34    18    35     1    107.800    276.144
   12    11    13     1    120.400    669.440
   24     3    25     1    107.800    276.144
    9     6    29     1    108.500    292.880
   34    18    36     1    107.800    276.144
   19     1    20     1    107.800    276.144
    6     5    28     1    110.700    313.800
   30    13    31     1    107.800    276.144

[ dihedrals ]
; IMPROPER DIHEDRAL ANGLES 
;  ai    aj    ak    al funct            c0            c1            c2            c3            c4            c5
    13    11     4    12    4        180.000     43.932     2  
    17    15    14    16    4        180.000     43.932     2  

[ dihedrals ]
; PROPER DIHEDRAL ANGLES
;  ai    aj    ak    al funct            c0            c1            c2            c3            c4            c5
   15   14   13   11        3       0.941   7.427   0.000  -8.368  -0.000   0.000
   11    4    5    6        3      -4.960   6.286   1.310  -2.636  -0.000   0.000
   11    4    3    2        3      -4.960   6.286   1.310  -2.636  -0.000   0.000
   13   11    4    5        3       0.818  -7.906   0.602   6.485  -0.000   0.000
   13   11    4    3        3       0.818  -7.906   0.602   6.485  -0.000   0.000
   14   13   11    4        3       0.818  -7.906   0.602   6.485  -0.000   0.000
   14   13   11   12        3       0.000   0.000   0.000  -0.000  -0.000   0.000
    4    3    2    1        3       2.301  -1.464   0.837  -1.674  -0.000   0.000
    6    5    4    3        3       2.301  -1.464   0.837  -1.674  -0.000   0.000
    5    4    3    2        3       2.301  -1.464   0.837  -1.674  -0.000   0.000
   18   17   15   14        3      31.206  -9.768  -21.439  -0.000  -0.000   0.000
   18   17   15   16        3      21.439   0.000  -21.439  -0.000  -0.000   0.000
    7    6    5    4        3      -2.720   0.000   2.720  -0.000  -0.000   0.000
    9    6    5    4        3      -2.720   0.000   2.720  -0.000  -0.000   0.000
    9    6    7    8        3       0.000   0.000   0.000  -0.000  -0.000   0.000
   26    4   11   13        3       0.575   1.726   0.000  -2.301  -0.000   0.000
   31   13   11    4        3       0.575   1.726   0.000  -2.301  -0.000   0.000
   30   13   11    4        3       0.575   1.726   0.000  -2.301  -0.000   0.000
   31   13   11   12        3       0.000   0.000   0.000  -0.000  -0.000   0.000
   32   14   15   16        3       0.000   0.000   0.000  -0.000  -0.000   0.000
   26    4   11   12        3       0.000   0.000   0.000  -0.000  -0.000   0.000
   30   13   11   12        3       0.000   0.000   0.000  -0.000  -0.000   0.000
   33   14   15   16        3       0.000   0.000   0.000  -0.000  -0.000   0.000
   33   14   15   17        3       0.276   0.828   0.000  -1.105  -0.000   0.000
   32   14   15   17        3       0.276   0.828   0.000  -1.105  -0.000   0.000
   31   13   14   15        3      -0.209  -0.628   0.000   0.837  -0.000   0.000
   32   14   13   11        3      -0.209  -0.628   0.000   0.837  -0.000   0.000
   24    3    4   11        3      -0.209  -0.628   0.000   0.837  -0.000   0.000
   28    5    4   11        3      -0.209  -0.628   0.000   0.837  -0.000   0.000
   33   14   13   11        3      -0.209  -0.628   0.000   0.837  -0.000   0.000
   25    3    4   11        3      -0.209  -0.628   0.000   0.837  -0.000   0.000
   30   13   14   15        3      -0.209  -0.628   0.000   0.837  -0.000   0.000
   27    5    4   11        3      -0.209  -0.628   0.000   0.837  -0.000   0.000
   19    1    2    3        3       0.628   1.883   0.000  -2.510  -0.000   0.000
   27    5    4    3        3       0.628   1.883   0.000  -2.510  -0.000   0.000
   22    2    3    4        3       0.628   1.883   0.000  -2.510  -0.000   0.000
   28    5    4    3        3       0.628   1.883   0.000  -2.510  -0.000   0.000
   23    2    3    4        3       0.628   1.883   0.000  -2.510  -0.000   0.000
   21    1    2    3        3       0.628   1.883   0.000  -2.510  -0.000   0.000
   25    3    2    1        3       0.628   1.883   0.000  -2.510  -0.000   0.000
   29    6    5    4        3       0.628   1.883   0.000  -2.510  -0.000   0.000
   26    4    3    2        3       0.628   1.883   0.000  -2.510  -0.000   0.000
   24    3    2    1        3       0.628   1.883   0.000  -2.510  -0.000   0.000
   25    3    4    5        3       0.628   1.883   0.000  -2.510  -0.000   0.000
   20    1    2    3        3       0.628   1.883   0.000  -2.510  -0.000   0.000
   24    3    4    5        3       0.628   1.883   0.000  -2.510  -0.000   0.000
   26    4    5    6        3       0.628   1.883   0.000  -2.510  -0.000   0.000
   27    5    6    9        3       0.766   2.297   0.000  -3.063  -0.000   0.000
   28    5    6    7        3       0.766   2.297   0.000  -3.063  -0.000   0.000
   27    5    6    7        3       0.766   2.297   0.000  -3.063  -0.000   0.000
   28    5    6    9        3       0.766   2.297   0.000  -3.063  -0.000   0.000
   22    2    1   19        3       0.628   1.883   0.000  -2.510  -0.000   0.000
   29    6    5   28        3       0.628   1.883   0.000  -2.510  -0.000   0.000
   26    4    3   24        3       0.628   1.883   0.000  -2.510  -0.000   0.000
   25    3    2   23        3       0.628   1.883   0.000  -2.510  -0.000   0.000
   32   14   13   31        3       0.628   1.883   0.000  -2.510  -0.000   0.000
   22    2    1   21        3       0.628   1.883   0.000  -2.510  -0.000   0.000
   24    3    2   22        3       0.628   1.883   0.000  -2.510  -0.000   0.000
   33   14   13   30        3       0.628   1.883   0.000  -2.510  -0.000   0.000
   27    5    4   26        3       0.628   1.883   0.000  -2.510  -0.000   0.000
   23    2    1   20        3       0.628   1.883   0.000  -2.510  -0.000   0.000
   22    2    1   20        3       0.628   1.883   0.000  -2.510  -0.000   0.000
   25    3    2   22        3       0.628   1.883   0.000  -2.510  -0.000   0.000
   23    2    1   19        3       0.628   1.883   0.000  -2.510  -0.000   0.000
   32   14   13   30        3       0.628   1.883   0.000  -2.510  -0.000   0.000
   26    4    3   25        3       0.628   1.883   0.000  -2.510  -0.000   0.000
   28    5    4   26        3       0.628   1.883   0.000  -2.510  -0.000   0.000
   24    3    2   23        3       0.628   1.883   0.000  -2.510  -0.000   0.000
   29    6    5   27        3       0.628   1.883   0.000  -2.510  -0.000   0.000
   23    2    1   21        3       0.628   1.883   0.000  -2.510  -0.000   0.000
   33   14   13   31        3       0.628   1.883   0.000  -2.510  -0.000   0.000
   29    6    7    8        3       0.000   0.000   0.000  -0.000  -0.000   0.000
   29    6    9   10        3       0.000   0.000   0.000  -0.000  -0.000   0.000
   34   18   17   15        3       0.414   1.243   0.000  -1.657  -0.000   0.000
   35   18   17   15        3       0.414   1.243   0.000  -1.657  -0.000   0.000
   36   18   17   15        3       0.414   1.243   0.000  -1.657  -0.000   0.000
   10    9    6    5        3       0.000   0.000   0.000  -0.000  -0.000   0.000
    8    7    6    5        3       0.000   0.000   0.000  -0.000  -0.000   0.000
   10    9    6    7        3       0.000   0.000   0.000  -0.000  -0.000   0.000
   12   11    4    3        3       0.000   0.000   0.000  -0.000  -0.000   0.000
   12   11    4    5        3       0.000   0.000   0.000  -0.000  -0.000   0.000
   16   15   14   13        3       0.000   0.000   0.000  -0.000  -0.000   0.000
   17   15   14   13        3      -1.157  -3.471   0.000   4.628  -0.000   0.000

[ pairs ]
     1     4    1
     2     5    1
     3     6    1
     4     7    1
     5     8    1
     4     9    1
     2    11    1
     5    10    1
     3    12    1
     3    13    1
     8     9    1
     7    10    1
     6    11    1
     5    12    1
     5    13    1
     4    14    1
     3    19    1
     3    20    1
     3    21    1
     1    24    1
    12    14    1
    11    15    1
     4    22    1
     1    25    1
     4    23    1
     2    26    1
    13    16    1
     5    24    1
    13    17    1
     5    25    1
     3    27    1
     3    28    1
    14    18    1
     6    26    1
     4    29    1
    16    18    1
     7    27    1
     4    30    1
    11    24    1
     7    28    1
     4    31    1
    11    25    1
     9    27    1
     9    28    1
     8    29    1
    12    26    1
    11    27    1
    13    26    1
    11    28    1
    10    29    1
    19    22    1
    20    22    1
    19    23    1
    12    30    1
    21    22    1
    20    23    1
    12    31    1
    11    32    1
    21    23    1
    11    33    1
    15    30    1
    22    24    1
    15    31    1
    23    24    1
    22    25    1
    23    25    1
    16    32    1
    17    32    1
    16    33    1
    15    34    1
    24    26    1
    17    33    1
    15    35    1
    25    26    1
    15    36    1
    26    27    1
    26    28    1
    27    29    1
    28    29    1
    30    32    1
    31    32    1
    30    33    1
    31    33    1

