LIGPARGEN GENERATED GRO FILE
   20
    1UNK    C00    1   0.100   0.100   0.000
    1UNK    C01    2  -0.051   0.100   0.000
    1UNK    O02    3  -0.114   0.100   0.106
    1UNK    C03    4  -0.122   0.079  -0.131
    1UNK    C04    5  -0.246   0.130  -0.154
    1UNK    C05    6  -0.310   0.231  -0.064
    1UNK    O06    7  -0.249   0.320  -0.006
    1UNK    O07    8  -0.445   0.222  -0.061
    1UNK    S08    9  -0.341   0.092  -0.296
    1UNK    C09   10  -0.260  -0.047  -0.357
    1UNK    C0A   11  -0.136  -0.082  -0.324
    1UNK    C0B   12  -0.050  -0.014  -0.224
    1UNK    H0C   13   0.137   0.163   0.082
    1UNK    H0D   14   0.140   0.139  -0.094
    1UNK    H0E   15   0.135  -0.003   0.015
    1UNK    H0F   16  -0.478   0.155  -0.124
    1UNK    H0G   17  -0.313  -0.105  -0.432
    1UNK    H0H   18  -0.092  -0.169  -0.373
    1UNK    H0I   19   0.028   0.042  -0.278
    1UNK    H0J   20  -0.000  -0.092  -0.166
   1.00000   1.00000   1.00000

