
;
; GENERATED BY LigParGen Server
; Jorgensen Lab @ Yale University 
;
[ atomtypes ]
  opls_818  H818     1.0080     0.000    A    2.50000E-01   1.25520E-01
  opls_805  C805    12.0110     0.000    A    3.55000E-01   2.92880E-01
  opls_803  C803    12.0110     0.000    A    3.55000E-01   3.17984E-01
  opls_815  H815     1.0080     0.000    A    0.00000E+00   0.00000E+00
  opls_800  C800    12.0110     0.000    A    3.50000E-01   2.76144E-01
  opls_814  H814     1.0080     0.000    A    2.50000E-01   1.25520E-01
  opls_802  O802    15.9990     0.000    A    2.96000E-01   8.78640E-01
  opls_811  C811    12.0110     0.000    A    3.50000E-01   2.76144E-01
  opls_807  O807    15.9990     0.000    A    3.12000E-01   7.11280E-01
  opls_804  C804    12.0110     0.000    A    3.55000E-01   3.17984E-01
  opls_816  H816     1.0080     0.000    A    2.42000E-01   1.25520E-01
  opls_806  O806    15.9990     0.000    A    2.96000E-01   8.78640E-01
  opls_810  C810    12.0110     0.000    A    3.55000E-01   3.17984E-01
  opls_817  H817     1.0080     0.000    A    2.42000E-01   1.25520E-01
  opls_809  C809    12.0110     0.000    A    3.55000E-01   3.17984E-01
  opls_812  H812     1.0080     0.000    A    2.50000E-01   1.25520E-01
  opls_813  H813     1.0080     0.000    A    2.50000E-01   1.25520E-01
  opls_801  C801    12.0110     0.000    A    3.55000E-01   2.92880E-01
  opls_808  S808    32.0600     0.000    A    3.60000E-01   1.48532E+00
  opls_819  H819     1.0080     0.000    A    2.50000E-01   1.25520E-01
[ moleculetype ]
; Name               nrexcl
UNK                   3
[ atoms ]
;   nr       type  resnr residue  atom   cgnr     charge       mass  
     1   opls_800      1    UNK   C00      1    -0.2893    12.0110 
     2   opls_801      1    UNK   C01      1     0.4083    12.0110 
     3   opls_802      1    UNK   O02      1    -0.4111    15.9990 
     4   opls_803      1    UNK   C03      1    -0.0958    12.0110 
     5   opls_804      1    UNK   C04      1    -0.1951    12.0110 
     6   opls_805      1    UNK   C05      1     0.5827    12.0110 
     7   opls_806      1    UNK   O06      1    -0.4175    15.9990 
     8   opls_807      1    UNK   O07      1    -0.5312    15.9990 
     9   opls_808      1    UNK   S08      1     0.0069    32.0600 
    10   opls_809      1    UNK   C09      1    -0.2128    12.0110 
    11   opls_810      1    UNK   C0A      1    -0.1609    12.0110 
    12   opls_811      1    UNK   C0B      1    -0.1131    12.0110 
    13   opls_812      1    UNK   H0C      1     0.1205     1.0080 
    14   opls_813      1    UNK   H0D      1     0.1205     1.0080 
    15   opls_814      1    UNK   H0E      1     0.1205     1.0080 
    16   opls_815      1    UNK   H0F      1      0.461     1.0080 
    17   opls_816      1    UNK   H0G      1     0.1909     1.0080 
    18   opls_817      1    UNK   H0H      1     0.1631     1.0080 
    19   opls_818      1    UNK   H0I      1     0.1262     1.0080 
    20   opls_819      1    UNK   H0J      1     0.1262     1.0080 
[ bonds ]
    2     1     1      0.1522 265265.600
    3     2     1      0.1229 476976.000
    4     2     1      0.1444 343088.000
    5     4     1      0.1340 459403.200
    6     5     1      0.1444 343088.000
    7     6     1      0.1229 476976.000
    8     6     1      0.1364 376560.000
    9     5     1      0.1760 209200.000
   10     9     1      0.1760 209200.000
   11    10     1      0.1340 459403.200
   12     4     1      0.1510 265265.600
   13     1     1      0.1090 284512.000
   14     1     1      0.1090 284512.000
   15     1     1      0.1090 284512.000
   16     8     1      0.0945 462750.400
   17    10     1      0.1080 307105.600
   18    11     1      0.1080 307105.600
   19    12     1      0.1090 284512.000
   20    12     1      0.1090 284512.000
   12    11     1      0.1510 265265.600

[ angles ]
;  ai    aj    ak funct            c0            c1            c2            c3 
    1     2     3     1    120.400    669.440
    1     2     4     1    116.000    585.760
    2     4     5     1    120.700    711.280
    4     5     6     1    120.700    711.280
    5     6     7     1    125.300    669.440
    5     6     8     1    120.000    585.760
    4     5     9     1    119.400    711.280
    5     9    10     1    104.200    518.816
    9    10    11     1    119.400    711.280
    2     4    12     1    119.700    585.760
    2     1    13     1    109.500    292.880
    2     1    14     1    109.500    292.880
    2     1    15     1    109.500    292.880
    6     8    16     1    113.000    292.880
    9    10    17     1    118.760    505.678
   10    11    18     1    120.000    292.880
    4    12    19     1    109.500    292.880
    4    12    20     1    109.500    292.880
    5     4    12     1    124.000    585.760
   13     1    14     1    107.800    276.144
   12    11    18     1    118.760    505.678
   19    12    20     1    107.800    276.144
   14     1    15     1    107.800    276.144
    4    12    11     1    112.400    527.184
   10    11    12     1    124.000    585.760
    3     2     4     1    125.300    669.440
   11    10    17     1    120.000    292.880
    7     6     8     1    121.000    669.440
   11    12    20     1    109.500    292.880
    6     5     9     1    118.760    505.678
   13     1    15     1    107.800    276.144
   11    12    19     1    109.500    292.880

[ dihedrals ]
; IMPROPER DIHEDRAL ANGLES 
;  ai    aj    ak    al funct            c0            c1            c2            c3            c4            c5
     4     2     1     3    4        180.000     43.932     2  
    12     4     2     5    4        180.000     10.460     2  
    18    11    10    12    4        180.000     10.460     2  
    17    10     9    11    4        180.000     10.460     2  
     8     6     5     7    4        180.000     43.932     2  
     9     5     4     6    4        180.000     10.460     2  

[ dihedrals ]
; PROPER DIHEDRAL ANGLES
;  ai    aj    ak    al funct            c0            c1            c2            c3            c4            c5
    6    5    4    2        3      58.576   0.000  -58.576  -0.000  -0.000   0.000
    5    4    2    1        3      -10.878  -1.674  12.552  -0.000  -0.000   0.000
    5    4    2    3        3      30.334  -5.230  -25.104  -0.000  -0.000   0.000
   10   11   12    4        3       0.527  -6.397  -1.695   7.565  -0.000   0.000
   11   10    9    5        3       0.941   2.314   2.410  -5.665  -0.000   0.000
   11   12    4    2        3      -33.472   0.000  33.472  -0.000  -0.000   0.000
   11   12    4    5        3       0.527  -6.397  -1.695   7.565  -0.000   0.000
   10    9    5    6        3       0.941   2.314   2.410  -5.665  -0.000   0.000
   10    9    5    4        3       0.941   2.314   2.410  -5.665  -0.000   0.000
   12    4    2    1        3       0.818  -7.906   0.602   6.485  -0.000   0.000
   12    4    2    3        3       1.789  -5.052  -0.962   4.226  -0.000   0.000
   12    4    5    6        3      58.576   0.000  -58.576  -0.000  -0.000   0.000
   12   11   10    9        3      58.576   0.000  -58.576  -0.000  -0.000   0.000
   12    4    5    9        3      58.576   0.000  -58.576  -0.000  -0.000   0.000
   17   10   11   12        3      58.576   0.000  -58.576  -0.000  -0.000   0.000
   18   11   10   17        3      58.576   0.000  -58.576  -0.000  -0.000   0.000
   18   11   10    9        3      58.576   0.000  -58.576  -0.000  -0.000   0.000
   18   11   12    4        3      -33.472   0.000  33.472  -0.000  -0.000   0.000
   17   10    9    5        3      30.334   0.000  -30.334  -0.000  -0.000   0.000
   14    1    2    4        3       0.575   1.726   0.000  -2.301  -0.000   0.000
   13    1    2    4        3       0.575   1.726   0.000  -2.301  -0.000   0.000
   15    1    2    4        3       0.575   1.726   0.000  -2.301  -0.000   0.000
   13    1    2    3        3       0.000   0.000   0.000  -0.000  -0.000   0.000
   15    1    2    3        3       0.000   0.000   0.000  -0.000  -0.000   0.000
   14    1    2    3        3       0.000   0.000   0.000  -0.000  -0.000   0.000
   19   12    4    2        3      -0.778  -2.335   0.000   3.113  -0.000   0.000
   20   12    4    2        3      -0.778  -2.335   0.000   3.113  -0.000   0.000
   20   12    4    5        3      -0.778  -2.335   0.000   3.113  -0.000   0.000
   19   12   11   10        3      -0.778  -2.335   0.000   3.113  -0.000   0.000
   20   12   11   10        3      -0.778  -2.335   0.000   3.113  -0.000   0.000
   19   12    4    5        3      -0.778  -2.335   0.000   3.113  -0.000   0.000
   19   12   11   18        3       0.665   1.996   0.000  -2.661  -0.000   0.000
   20   12   11   18        3       0.665   1.996   0.000  -2.661  -0.000   0.000
   16    8    6    5        3      26.150  -3.138  -23.012  -0.000  -0.000   0.000
   16    8    6    7        3      23.012   0.000  -23.012  -0.000  -0.000   0.000
    7    6    5    4        3      30.334  -5.230  -25.104  -0.000  -0.000   0.000
    8    6    5    4        3      -5.858  -6.694  12.552  -0.000  -0.000   0.000
    9    5    6    7        3       0.000   0.000   0.000  -0.000  -0.000   0.000
    9    5    6    8        3      -5.858  -6.694  12.552  -0.000  -0.000   0.000
    9    5    4    2        3      58.576   0.000  -58.576  -0.000  -0.000   0.000

[ pairs ]
     1     5    1
     3     5    1
     2     6    1
     4     7    1
     2     9    1
     4     8    1
     2    11    1
     1    12    1
     4    10    1
     3    12    1
     7     9    1
     6    10    1
     5    11    1
     3    13    1
     8     9    1
     4    13    1
     3    14    1
     6    12    1
     4    14    1
     3    15    1
     4    15    1
     9    12    1
     5    16    1
     2    19    1
     5    17    1
     4    18    1
     2    20    1
     7    16    1
     5    19    1
     5    20    1
     9    18    1
    12    17    1
    10    19    1
    10    20    1
    17    18    1
    18    19    1
    18    20    1

