
;
; GENERATED BY LigParGen Server
; Jorgensen Lab @ Yale University 
;
[ atomtypes ]
  opls_818  H818     1.0080     0.000    A    2.50000E-01   1.25520E-01
  opls_814  C814    12.0110     0.000    A    3.50000E-01   2.76144E-01
  opls_824  H824     1.0080     0.000    A    2.50000E-01   1.25520E-01
  opls_805  C805    12.0110     0.000    A    3.50000E-01   2.76144E-01
  opls_843  H843     1.0080     0.000    A    2.50000E-01   1.25520E-01
  opls_836  H836     1.0080     0.000    A    2.50000E-01   1.25520E-01
  opls_834  H834     1.0080     0.000    A    2.50000E-01   1.25520E-01
  opls_828  H828     1.0080     0.000    A    2.50000E-01   1.25520E-01
  opls_812  C812    12.0110     0.000    A    3.50000E-01   2.76144E-01
  opls_802  C802    12.0110     0.000    A    3.50000E-01   2.76144E-01
  opls_827  H827     1.0080     0.000    A    2.50000E-01   1.25520E-01
  opls_809  C809    12.0110     0.000    A    3.50000E-01   2.76144E-01
  opls_806  C806    12.0110     0.000    A    3.50000E-01   2.76144E-01
  opls_822  H822     1.0080     0.000    A    2.50000E-01   1.25520E-01
  opls_803  C803    12.0110     0.000    A    3.50000E-01   2.76144E-01
  opls_838  H838     1.0080     0.000    A    2.50000E-01   1.25520E-01
  opls_825  H825     1.0080     0.000    A    2.50000E-01   1.25520E-01
  opls_830  H830     1.0080     0.000    A    2.50000E-01   1.25520E-01
  opls_810  C810    12.0110     0.000    A    3.50000E-01   2.76144E-01
  opls_842  H842     1.0080     0.000    A    2.50000E-01   1.25520E-01
  opls_820  H820     1.0080     0.000    A    2.50000E-01   1.25520E-01
  opls_837  H837     1.0080     0.000    A    2.50000E-01   1.25520E-01
  opls_821  H821     1.0080     0.000    A    2.50000E-01   1.25520E-01
  opls_831  H831     1.0080     0.000    A    2.50000E-01   1.25520E-01
  opls_832  H832     1.0080     0.000    A    2.50000E-01   1.25520E-01
  opls_816  H816     1.0080     0.000    A    2.50000E-01   1.25520E-01
  opls_800  C800    12.0110     0.000    A    3.50000E-01   2.76144E-01
  opls_815  S815    32.0600     0.000    A    3.60000E-01   1.48532E+00
  opls_811  C811    12.0110     0.000    A    3.50000E-01   2.76144E-01
  opls_823  H823     1.0080     0.000    A    2.50000E-01   1.25520E-01
  opls_813  C813    12.0110     0.000    A    3.50000E-01   2.76144E-01
  opls_826  H826     1.0080     0.000    A    2.50000E-01   1.25520E-01
  opls_835  H835     1.0080     0.000    A    2.50000E-01   1.25520E-01
  opls_841  H841     1.0080     0.000    A    2.50000E-01   1.25520E-01
  opls_819  H819     1.0080     0.000    A    2.50000E-01   1.25520E-01
  opls_804  C804    12.0110     0.000    A    3.50000E-01   2.76144E-01
  opls_833  H833     1.0080     0.000    A    2.50000E-01   1.25520E-01
  opls_839  H839     1.0080     0.000    A    2.50000E-01   1.25520E-01
  opls_801  C801    12.0110     0.000    A    3.50000E-01   2.76144E-01
  opls_808  C808    12.0110     0.000    A    3.50000E-01   2.76144E-01
  opls_817  H817     1.0080     0.000    A    2.50000E-01   1.25520E-01
  opls_829  H829     1.0080     0.000    A    2.50000E-01   1.25520E-01
  opls_840  H840     1.0080     0.000    A    2.50000E-01   1.25520E-01
  opls_807  C807    12.0110     0.000    A    3.50000E-01   2.76144E-01
[ moleculetype ]
; Name               nrexcl
UNK                   3
[ atoms ]
;   nr       type  resnr residue  atom   cgnr     charge       mass  
     1   opls_800      1    UNK   C00      1    -0.2413    12.0110 
     2   opls_801      1    UNK   C01      1    -0.1726    12.0110 
     3   opls_802      1    UNK   C02      1    -0.0107    12.0110 
     4   opls_803      1    UNK   C03      1    -0.1597    12.0110 
     5   opls_804      1    UNK   C04      1    -0.1738    12.0110 
     6   opls_805      1    UNK   C05      1    -0.1656    12.0110 
     7   opls_806      1    UNK   C06      1    -0.0908    12.0110 
     8   opls_807      1    UNK   C07      1     -0.089    12.0110 
     9   opls_808      1    UNK   C08      1    -0.2359    12.0110 
    10   opls_809      1    UNK   C09      1    -0.1692    12.0110 
    11   opls_810      1    UNK   C0A      1    -0.0964    12.0110 
    12   opls_811      1    UNK   C0B      1    -0.2347    12.0110 
    13   opls_812      1    UNK   C0C      1    -0.0878    12.0110 
    14   opls_813      1    UNK   C0D      1    -0.2328    12.0110 
    15   opls_814      1    UNK   C0E      1     0.0163    12.0110 
    16   opls_815      1    UNK   S0F      1    -0.3817    32.0600 
    17   opls_816      1    UNK   H0G      1     0.0818     1.0080 
    18   opls_817      1    UNK   H0H      1     0.0818     1.0080 
    19   opls_818      1    UNK   H0I      1     0.0818     1.0080 
    20   opls_819      1    UNK   H0J      1     0.1026     1.0080 
    21   opls_820      1    UNK   H0K      1     0.1026     1.0080 
    22   opls_821      1    UNK   H0M      1     0.1211     1.0080 
    23   opls_822      1    UNK   H0N      1     0.0961     1.0080 
    24   opls_823      1    UNK   H0O      1     0.0961     1.0080 
    25   opls_824      1    UNK   H0P      1     0.0934     1.0080 
    26   opls_825      1    UNK   H0Q      1     0.0934     1.0080 
    27   opls_826      1    UNK   H0R      1     0.0864     1.0080 
    28   opls_827      1    UNK   H0S      1     0.0864     1.0080 
    29   opls_828      1    UNK   H0T      1     0.0839     1.0080 
    30   opls_829      1    UNK   H0U      1     0.0837     1.0080 
    31   opls_830      1    UNK   H0V      1     0.0852     1.0080 
    32   opls_831      1    UNK   H0W      1     0.0852     1.0080 
    33   opls_832      1    UNK   H0X      2     0.0852     1.0080 
    34   opls_833      1    UNK   H0Y      2     0.0852     1.0080 
    35   opls_834      1    UNK   H0Z      2     0.0852     1.0080 
    36   opls_835      1    UNK   H10      2     0.0853     1.0080 
    37   opls_836      1    UNK   H11      2     0.0866     1.0080 
    38   opls_837      1    UNK   H12      2     0.0866     1.0080 
    39   opls_838      1    UNK   H13      2     0.0866     1.0080 
    40   opls_839      1    UNK   H14      2     0.0882     1.0080 
    41   opls_840      1    UNK   H15      2     0.0884     1.0080 
    42   opls_841      1    UNK   H16      2     0.0884     1.0080 
    43   opls_842      1    UNK   H17      2     0.0884     1.0080 
    44   opls_843      1    UNK   H18      2     0.1104     1.0080 
[ bonds ]
    2     1     1      0.1529 224262.400
    3     2     1      0.1529 224262.400
    4     3     1      0.1529 224262.400
    5     4     1      0.1529 224262.400
    6     5     1      0.1529 224262.400
    7     6     1      0.1529 224262.400
    8     7     1      0.1529 224262.400
    9     8     1      0.1529 224262.400
   10     8     1      0.1529 224262.400
   11    10     1      0.1529 224262.400
   12    11     1      0.1529 224262.400
   13    11     1      0.1529 224262.400
   14    13     1      0.1529 224262.400
   15     7     1      0.1529 224262.400
   16     3     1      0.1810 185769.600
   17     1     1      0.1090 284512.000
   18     1     1      0.1090 284512.000
   19     1     1      0.1090 284512.000
   20     2     1      0.1090 284512.000
   21     2     1      0.1090 284512.000
   22     3     1      0.1090 284512.000
   23     4     1      0.1090 284512.000
   24     4     1      0.1090 284512.000
   25     5     1      0.1090 284512.000
   26     5     1      0.1090 284512.000
   27     6     1      0.1090 284512.000
   28     6     1      0.1090 284512.000
   29     7     1      0.1090 284512.000
   30     8     1      0.1090 284512.000
   31     9     1      0.1090 284512.000
   32     9     1      0.1090 284512.000
   33     9     1      0.1090 284512.000
   34    10     1      0.1090 284512.000
   35    10     1      0.1090 284512.000
   36    11     1      0.1090 284512.000
   37    12     1      0.1090 284512.000
   38    12     1      0.1090 284512.000
   39    12     1      0.1090 284512.000
   40    13     1      0.1090 284512.000
   41    14     1      0.1090 284512.000
   42    14     1      0.1090 284512.000
   43    14     1      0.1090 284512.000
   44    15     1      0.1090 284512.000
   15    13     1      0.1529 224262.400
   16    15     1      0.1810 185769.600

[ angles ]
;  ai    aj    ak funct            c0            c1            c2            c3 
    1     2     3     1    112.700    488.273
    2     3     4     1    112.700    488.273
    3     4     5     1    112.700    488.273
    4     5     6     1    112.700    488.273
    5     6     7     1    112.700    488.273
    6     7     8     1    112.700    488.273
    7     8     9     1    112.700    488.273
    7     8    10     1    112.700    488.273
    8    10    11     1    112.700    488.273
   10    11    12     1    112.700    488.273
   10    11    13     1    112.700    488.273
   11    13    14     1    112.700    488.273
    6     7    15     1    112.700    488.273
    2     3    16     1    114.700    418.400
    2     1    17     1    110.700    313.800
    2     1    18     1    110.700    313.800
    2     1    19     1    110.700    313.800
    1     2    20     1    110.700    313.800
    1     2    21     1    110.700    313.800
    2     3    22     1    110.700    313.800
    3     4    23     1    110.700    313.800
    3     4    24     1    110.700    313.800
    4     5    25     1    110.700    313.800
    4     5    26     1    110.700    313.800
    5     6    27     1    110.700    313.800
    5     6    28     1    110.700    313.800
    6     7    29     1    110.700    313.800
    7     8    30     1    110.700    313.800
    8     9    31     1    110.700    313.800
    8     9    32     1    110.700    313.800
    8     9    33     1    110.700    313.800
    8    10    34     1    110.700    313.800
    8    10    35     1    110.700    313.800
   10    11    36     1    110.700    313.800
   11    12    37     1    110.700    313.800
   11    12    38     1    110.700    313.800
   11    12    39     1    110.700    313.800
   11    13    40     1    110.700    313.800
   13    14    41     1    110.700    313.800
   13    14    42     1    110.700    313.800
   13    14    43     1    110.700    313.800
    7    15    44     1    110.700    313.800
   17     1    19     1    107.800    276.144
   23     4    24     1    107.800    276.144
    8     7    15     1    112.700    488.273
    7    15    13     1    112.700    488.273
   14    13    15     1    112.700    488.273
   31     9    33     1    107.800    276.144
   14    13    40     1    110.700    313.800
    3    16    15     1     98.900    518.816
   25     5    26     1    107.800    276.144
    6     5    26     1    110.700    313.800
   34    10    35     1    107.800    276.144
   37    12    39     1    107.800    276.144
   16    15    44     1    109.500    292.880
   37    12    38     1    107.800    276.144
    5     4    24     1    110.700    313.800
   41    14    43     1    107.800    276.144
    4     3    22     1    110.700    313.800
   18     1    19     1    107.800    276.144
   11    10    35     1    110.700    313.800
    7     6    27     1    110.700    313.800
   20     2    21     1    107.800    276.144
   11    10    34     1    110.700    313.800
   41    14    42     1    107.800    276.144
   32     9    33     1    107.800    276.144
   15    13    40     1    110.700    313.800
    9     8    30     1    110.700    313.800
    3     2    20     1    110.700    313.800
   27     6    28     1    107.800    276.144
    7     6    28     1    110.700    313.800
    9     8    10     1    112.700    488.273
   12    11    36     1    110.700    313.800
   12    11    13     1    112.700    488.273
    8     7    29     1    110.700    313.800
   42    14    43     1    107.800    276.144
   11    13    15     1    112.700    488.273
   13    11    36     1    110.700    313.800
   31     9    32     1    107.800    276.144
    3     2    21     1    110.700    313.800
    5     4    23     1    110.700    313.800
   16     3    22     1    109.500    292.880
   13    15    44     1    110.700    313.800
   38    12    39     1    107.800    276.144
    7    15    16     1    114.700    418.400
   15     7    29     1    110.700    313.800
   17     1    18     1    107.800    276.144
    6     5    25     1    110.700    313.800
    4     3    16     1    114.700    418.400
   10     8    30     1    110.700    313.800
   13    15    16     1    114.700    418.400

[ dihedrals ]
; IMPROPER DIHEDRAL ANGLES 
;  ai    aj    ak    al funct            c0            c1            c2            c3            c4            c5

[ dihedrals ]
; PROPER DIHEDRAL ANGLES
;  ai    aj    ak    al funct            c0            c1            c2            c3            c4            c5
    4    3    2    1        3       2.301  -1.464   0.837  -1.674  -0.000   0.000
   15   13   11   10        3       2.301  -1.464   0.837  -1.674  -0.000   0.000
   11   10    8    9        3       2.301  -1.464   0.837  -1.674  -0.000   0.000
   14   13   15    7        3       2.301  -1.464   0.837  -1.674  -0.000   0.000
   11   13   15    7        3       2.301  -1.464   0.837  -1.674  -0.000   0.000
   13   15    7    6        3       2.301  -1.464   0.837  -1.674  -0.000   0.000
   13   15    7    8        3       2.301  -1.464   0.837  -1.674  -0.000   0.000
   13   11   10    8        3       2.301  -1.464   0.837  -1.674  -0.000   0.000
   14   13   11   12        3       2.301  -1.464   0.837  -1.674  -0.000   0.000
   15   13   11   12        3       2.301  -1.464   0.837  -1.674  -0.000   0.000
   15    7    8    9        3       2.301  -1.464   0.837  -1.674  -0.000   0.000
   15    7    6    5        3       2.301  -1.464   0.837  -1.674  -0.000   0.000
   10    8    7    6        3       2.301  -1.464   0.837  -1.674  -0.000   0.000
   15    7    8   10        3       2.301  -1.464   0.837  -1.674  -0.000   0.000
   14   13   11   10        3       2.301  -1.464   0.837  -1.674  -0.000   0.000
   11   10    8    7        3       2.301  -1.464   0.837  -1.674  -0.000   0.000
    5    4    3    2        3       2.301  -1.464   0.837  -1.674  -0.000   0.000
    6    5    4    3        3       2.301  -1.464   0.837  -1.674  -0.000   0.000
    7    6    5    4        3       2.301  -1.464   0.837  -1.674  -0.000   0.000
    9    8    7    6        3       2.301  -1.464   0.837  -1.674  -0.000   0.000
   12   11   10    8        3       2.301  -1.464   0.837  -1.674  -0.000   0.000
    8    7    6    5        3       2.301  -1.464   0.837  -1.674  -0.000   0.000
    7   15   16    3        3       0.941   2.314   2.410  -5.665  -0.000   0.000
   13   15   16    3        3       0.941   2.314   2.410  -5.665  -0.000   0.000
   15   16    3    2        3       0.941   2.314   2.410  -5.665  -0.000   0.000
   15   16    3    4        3       0.941   2.314   2.410  -5.665  -0.000   0.000
   18    1    2    3        3       0.628   1.883   0.000  -2.510  -0.000   0.000
   35   10   11   13        3       0.628   1.883   0.000  -2.510  -0.000   0.000
   22    3    4    5        3       0.628   1.883   0.000  -2.510  -0.000   0.000
   38   12   11   13        3       0.628   1.883   0.000  -2.510  -0.000   0.000
   26    5    4    3        3       0.628   1.883   0.000  -2.510  -0.000   0.000
   28    6    7   15        3       0.628   1.883   0.000  -2.510  -0.000   0.000
   32    9    8   10        3       0.628   1.883   0.000  -2.510  -0.000   0.000
   29    7    8   10        3       0.628   1.883   0.000  -2.510  -0.000   0.000
   36   11   13   14        3       0.628   1.883   0.000  -2.510  -0.000   0.000
   40   13   11   10        3       0.628   1.883   0.000  -2.510  -0.000   0.000
   20    2    3    4        3       0.628   1.883   0.000  -2.510  -0.000   0.000
   29    7   15   13        3       0.628   1.883   0.000  -2.510  -0.000   0.000
   23    4    5    6        3       0.628   1.883   0.000  -2.510  -0.000   0.000
   25    5    4    3        3       0.628   1.883   0.000  -2.510  -0.000   0.000
   40   13   15    7        3       0.628   1.883   0.000  -2.510  -0.000   0.000
   27    6    5    4        3       0.628   1.883   0.000  -2.510  -0.000   0.000
   42   14   13   11        3       0.628   1.883   0.000  -2.510  -0.000   0.000
   33    9    8   10        3       0.628   1.883   0.000  -2.510  -0.000   0.000
   44   15    7    8        3       0.628   1.883   0.000  -2.510  -0.000   0.000
   42   14   13   15        3       0.628   1.883   0.000  -2.510  -0.000   0.000
   38   12   11   10        3       0.628   1.883   0.000  -2.510  -0.000   0.000
   27    6    7   15        3       0.628   1.883   0.000  -2.510  -0.000   0.000
   26    5    6    7        3       0.628   1.883   0.000  -2.510  -0.000   0.000
   29    7    6    5        3       0.628   1.883   0.000  -2.510  -0.000   0.000
   22    3    2    1        3       0.628   1.883   0.000  -2.510  -0.000   0.000
   43   14   13   15        3       0.628   1.883   0.000  -2.510  -0.000   0.000
   21    2    3    4        3       0.628   1.883   0.000  -2.510  -0.000   0.000
   35   10    8    9        3       0.628   1.883   0.000  -2.510  -0.000   0.000
   35   10    8    7        3       0.628   1.883   0.000  -2.510  -0.000   0.000
   24    4    5    6        3       0.628   1.883   0.000  -2.510  -0.000   0.000
   27    6    7    8        3       0.628   1.883   0.000  -2.510  -0.000   0.000
   32    9    8    7        3       0.628   1.883   0.000  -2.510  -0.000   0.000
   36   11   10    8        3       0.628   1.883   0.000  -2.510  -0.000   0.000
   24    4    3    2        3       0.628   1.883   0.000  -2.510  -0.000   0.000
   44   15    7    6        3       0.628   1.883   0.000  -2.510  -0.000   0.000
   34   10    8    9        3       0.628   1.883   0.000  -2.510  -0.000   0.000
   44   15   13   14        3       0.628   1.883   0.000  -2.510  -0.000   0.000
   39   12   11   13        3       0.628   1.883   0.000  -2.510  -0.000   0.000
   30    8    7   15        3       0.628   1.883   0.000  -2.510  -0.000   0.000
   23    4    3    2        3       0.628   1.883   0.000  -2.510  -0.000   0.000
   31    9    8   10        3       0.628   1.883   0.000  -2.510  -0.000   0.000
   40   13   11   12        3       0.628   1.883   0.000  -2.510  -0.000   0.000
   37   12   11   13        3       0.628   1.883   0.000  -2.510  -0.000   0.000
   37   12   11   10        3       0.628   1.883   0.000  -2.510  -0.000   0.000
   35   10   11   12        3       0.628   1.883   0.000  -2.510  -0.000   0.000
   25    5    6    7        3       0.628   1.883   0.000  -2.510  -0.000   0.000
   28    6    5    4        3       0.628   1.883   0.000  -2.510  -0.000   0.000
   34   10   11   12        3       0.628   1.883   0.000  -2.510  -0.000   0.000
   19    1    2    3        3       0.628   1.883   0.000  -2.510  -0.000   0.000
   39   12   11   10        3       0.628   1.883   0.000  -2.510  -0.000   0.000
   31    9    8    7        3       0.628   1.883   0.000  -2.510  -0.000   0.000
   36   11   13   15        3       0.628   1.883   0.000  -2.510  -0.000   0.000
   28    6    7    8        3       0.628   1.883   0.000  -2.510  -0.000   0.000
   29    7    8    9        3       0.628   1.883   0.000  -2.510  -0.000   0.000
   30    8    7    6        3       0.628   1.883   0.000  -2.510  -0.000   0.000
   30    8   10   11        3       0.628   1.883   0.000  -2.510  -0.000   0.000
   41   14   13   15        3       0.628   1.883   0.000  -2.510  -0.000   0.000
   17    1    2    3        3       0.628   1.883   0.000  -2.510  -0.000   0.000
   44   15   13   11        3       0.628   1.883   0.000  -2.510  -0.000   0.000
   41   14   13   11        3       0.628   1.883   0.000  -2.510  -0.000   0.000
   34   10    8    7        3       0.628   1.883   0.000  -2.510  -0.000   0.000
   33    9    8    7        3       0.628   1.883   0.000  -2.510  -0.000   0.000
   43   14   13   11        3       0.628   1.883   0.000  -2.510  -0.000   0.000
   34   10   11   13        3       0.628   1.883   0.000  -2.510  -0.000   0.000
   38   12   11   36        3       0.628   1.883   0.000  -2.510  -0.000   0.000
   36   11   10   35        3       0.628   1.883   0.000  -2.510  -0.000   0.000
   30    8    7   29        3       0.628   1.883   0.000  -2.510  -0.000   0.000
   28    6    5   25        3       0.628   1.883   0.000  -2.510  -0.000   0.000
   27    6    5   26        3       0.628   1.883   0.000  -2.510  -0.000   0.000
   36   11   10   34        3       0.628   1.883   0.000  -2.510  -0.000   0.000
   21    2    1   19        3       0.628   1.883   0.000  -2.510  -0.000   0.000
   31    9    8   30        3       0.628   1.883   0.000  -2.510  -0.000   0.000
   41   14   13   40        3       0.628   1.883   0.000  -2.510  -0.000   0.000
   26    5    4   24        3       0.628   1.883   0.000  -2.510  -0.000   0.000
   37   12   11   36        3       0.628   1.883   0.000  -2.510  -0.000   0.000
   29    7    6   27        3       0.628   1.883   0.000  -2.510  -0.000   0.000
   44   15   13   40        3       0.628   1.883   0.000  -2.510  -0.000   0.000
   22    3    2   20        3       0.628   1.883   0.000  -2.510  -0.000   0.000
   32    9    8   30        3       0.628   1.883   0.000  -2.510  -0.000   0.000
   35   10    8   30        3       0.628   1.883   0.000  -2.510  -0.000   0.000
   33    9    8   30        3       0.628   1.883   0.000  -2.510  -0.000   0.000
   44   15    7   29        3       0.628   1.883   0.000  -2.510  -0.000   0.000
   29    7    6   28        3       0.628   1.883   0.000  -2.510  -0.000   0.000
   27    6    5   25        3       0.628   1.883   0.000  -2.510  -0.000   0.000
   20    2    1   19        3       0.628   1.883   0.000  -2.510  -0.000   0.000
   21    2    1   18        3       0.628   1.883   0.000  -2.510  -0.000   0.000
   40   13   11   36        3       0.628   1.883   0.000  -2.510  -0.000   0.000
   20    2    1   17        3       0.628   1.883   0.000  -2.510  -0.000   0.000
   25    5    4   24        3       0.628   1.883   0.000  -2.510  -0.000   0.000
   24    4    3   22        3       0.628   1.883   0.000  -2.510  -0.000   0.000
   26    5    4   23        3       0.628   1.883   0.000  -2.510  -0.000   0.000
   43   14   13   40        3       0.628   1.883   0.000  -2.510  -0.000   0.000
   39   12   11   36        3       0.628   1.883   0.000  -2.510  -0.000   0.000
   34   10    8   30        3       0.628   1.883   0.000  -2.510  -0.000   0.000
   23    4    3   22        3       0.628   1.883   0.000  -2.510  -0.000   0.000
   21    2    1   17        3       0.628   1.883   0.000  -2.510  -0.000   0.000
   28    6    5   26        3       0.628   1.883   0.000  -2.510  -0.000   0.000
   42   14   13   40        3       0.628   1.883   0.000  -2.510  -0.000   0.000
   20    2    1   18        3       0.628   1.883   0.000  -2.510  -0.000   0.000
   25    5    4   23        3       0.628   1.883   0.000  -2.510  -0.000   0.000
   22    3    2   21        3       0.628   1.883   0.000  -2.510  -0.000   0.000
   29    7   15   16        3       0.946   2.837   0.000  -3.782  -0.000   0.000
   24    4    3   16        3       0.946   2.837   0.000  -3.782  -0.000   0.000
   23    4    3   16        3       0.946   2.837   0.000  -3.782  -0.000   0.000
   20    2    3   16        3       0.946   2.837   0.000  -3.782  -0.000   0.000
   21    2    3   16        3       0.946   2.837   0.000  -3.782  -0.000   0.000
   40   13   15   16        3       0.946   2.837   0.000  -3.782  -0.000   0.000
   22    3   16   15        3       1.354   4.061   0.000  -5.414  -0.000   0.000
   44   15   16    3        3       1.354   4.061   0.000  -5.414  -0.000   0.000
   16    3    4    5        3       3.425  -3.860   2.594  -2.159  -0.000   0.000
   16   15    7    6        3       3.425  -3.860   2.594  -2.159  -0.000   0.000
   16    3    2    1        3       3.425  -3.860   2.594  -2.159  -0.000   0.000
   16   15   13   11        3       3.425  -3.860   2.594  -2.159  -0.000   0.000
   16   15   13   14        3       3.425  -3.860   2.594  -2.159  -0.000   0.000
   16   15    7    8        3       3.425  -3.860   2.594  -2.159  -0.000   0.000

[ pairs ]
     1     4    1
     2     5    1
     3     6    1
     3     7    1
     4     7    1
     5     8    1
     6     9    1
     6    10    1
     3    13    1
     2    15    1
     1    16    1
     7    11    1
     6    13    1
     4    15    1
     9    11    1
     8    12    1
     5    15    1
     3    17    1
     8    13    1
     7    14    1
     5    16    1
     3    18    1
     6    16    1
     3    19    1
     1    22    1
    10    14    1
     9    15    1
     8    16    1
     4    20    1
    10    15    1
     4    21    1
     2    23    1
    12    14    1
     2    24    1
    12    15    1
    11    16    1
     5    22    1
     3    25    1
     6    23    1
     3    26    1
    14    16    1
     6    24    1
     4    27    1
     7    25    1
     4    28    1
     7    26    1
     5    29    1
     8    27    1
    16    20    1
     8    28    1
     6    30    1
    17    20    1
    16    21    1
    15    22    1
    18    20    1
    17    21    1
     9    29    1
     7    31    1
    19    20    1
    18    21    1
    16    23    1
    10    29    1
     7    32    1
    19    21    1
    16    24    1
     7    33    1
    11    30    1
    10    31    1
     7    34    1
    20    22    1
    15    27    1
    13    29    1
    10    32    1
     7    35    1
    21    22    1
    15    28    1
    10    33    1
     9    34    1
     9    35    1
     8    36    1
    22    23    1
    16    29    1
    15    30    1
    22    24    1
    12    34    1
    13    34    1
    12    35    1
    10    37    1
     7    40    1
     3    44    1
    23    25    1
    13    35    1
    10    38    1
    24    25    1
    23    26    1
    10    39    1
    24    26    1
    14    36    1
    13    37    1
    10    40    1
     6    44    1
    15    36    1
    13    38    1
    25    27    1
    13    39    1
    12    40    1
    11    41    1
     8    44    1
    26    27    1
    25    28    1
    11    42    1
    26    28    1
    11    43    1
    11    44    1
    27    29    1
    16    40    1
    15    41    1
    28    29    1
    15    42    1
    15    43    1
    14    44    1
    29    30    1
    30    31    1
    30    32    1
    30    33    1
    30    34    1
    30    35    1
    34    36    1
    35    36    1
    36    37    1
    29    44    1
    36    38    1
    36    39    1
    36    40    1
    40    41    1
    40    42    1
    40    43    1
    40    44    1

