LIGPARGEN GENERATED GRO FILE
   44
    1UNK    C00    1   0.100   0.100   0.000
    1UNK    C01    2  -0.052   0.100   0.000
    1UNK    C02    3  -0.115   0.100   0.141
    1UNK    C03    4  -0.097  -0.028   0.221
    1UNK    C04    5  -0.150  -0.157   0.160
    1UNK    C05    6  -0.295  -0.186   0.192
    1UNK    C06    7  -0.407  -0.098   0.135
    1UNK    C07    8  -0.447  -0.126  -0.012
    1UNK    C08    9  -0.343  -0.098  -0.120
    1UNK    C09   10  -0.581  -0.057  -0.045
    1UNK    C0A   11  -0.593   0.090  -0.002
    1UNK    C0B   12  -0.530   0.184  -0.105
    1UNK    C0C   13  -0.549   0.109   0.146
    1UNK    C0D   14  -0.575   0.252   0.196
    1UNK    C0E   15  -0.407   0.051   0.180
    1UNK    S0F   16  -0.282   0.171   0.123
    1UNK    H0G   17   0.137   0.100  -0.103
    1UNK    H0H   18   0.140   0.012   0.050
    1UNK    H0I   19   0.139   0.190   0.049
    1UNK    H0J   20  -0.087   0.015  -0.059
    1UNK    H0K   21  -0.083   0.191  -0.055
    1UNK    H0M   22  -0.062   0.177   0.198
    1UNK    H0N   23  -0.137  -0.015   0.323
    1UNK    H0O   24   0.011  -0.043   0.235
    1UNK    H0P   25  -0.092  -0.239   0.204
    1UNK    H0Q   26  -0.130  -0.163   0.053
    1UNK    H0R   27  -0.306  -0.186   0.302
    1UNK    H0S   28  -0.316  -0.290   0.162
    1UNK    H0T   29  -0.493  -0.139   0.189
    1UNK    H0U   30  -0.467  -0.233  -0.019
    1UNK    H0V   31  -0.302   0.002  -0.115
    1UNK    H0W   32  -0.386  -0.111  -0.220
    1UNK    H0X   33  -0.260  -0.170  -0.113
    1UNK    H0Y   34  -0.659  -0.113   0.009
    1UNK    H0Z   35  -0.605  -0.069  -0.151
    1UNK    H10   36  -0.701   0.113  -0.006
    1UNK    H11   37  -0.421   0.178  -0.110
    1UNK    H12   38  -0.556   0.289  -0.084
    1UNK    H13   39  -0.567   0.162  -0.206
    1UNK    H14   40  -0.620   0.048   0.204
    1UNK    H15   41  -0.518   0.328   0.142
    1UNK    H16   42  -0.550   0.260   0.303
    1UNK    H17   43  -0.681   0.277   0.185
    1UNK    H18   44  -0.398   0.051   0.289
   1.00000   1.00000   1.00000

