
;
; GENERATED BY LigParGen Server
; Jorgensen Lab @ Yale University 
;
[ atomtypes ]
  opls_818  H818     1.0080     0.000    A    2.50000E-01   1.25520E-01
  opls_824  H824     1.0080     0.000    A    2.50000E-01   1.25520E-01
  opls_805  C805    12.0110     0.000    A    3.50000E-01   2.76144E-01
  opls_833  H833     1.0080     0.000    A    2.50000E-01   1.25520E-01
  opls_836  H836     1.0080     0.000    A    2.50000E-01   1.25520E-01
  opls_834  H834     1.0080     0.000    A    2.50000E-01   1.25520E-01
  opls_828  H828     1.0080     0.000    A    2.50000E-01   1.25520E-01
  opls_832  H832     1.0080     0.000    A    2.50000E-01   1.25520E-01
  opls_802  C802    12.0110     0.000    A    3.50000E-01   2.76144E-01
  opls_815  H815     1.0080     0.000    A    2.50000E-01   1.25520E-01
  opls_809  C809    12.0110     0.000    A    3.50000E-01   2.76144E-01
  opls_838  H838     1.0080     0.000    A    2.50000E-01   1.25520E-01
  opls_822  H822     1.0080     0.000    A    2.50000E-01   1.25520E-01
  opls_803  C803    12.0110     0.000    A    3.50000E-01   2.76144E-01
  opls_825  H825     1.0080     0.000    A    2.50000E-01   1.25520E-01
  opls_826  H826     1.0080     0.000    A    2.50000E-01   1.25520E-01
  opls_830  H830     1.0080     0.000    A    2.50000E-01   1.25520E-01
  opls_810  C810    12.0110     0.000    A    3.50000E-01   2.76144E-01
  opls_842  H842     1.0080     0.000    A    2.50000E-01   1.25520E-01
  opls_820  H820     1.0080     0.000    A    2.50000E-01   1.25520E-01
  opls_837  H837     1.0080     0.000    A    2.50000E-01   1.25520E-01
  opls_821  H821     1.0080     0.000    A    2.50000E-01   1.25520E-01
  opls_831  H831     1.0080     0.000    A    2.50000E-01   1.25520E-01
  opls_816  H816     1.0080     0.000    A    2.50000E-01   1.25520E-01
  opls_800  C800    12.0110     0.000    A    3.50000E-01   2.76144E-01
  opls_814  C814    12.0110     0.000    A    3.45000E-01   3.47272E-01
  opls_806  C806    12.0110     0.000    A    3.50000E-01   2.76144E-01
  opls_823  H823     1.0080     0.000    A    2.50000E-01   1.25520E-01
  opls_813  C813    12.0110     0.000    A    3.50000E-01   2.76144E-01
  opls_811  C811    12.0110     0.000    A    3.45000E-01   3.47272E-01
  opls_835  H835     1.0080     0.000    A    2.50000E-01   1.25520E-01
  opls_841  H841     1.0080     0.000    A    2.50000E-01   1.25520E-01
  opls_819  H819     1.0080     0.000    A    2.50000E-01   1.25520E-01
  opls_804  C804    12.0110     0.000    A    3.50000E-01   2.76144E-01
  opls_827  H827     1.0080     0.000    A    2.50000E-01   1.25520E-01
  opls_839  H839     1.0080     0.000    A    2.50000E-01   1.25520E-01
  opls_801  C801    12.0110     0.000    A    3.50000E-01   2.76144E-01
  opls_808  C808    12.0110     0.000    A    3.50000E-01   2.76144E-01
  opls_817  H817     1.0080     0.000    A    2.50000E-01   1.25520E-01
  opls_812  C812    12.0110     0.000    A    3.45000E-01   3.47272E-01
  opls_829  H829     1.0080     0.000    A    2.50000E-01   1.25520E-01
  opls_840  H840     1.0080     0.000    A    2.50000E-01   1.25520E-01
  opls_807  C807    12.0110     0.000    A    3.50000E-01   2.76144E-01
[ moleculetype ]
; Name               nrexcl
UNK                   3
[ atoms ]
;   nr       type  resnr residue  atom   cgnr     charge       mass  
     1   opls_800      1    UNK   C00      1    -0.2335    12.0110 
     2   opls_801      1    UNK   C01      1    -0.1108    12.0110 
     3   opls_802      1    UNK   C02      1     -0.237    12.0110 
     4   opls_803      1    UNK   C03      1    -0.0682    12.0110 
     5   opls_804      1    UNK   C04      1    -0.1644    12.0110 
     6   opls_805      1    UNK   C05      1    -0.1048    12.0110 
     7   opls_806      1    UNK   C06      1    -0.2322    12.0110 
     8   opls_807      1    UNK   C07      1    -0.0559    12.0110 
     9   opls_808      1    UNK   C08      1    -0.1088    12.0110 
    10   opls_809      1    UNK   C09      1    -0.2397    12.0110 
    11   opls_810      1    UNK   C0A      1    -0.2356    12.0110 
    12   opls_811      1    UNK   C0B      1     -0.153    12.0110 
    13   opls_812      1    UNK   C0C      1    -0.1474    12.0110 
    14   opls_813      1    UNK   C0D      1    -0.2086    12.0110 
    15   opls_814      1    UNK   C0E      1    -0.1919    12.0110 
    16   opls_815      1    UNK   H0F      1     0.0809     1.0080 
    17   opls_816      1    UNK   H0G      1     0.0809     1.0080 
    18   opls_817      1    UNK   H0H      1     0.0809     1.0080 
    19   opls_818      1    UNK   H0I      1     0.0961     1.0080 
    20   opls_819      1    UNK   H0J      1     0.0811     1.0080 
    21   opls_820      1    UNK   H0K      1     0.0811     1.0080 
    22   opls_821      1    UNK   H0M      1     0.0811     1.0080 
    23   opls_822      1    UNK   H0N      1     0.0967     1.0080 
    24   opls_823      1    UNK   H0O      1     0.0875     1.0080 
    25   opls_824      1    UNK   H0P      1     0.0875     1.0080 
    26   opls_825      1    UNK   H0Q      1     0.0892     1.0080 
    27   opls_826      1    UNK   H0R      1     0.0823     1.0080 
    28   opls_827      1    UNK   H0S      1     0.0823     1.0080 
    29   opls_828      1    UNK   H0T      1     0.0823     1.0080 
    30   opls_829      1    UNK   H0U      1     0.0941     1.0080 
    31   opls_830      1    UNK   H0V      1     0.1022     1.0080 
    32   opls_831      1    UNK   H0W      1     0.0803     1.0080 
    33   opls_832      1    UNK   H0X      2     0.0803     1.0080 
    34   opls_833      1    UNK   H0Y      2     0.0803     1.0080 
    35   opls_834      1    UNK   H0Z      2     0.0812     1.0080 
    36   opls_835      1    UNK   H10      2     0.0812     1.0080 
    37   opls_836      1    UNK   H11      2     0.0812     1.0080 
    38   opls_837      1    UNK   H12      2     0.1203     1.0080 
    39   opls_838      1    UNK   H13      2      0.118     1.0080 
    40   opls_839      1    UNK   H14      2     0.0864     1.0080 
    41   opls_840      1    UNK   H15      2     0.0864     1.0080 
    42   opls_841      1    UNK   H16      2     0.0864     1.0080 
    43   opls_842      1    UNK   H17      2     0.1238     1.0080 
[ bonds ]
    2     1     1      0.1529 224262.400
    3     2     1      0.1529 224262.400
    4     2     1      0.1529 224262.400
    5     4     1      0.1529 224262.400
    6     5     1      0.1529 224262.400
    7     6     1      0.1529 224262.400
    8     6     1      0.1529 224262.400
    9     8     1      0.1529 224262.400
   10     9     1      0.1529 224262.400
   11     9     1      0.1529 224262.400
   12     8     1      0.1510 234304.000
   13    12     1      0.1520 217568.000
   14    13     1      0.1510 234304.000
   15     4     1      0.1510 234304.000
   16     1     1      0.1090 284512.000
   17     1     1      0.1090 284512.000
   18     1     1      0.1090 284512.000
   19     2     1      0.1090 284512.000
   20     3     1      0.1090 284512.000
   21     3     1      0.1090 284512.000
   22     3     1      0.1090 284512.000
   23     4     1      0.1090 284512.000
   24     5     1      0.1090 284512.000
   25     5     1      0.1090 284512.000
   26     6     1      0.1090 284512.000
   27     7     1      0.1090 284512.000
   28     7     1      0.1090 284512.000
   29     7     1      0.1090 284512.000
   30     8     1      0.1090 284512.000
   31     9     1      0.1090 284512.000
   32    10     1      0.1090 284512.000
   33    10     1      0.1090 284512.000
   34    10     1      0.1090 284512.000
   35    11     1      0.1090 284512.000
   36    11     1      0.1090 284512.000
   37    11     1      0.1090 284512.000
   38    12     1      0.1088 284512.000
   39    13     1      0.1088 284512.000
   40    14     1      0.1090 284512.000
   41    14     1      0.1090 284512.000
   42    14     1      0.1090 284512.000
   43    15     1      0.1088 284512.000
   15    12     1      0.1520 217568.000
   15    13     1      0.1520 217568.000

[ angles ]
;  ai    aj    ak funct            c0            c1            c2            c3 
    1     2     3     1    112.700    488.273
    1     2     4     1    112.700    488.273
    2     4     5     1    112.700    488.273
    4     5     6     1    112.700    488.273
    5     6     7     1    112.700    488.273
    5     6     8     1    112.700    488.273
    6     8     9     1    112.700    488.273
    8     9    10     1    112.700    488.273
    8     9    11     1    112.700    488.273
    6     8    12     1    112.700    488.273
    8    12    13     1    117.200    313.800
   12    13    14     1    117.200    313.800
    2     4    15     1    112.700    488.273
    2     1    16     1    110.700    313.800
    2     1    17     1    110.700    313.800
    2     1    18     1    110.700    313.800
    1     2    19     1    110.700    313.800
    2     3    20     1    110.700    313.800
    2     3    21     1    110.700    313.800
    2     3    22     1    110.700    313.800
    2     4    23     1    110.700    313.800
    4     5    24     1    110.700    313.800
    4     5    25     1    110.700    313.800
    5     6    26     1    110.700    313.800
    6     7    27     1    110.700    313.800
    6     7    28     1    110.700    313.800
    6     7    29     1    110.700    313.800
    6     8    30     1    110.700    313.800
    8     9    31     1    110.700    313.800
    9    10    32     1    110.700    313.800
    9    10    33     1    110.700    313.800
    9    10    34     1    110.700    313.800
    9    11    35     1    110.700    313.800
    9    11    36     1    110.700    313.800
    9    11    37     1    110.700    313.800
    8    12    38     1    114.300    292.880
   12    13    39     1    117.200    313.800
   13    14    40     1    110.700    313.800
   13    14    41     1    110.700    313.800
   13    14    42     1    110.700    313.800
    4    15    43     1    114.300    292.880
   15     4    23     1    110.700    313.800
   35    11    36     1    107.800    276.144
   13    12    38     1    117.200    313.800
   12    15    43     1    117.200    313.800
   21     3    22     1    107.800    276.144
    4    15    13     1    117.200    313.800
   12    13    15     1     83.000    251.040
    5     4    15     1    112.700    488.273
   16     1    17     1    107.800    276.144
    8     6    26     1    110.700    313.800
   13    15    43     1    117.200    313.800
   14    13    39     1    114.300    292.880
   10     9    11     1    112.700    488.273
   40    14    42     1    107.800    276.144
   24     5    25     1    107.800    276.144
   28     7    29     1    107.800    276.144
   20     3    22     1    107.800    276.144
   36    11    37     1    107.800    276.144
   10     9    31     1    110.700    313.800
   12     8    30     1    110.700    313.800
   41    14    42     1    107.800    276.144
   15    12    38     1    117.200    313.800
   27     7    29     1    107.800    276.144
   40    14    41     1    107.800    276.144
    9     8    30     1    110.700    313.800
   27     7    28     1    107.800    276.144
   14    13    15     1    117.200    313.800
   16     1    18     1    107.800    276.144
    4    15    12     1    117.200    313.800
   17     1    18     1    107.800    276.144
    4     2    19     1    110.700    313.800
   15    13    39     1    117.200    313.800
   32    10    34     1    107.800    276.144
   12    15    13     1     83.000    251.040
    8    12    15     1    117.200    313.800
   35    11    37     1    107.800    276.144
    6     5    24     1    110.700    313.800
    9     8    12     1    112.700    488.273
    5     4    23     1    110.700    313.800
    7     6    26     1    110.700    313.800
    3     2    19     1    110.700    313.800
    3     2     4     1    112.700    488.273
   32    10    33     1    107.800    276.144
    7     6     8     1    112.700    488.273
   13    12    15     1     83.000    251.040
   33    10    34     1    107.800    276.144
    6     5    25     1    110.700    313.800
   11     9    31     1    110.700    313.800
   20     3    21     1    107.800    276.144

[ dihedrals ]
; IMPROPER DIHEDRAL ANGLES 
;  ai    aj    ak    al funct            c0            c1            c2            c3            c4            c5

[ dihedrals ]
; PROPER DIHEDRAL ANGLES
;  ai    aj    ak    al funct            c0            c1            c2            c3            c4            c5
   11    9    8    6        3       2.301  -1.464   0.837  -1.674  -0.000   0.000
    9    8    6    7        3       2.301  -1.464   0.837  -1.674  -0.000   0.000
    8    6    5    4        3       2.301  -1.464   0.837  -1.674  -0.000   0.000
   10    9    8    6        3       2.301  -1.464   0.837  -1.674  -0.000   0.000
    5    4    2    3        3       2.301  -1.464   0.837  -1.674  -0.000   0.000
    5    4    2    1        3       2.301  -1.464   0.837  -1.674  -0.000   0.000
    9    8    6    5        3       2.301  -1.464   0.837  -1.674  -0.000   0.000
    6    5    4    2        3       2.301  -1.464   0.837  -1.674  -0.000   0.000
    7    6    5    4        3       2.301  -1.464   0.837  -1.674  -0.000   0.000
   14   13   12    8        3       0.000   0.000   0.000  -0.000  -0.000   0.000
   14   13   15    4        3       0.000   0.000   0.000  -0.000  -0.000   0.000
    8   12   15    4        3       0.000   0.000   0.000  -0.000  -0.000   0.000
   14   13   15   12        3       0.000   0.000   0.000  -0.000  -0.000   0.000
   12    8    9   10        3       2.301  -1.464   0.837  -1.674  -0.000   0.000
   15    4    5    6        3       2.301  -1.464   0.837  -1.674  -0.000   0.000
   12    8    6    7        3       2.301  -1.464   0.837  -1.674  -0.000   0.000
   12    8    9   11        3       2.301  -1.464   0.837  -1.674  -0.000   0.000
   15    4    2    1        3       2.301  -1.464   0.837  -1.674  -0.000   0.000
   15    4    2    3        3       2.301  -1.464   0.837  -1.674  -0.000   0.000
   12    8    6    5        3       2.301  -1.464   0.837  -1.674  -0.000   0.000
   12   15    4    2        3       0.000   0.000   0.000  -0.000  -0.000   0.000
   15   12    8    9        3       0.000   0.000   0.000  -0.000  -0.000   0.000
   12   15    4    5        3       0.000   0.000   0.000  -0.000  -0.000   0.000
   13   12    8    6        3       0.000   0.000   0.000  -0.000  -0.000   0.000
   13   12    8    9        3       0.000   0.000   0.000  -0.000  -0.000   0.000
   13   15    4    2        3       0.000   0.000   0.000  -0.000  -0.000   0.000
   15   12    8    6        3       0.000   0.000   0.000  -0.000  -0.000   0.000
   13   15    4    5        3       0.000   0.000   0.000  -0.000  -0.000   0.000
   28    7    6    5        3       0.628   1.883   0.000  -2.510  -0.000   0.000
   30    8    9   10        3       0.628   1.883   0.000  -2.510  -0.000   0.000
   25    5    6    7        3       0.628   1.883   0.000  -2.510  -0.000   0.000
   24    5    6    8        3       0.628   1.883   0.000  -2.510  -0.000   0.000
   35   11    9   10        3       0.628   1.883   0.000  -2.510  -0.000   0.000
   36   11    9    8        3       0.628   1.883   0.000  -2.510  -0.000   0.000
   34   10    9    8        3       0.628   1.883   0.000  -2.510  -0.000   0.000
   31    9    8    6        3       0.628   1.883   0.000  -2.510  -0.000   0.000
   25    5    4    2        3       0.628   1.883   0.000  -2.510  -0.000   0.000
   33   10    9   11        3       0.628   1.883   0.000  -2.510  -0.000   0.000
   24    5    4    2        3       0.628   1.883   0.000  -2.510  -0.000   0.000
   30    8    9   11        3       0.628   1.883   0.000  -2.510  -0.000   0.000
   33   10    9    8        3       0.628   1.883   0.000  -2.510  -0.000   0.000
   30    8    6    5        3       0.628   1.883   0.000  -2.510  -0.000   0.000
   29    7    6    8        3       0.628   1.883   0.000  -2.510  -0.000   0.000
   23    4    2    1        3       0.628   1.883   0.000  -2.510  -0.000   0.000
   36   11    9   10        3       0.628   1.883   0.000  -2.510  -0.000   0.000
   23    4    5    6        3       0.628   1.883   0.000  -2.510  -0.000   0.000
   26    6    8    9        3       0.628   1.883   0.000  -2.510  -0.000   0.000
   34   10    9   11        3       0.628   1.883   0.000  -2.510  -0.000   0.000
   24    5    6    7        3       0.628   1.883   0.000  -2.510  -0.000   0.000
   16    1    2    3        3       0.628   1.883   0.000  -2.510  -0.000   0.000
   23    4    2    3        3       0.628   1.883   0.000  -2.510  -0.000   0.000
   17    1    2    4        3       0.628   1.883   0.000  -2.510  -0.000   0.000
   18    1    2    4        3       0.628   1.883   0.000  -2.510  -0.000   0.000
   21    3    2    1        3       0.628   1.883   0.000  -2.510  -0.000   0.000
   32   10    9    8        3       0.628   1.883   0.000  -2.510  -0.000   0.000
   19    2    4    5        3       0.628   1.883   0.000  -2.510  -0.000   0.000
   27    7    6    5        3       0.628   1.883   0.000  -2.510  -0.000   0.000
   37   11    9   10        3       0.628   1.883   0.000  -2.510  -0.000   0.000
   25    5    6    8        3       0.628   1.883   0.000  -2.510  -0.000   0.000
   20    3    2    1        3       0.628   1.883   0.000  -2.510  -0.000   0.000
   22    3    2    4        3       0.628   1.883   0.000  -2.510  -0.000   0.000
   26    6    5    4        3       0.628   1.883   0.000  -2.510  -0.000   0.000
   35   11    9    8        3       0.628   1.883   0.000  -2.510  -0.000   0.000
   22    3    2    1        3       0.628   1.883   0.000  -2.510  -0.000   0.000
   27    7    6    8        3       0.628   1.883   0.000  -2.510  -0.000   0.000
   20    3    2    4        3       0.628   1.883   0.000  -2.510  -0.000   0.000
   37   11    9    8        3       0.628   1.883   0.000  -2.510  -0.000   0.000
   30    8    6    7        3       0.628   1.883   0.000  -2.510  -0.000   0.000
   29    7    6    5        3       0.628   1.883   0.000  -2.510  -0.000   0.000
   16    1    2    4        3       0.628   1.883   0.000  -2.510  -0.000   0.000
   17    1    2    3        3       0.628   1.883   0.000  -2.510  -0.000   0.000
   32   10    9   11        3       0.628   1.883   0.000  -2.510  -0.000   0.000
   28    7    6    8        3       0.628   1.883   0.000  -2.510  -0.000   0.000
   21    3    2    4        3       0.628   1.883   0.000  -2.510  -0.000   0.000
   18    1    2    3        3       0.628   1.883   0.000  -2.510  -0.000   0.000
   19    2    4   15        3       0.628   1.883   0.000  -2.510  -0.000   0.000
   31    9    8   12        3       0.628   1.883   0.000  -2.510  -0.000   0.000
   25    5    4   15        3       0.628   1.883   0.000  -2.510  -0.000   0.000
   24    5    4   15        3       0.628   1.883   0.000  -2.510  -0.000   0.000
   26    6    8   12        3       0.628   1.883   0.000  -2.510  -0.000   0.000
   23    4    2   19        3       0.628   1.883   0.000  -2.510  -0.000   0.000
   31    9    8   30        3       0.628   1.883   0.000  -2.510  -0.000   0.000
   19    2    1   17        3       0.628   1.883   0.000  -2.510  -0.000   0.000
   19    2    1   18        3       0.628   1.883   0.000  -2.510  -0.000   0.000
   34   10    9   31        3       0.628   1.883   0.000  -2.510  -0.000   0.000
   21    3    2   19        3       0.628   1.883   0.000  -2.510  -0.000   0.000
   26    6    5   24        3       0.628   1.883   0.000  -2.510  -0.000   0.000
   26    6    5   25        3       0.628   1.883   0.000  -2.510  -0.000   0.000
   25    5    4   23        3       0.628   1.883   0.000  -2.510  -0.000   0.000
   32   10    9   31        3       0.628   1.883   0.000  -2.510  -0.000   0.000
   22    3    2   19        3       0.628   1.883   0.000  -2.510  -0.000   0.000
   27    7    6   26        3       0.628   1.883   0.000  -2.510  -0.000   0.000
   19    2    1   16        3       0.628   1.883   0.000  -2.510  -0.000   0.000
   20    3    2   19        3       0.628   1.883   0.000  -2.510  -0.000   0.000
   35   11    9   31        3       0.628   1.883   0.000  -2.510  -0.000   0.000
   29    7    6   26        3       0.628   1.883   0.000  -2.510  -0.000   0.000
   33   10    9   31        3       0.628   1.883   0.000  -2.510  -0.000   0.000
   24    5    4   23        3       0.628   1.883   0.000  -2.510  -0.000   0.000
   37   11    9   31        3       0.628   1.883   0.000  -2.510  -0.000   0.000
   28    7    6   26        3       0.628   1.883   0.000  -2.510  -0.000   0.000
   30    8    6   26        3       0.628   1.883   0.000  -2.510  -0.000   0.000
   36   11    9   31        3       0.628   1.883   0.000  -2.510  -0.000   0.000
   41   14   13   15        3       0.628   1.883   0.000  -2.510  -0.000   0.000
   40   14   13   12        3       0.628   1.883   0.000  -2.510  -0.000   0.000
   23    4   15   13        3       0.628   1.883   0.000  -2.510  -0.000   0.000
   30    8   12   13        3       0.628   1.883   0.000  -2.510  -0.000   0.000
   42   14   13   15        3       0.628   1.883   0.000  -2.510  -0.000   0.000
   30    8   12   15        3       0.628   1.883   0.000  -2.510  -0.000   0.000
   40   14   13   15        3       0.628   1.883   0.000  -2.510  -0.000   0.000
   41   14   13   12        3       0.628   1.883   0.000  -2.510  -0.000   0.000
   42   14   13   12        3       0.628   1.883   0.000  -2.510  -0.000   0.000
   23    4   15   12        3       0.628   1.883   0.000  -2.510  -0.000   0.000
   41   14   13   39        3       0.628   1.883   0.000  -2.510  -0.000   0.000
   42   14   13   39        3       0.628   1.883   0.000  -2.510  -0.000   0.000
   40   14   13   39        3       0.628   1.883   0.000  -2.510  -0.000   0.000
   38   12    8    6        3       0.628   1.883   0.000  -2.510  -0.000   0.000
   43   15    4    5        3       0.628   1.883   0.000  -2.510  -0.000   0.000
   43   15    4    2        3       0.628   1.883   0.000  -2.510  -0.000   0.000
   38   12    8    9        3       0.628   1.883   0.000  -2.510  -0.000   0.000
   43   15    4   23        3       0.628   1.883   0.000  -2.510  -0.000   0.000
   38   12    8   30        3       0.628   1.883   0.000  -2.510  -0.000   0.000
   39   13   15    4        3       0.000   0.000   0.000  -0.000  -0.000   0.000
   43   15   12    8        3       0.000   0.000   0.000  -0.000  -0.000   0.000
   39   13   12    8        3       0.000   0.000   0.000  -0.000  -0.000   0.000
   38   12   13   14        3       0.000   0.000   0.000  -0.000  -0.000   0.000
   38   12   15    4        3       0.000   0.000   0.000  -0.000  -0.000   0.000
   43   15   13   14        3       0.000   0.000   0.000  -0.000  -0.000   0.000
   39   13   12   15        3       0.000   0.000   0.000  -0.000  -0.000   0.000
   43   15   12   13        3       0.000   0.000   0.000  -0.000  -0.000   0.000
   43   15   13   12        3       0.000   0.000   0.000  -0.000  -0.000   0.000
   38   12   13   15        3       0.000   0.000   0.000  -0.000  -0.000   0.000
   39   13   15   12        3       0.000   0.000   0.000  -0.000  -0.000   0.000
   38   12   15   13        3       0.000   0.000   0.000  -0.000  -0.000   0.000
   43   15   13   39        3       0.000   0.000   0.000  -0.000  -0.000   0.000
   39   13   12   38        3       0.000   0.000   0.000  -0.000  -0.000   0.000
   43   15   12   38        3       0.000   0.000   0.000  -0.000  -0.000   0.000

[ pairs ]
     1     5    1
     3     5    1
     2     6    1
     4     7    1
     4     8    1
     5     9    1
     2    12    1
     2    13    1
     7     9    1
     6    10    1
     1    15    1
     6    11    1
     5    12    1
     5    13    1
     4    14    1
     3    15    1
     7    12    1
     6    13    1
     3    16    1
     4    16    1
     3    17    1
     6    15    1
     4    17    1
     3    18    1
     1    20    1
    10    12    1
     9    13    1
     8    14    1
     4    18    1
     1    21    1
    11    12    1
     1    22    1
     9    15    1
     5    19    1
     4    20    1
     1    23    1
     4    21    1
     4    22    1
     3    23    1
     2    24    1
     2    25    1
     6    23    1
     4    26    1
     7    24    1
     8    24    1
     7    25    1
     5    27    1
     8    25    1
     5    28    1
    15    19    1
     5    29    1
    16    19    1
    12    23    1
     9    26    1
     8    27    1
     5    30    1
    17    19    1
    13    23    1
     8    28    1
    18    19    1
     8    29    1
     7    30    1
     6    31    1
    12    26    1
    19    20    1
    15    24    1
    19    21    1
    15    25    1
    10    30    1
     8    32    1
    19    22    1
    11    30    1
     8    33    1
    19    23    1
     8    34    1
     4    38    1
    13    30    1
    12    31    1
    11    32    1
     8    35    1
     4    39    1
    11    33    1
     8    36    1
     6    38    1
    15    30    1
    11    34    1
    10    35    1
     8    37    1
     2    43    1
    10    36    1
    23    24    1
    10    37    1
     9    38    1
     8    39    1
    23    25    1
     5    43    1
    24    26    1
    25    26    1
     8    43    1
    14    38    1
    12    40    1
    26    27    1
    12    41    1
    26    28    1
    12    42    1
    26    29    1
    15    40    1
    26    30    1
    15    41    1
    15    42    1
    14    43    1
    30    31    1
    31    32    1
    31    33    1
    31    34    1
    31    35    1
    23    43    1
    31    36    1
    31    37    1
    30    38    1
    38    39    1
    39    40    1
    39    41    1
    39    42    1
    38    43    1
    39    43    1

