LIGPARGEN GENERATED GRO FILE
   43
    1UNK    C00    1   0.100   0.100   0.000
    1UNK    C01    2  -0.053   0.100   0.000
    1UNK    C02    3  -0.104   0.100   0.145
    1UNK    C03    4  -0.118   0.216  -0.082
    1UNK    C04    5  -0.082   0.355  -0.026
    1UNK    C05    6  -0.104   0.475  -0.119
    1UNK    C06    7  -0.248   0.523  -0.133
    1UNK    C07    8  -0.032   0.449  -0.252
    1UNK    C08    9  -0.016   0.578  -0.339
    1UNK    C09   10   0.067   0.684  -0.263
    1UNK    C0A   11   0.056   0.552  -0.472
    1UNK    C0B   12  -0.076   0.323  -0.323
    1UNK    C0C   13  -0.200   0.232  -0.331
    1UNK    C0D   14  -0.342   0.253  -0.290
    1UNK    C0E   15  -0.090   0.202  -0.231
    1UNK    H0F   16   0.138   0.011   0.051
    1UNK    H0G   17   0.142   0.187   0.052
    1UNK    H0H   18   0.141   0.099  -0.102
    1UNK    H0I   19  -0.086   0.006  -0.046
    1UNK    H0J   20  -0.067   0.186   0.201
    1UNK    H0K   21  -0.071   0.010   0.197
    1UNK    H0M   22  -0.213   0.102   0.148
    1UNK    H0N   23  -0.226   0.204  -0.067
    1UNK    H0O   24   0.024   0.356   0.000
    1UNK    H0P   25  -0.136   0.371   0.069
    1UNK    H0Q   26  -0.053   0.556  -0.066
    1UNK    H0R   27  -0.293   0.494  -0.228
    1UNK    H0S   28  -0.251   0.633  -0.133
    1UNK    H0T   29  -0.311   0.489  -0.051
    1UNK    H0U   30   0.072   0.424  -0.223
    1UNK    H0V   31  -0.114   0.620  -0.361
    1UNK    H0W   32   0.163   0.642  -0.230
    1UNK    H0X   33   0.015   0.722  -0.175
    1UNK    H0Y   34   0.089   0.770  -0.327
    1UNK    H0Z   35   0.152   0.501  -0.457
    1UNK    H10   36   0.076   0.647  -0.524
    1UNK    H11   37  -0.006   0.491  -0.539
    1UNK    H12   38  -0.011   0.308  -0.409
    1UNK    H13   39  -0.202   0.169  -0.420
    1UNK    H14   40  -0.357   0.299  -0.193
    1UNK    H15   41  -0.391   0.154  -0.284
    1UNK    H16   42  -0.396   0.311  -0.366
    1UNK    H17   43  -0.027   0.116  -0.254
   1.00000   1.00000   1.00000

