LIGPARGEN GENERATED GRO FILE
   39
    1UNK    C00    1   0.100   0.100   0.000
    1UNK    C01    2  -0.052   0.100   0.000
    1UNK    C02    3  -0.108   0.100   0.143
    1UNK    N03    4  -0.255   0.100   0.152
    1UNK    C04    5  -0.320  -0.012   0.081
    1UNK    C05    6  -0.292  -0.151   0.136
    1UNK    C06    7  -0.294   0.108   0.295
    1UNK    C07    8  -0.446   0.122   0.317
    1UNK    O08    9  -0.521   0.179   0.239
    1UNK    C09   10  -0.499   0.064   0.447
    1UNK    C0A   11  -0.443   0.134   0.570
    1UNK    C0B   12  -0.472   0.285   0.577
    1UNK    C0C   13  -0.622   0.314   0.582
    1UNK    C0D   14  -0.403   0.345   0.700
    1UNK    H0E   15   0.138   0.095  -0.103
    1UNK    H0F   16   0.139   0.013   0.054
    1UNK    H0G   17   0.140   0.190   0.047
    1UNK    H0H   18  -0.085   0.011  -0.055
    1UNK    H0I   19  -0.089   0.188  -0.054
    1UNK    H0J   20  -0.070   0.191   0.192
    1UNK    H0K   21  -0.066   0.015   0.198
    1UNK    H0M   22  -0.292  -0.009  -0.025
    1UNK    H0N   23  -0.428   0.003   0.079
    1UNK    H0O   24  -0.186  -0.168   0.159
    1UNK    H0P   25  -0.321  -0.227   0.061
    1UNK    H0Q   26  -0.351  -0.170   0.227
    1UNK    H0R   27  -0.250   0.198   0.340
    1UNK    H0S   28  -0.258   0.021   0.350
    1UNK    H0T   29  -0.473  -0.043   0.449
    1UNK    H0U   30  -0.608   0.068   0.445
    1UNK    H0V   31  -0.334   0.119   0.574
    1UNK    H0W   32  -0.483   0.084   0.659
    1UNK    H0X   33  -0.431   0.334   0.488
    1UNK    H0Y   34  -0.670   0.262   0.665
    1UNK    H0Z   35  -0.672   0.283   0.489
    1UNK    H10   36  -0.640   0.422   0.594
    1UNK    H11   37  -0.441   0.301   0.792
    1UNK    H12   38  -0.421   0.453   0.705
    1UNK    H13   39  -0.295   0.329   0.695
   1.00000   1.00000   1.00000

