LIGPARGEN GENERATED GRO FILE
   48
    1UNK    C00    1   0.100   0.100   0.000
    1UNK    C01    2  -0.052   0.100   0.000
    1UNK    C02    3  -0.107   0.100   0.142
    1UNK    C03    4  -0.260   0.100   0.140
    1UNK    C04    5  -0.317   0.091   0.281
    1UNK    C05    6  -0.469   0.103   0.282
    1UNK    C06    7  -0.545  -0.014   0.219
    1UNK    O07    8  -0.486  -0.111   0.171
    1UNK    N08    9  -0.686  -0.004   0.219
    1UNK    C09   10  -0.760  -0.119   0.164
    1UNK    C0A   11  -0.819  -0.097   0.024
    1UNK    C0B   12  -0.718  -0.092  -0.091
    1UNK    C0C   13  -0.792  -0.076  -0.224
    1UNK    C0D   14  -0.699  -0.070  -0.344
    1UNK    C0E   15  -0.757   0.096   0.302
    1UNK    C0F   16  -0.893   0.139   0.247
    1UNK    C0G   17  -0.771   0.049   0.447
    1UNK    H0H   18   0.138   0.100  -0.103
    1UNK    H0I   19   0.139   0.011   0.051
    1UNK    H0J   20   0.139   0.189   0.051
    1UNK    H0K   21  -0.088   0.012  -0.054
    1UNK    H0M   22  -0.088   0.188  -0.054
    1UNK    H0N   23  -0.071   0.188   0.196
    1UNK    H0O   24  -0.071   0.012   0.196
    1UNK    H0P   25  -0.294   0.015   0.079
    1UNK    H0Q   26  -0.296   0.191   0.091
    1UNK    H0R   27  -0.276   0.173   0.341
    1UNK    H0S   28  -0.286  -0.003   0.329
    1UNK    H0T   29  -0.497   0.195   0.229
    1UNK    H0U   30  -0.500   0.112   0.386
    1UNK    H0V   31  -0.841  -0.142   0.234
    1UNK    H0W   32  -0.697  -0.208   0.162
    1UNK    H0X   33  -0.879  -0.005   0.022
    1UNK    H0Y   34  -0.889  -0.179   0.005
    1UNK    H0Z   35  -0.659  -0.184  -0.093
    1UNK    H10   36  -0.649  -0.009  -0.077
    1UNK    H11   37  -0.853   0.016  -0.222
    1UNK    H12   38  -0.862  -0.160  -0.238
    1UNK    H13   39  -0.630   0.014  -0.337
    1UNK    H14   40  -0.757  -0.058  -0.436
    1UNK    H15   41  -0.641  -0.163  -0.353
    1UNK    H16   42  -0.697   0.187   0.303
    1UNK    H17   43  -0.965   0.056   0.245
    1UNK    H18   44  -0.883   0.179   0.146
    1UNK    H19   45  -0.936   0.217   0.309
    1UNK    H1A   46  -0.837  -0.038   0.455
    1UNK    H1B   47  -0.812   0.128   0.509
    1UNK    H1C   48  -0.674   0.020   0.489
   1.00000   1.00000   1.00000

