LIGPARGEN GENERATED GRO FILE
   48
    1UNK    C00    1   0.100   0.100   0.000
    1UNK    N01    2  -0.046   0.100   0.000
    1UNK    C02    3  -0.093   0.100   0.140
    1UNK    C03    4  -0.113   0.199  -0.092
    1UNK    C04    5  -0.058   0.188  -0.236
    1UNK    C05    6  -0.256   0.141  -0.105
    1UNK    C06    7  -0.094   0.348  -0.037
    1UNK    C07    8  -0.154   0.486  -0.094
    1UNK    N08    9  -0.123   0.598   0.007
    1UNK    C09   10  -0.165   0.576   0.147
    1UNK    C0A   11   0.018   0.643   0.015
    1UNK    C0B   12  -0.089   0.531  -0.231
    1UNK    O0C   13  -0.163   0.642  -0.288
    1UNK    C0D   14  -0.148   0.762  -0.228
    1UNK    O0E   15  -0.047   0.830  -0.236
    1UNK    O0F   16  -0.263   0.805  -0.169
    1UNK    C0G   17  -0.375   0.725  -0.125
    1UNK    C0H   18  -0.396   0.586  -0.184
    1UNK    C0I   19  -0.308   0.470  -0.132
    1UNK    C0J   20  -0.383   0.391  -0.026
    1UNK    N0K   21  -0.445   0.325   0.063
    1UNK    H0M   22   0.137   0.017   0.062
    1UNK    H0N   23   0.142   0.193   0.040
    1UNK    H0O   24   0.141   0.081  -0.099
    1UNK    H0P   25  -0.050   0.015   0.194
    1UNK    H0Q   26  -0.201   0.088   0.149
    1UNK    H0R   27  -0.064   0.191   0.194
    1UNK    H0S   28  -0.071   0.087  -0.275
    1UNK    H0T   29   0.048   0.214  -0.243
    1UNK    H0U   30  -0.114   0.253  -0.304
    1UNK    H0V   31  -0.253   0.037  -0.138
    1UNK    H0W   32  -0.316   0.193  -0.181
    1UNK    H0X   33  -0.312   0.139  -0.011
    1UNK    H0Y   34   0.014   0.364  -0.028
    1UNK    H0Z   35  -0.132   0.342   0.066
    1UNK    H10   36  -0.270   0.552   0.156
    1UNK    H11   37  -0.150   0.668   0.204
    1UNK    H12   38  -0.105   0.499   0.197
    1UNK    H13   39   0.063   0.671  -0.080
    1UNK    H14   40   0.084   0.568   0.061
    1UNK    H15   41   0.024   0.735   0.074
    1UNK    H16   42  -0.099   0.452  -0.305
    1UNK    H17   43   0.018   0.552  -0.227
    1UNK    H18   44  -0.463   0.784  -0.153
    1UNK    H19   45  -0.375   0.721  -0.016
    1UNK    H1A   46  -0.386   0.593  -0.294
    1UNK    H1B   47  -0.501   0.559  -0.169
    1UNK    H1C   48  -0.308   0.400  -0.217
   1.00000   1.00000   1.00000

