LIGPARGEN GENERATED GRO FILE
   58
    1UNK    C00    1   0.100   0.100   0.000
    1UNK    C01    2  -0.053   0.100   0.000
    1UNK    C02    3  -0.104   0.100   0.145
    1UNK    C03    4  -0.111   0.221  -0.076
    1UNK    C04    5  -0.077   0.223  -0.227
    1UNK    C05    6  -0.137   0.346  -0.299
    1UNK    C06    7  -0.213   0.283  -0.418
    1UNK    C07    8  -0.339   0.214  -0.364
    1UNK    C08    9  -0.283   0.088  -0.296
    1UNK    C09   10  -0.131   0.105  -0.312
    1UNK    C0A   11  -0.125   0.162  -0.455
    1UNK    O0B   12   0.004   0.204  -0.498
    1UNK    C0C   13   0.087   0.105  -0.542
    1UNK    O0D   14   0.054  -0.012  -0.553
    1UNK    C0E   15   0.229   0.158  -0.571
    1UNK    C0F   16   0.237   0.309  -0.541
    1UNK    C0G   17   0.320   0.085  -0.472
    1UNK    C0H   18   0.259   0.124  -0.721
    1UNK    C0I   19   0.393   0.159  -0.794
    1UNK    C0J   20   0.514   0.084  -0.736
    1UNK    C0K   21   0.379   0.115  -0.942
    1UNK    C0M   22   0.424   0.310  -0.795
    1UNK    H0N   23   0.139   0.016   0.059
    1UNK    H0O   24   0.140   0.193   0.043
    1UNK    H0P   25   0.140   0.089  -0.101
    1UNK    H0Q   26  -0.087   0.007  -0.047
    1UNK    H0R   27  -0.078   0.194   0.196
    1UNK    H0S   28  -0.060   0.017   0.201
    1UNK    H0T   29  -0.213   0.088   0.148
    1UNK    H0U   30  -0.072   0.313  -0.031
    1UNK    H0V   31  -0.219   0.224  -0.062
    1UNK    H0W   32   0.032   0.229  -0.238
    1UNK    H0X   33  -0.057   0.412  -0.334
    1UNK    H0Y   34  -0.204   0.406  -0.235
    1UNK    H0Z   35  -0.231   0.355  -0.498
    1UNK    H10   36  -0.406   0.186  -0.446
    1UNK    H11   37  -0.395   0.277  -0.294
    1UNK    H12   38  -0.317  -0.001  -0.350
    1UNK    H13   39  -0.315   0.079  -0.192
    1UNK    H14   40  -0.074   0.013  -0.297
    1UNK    H15   41  -0.173   0.099  -0.531
    1UNK    H16   42   0.192   0.333  -0.443
    1UNK    H17   43   0.183   0.367  -0.616
    1UNK    H18   44   0.339   0.345  -0.535
    1UNK    H19   45   0.276   0.084  -0.371
    1UNK    H1A   46   0.418   0.132  -0.463
    1UNK    H1B   47   0.335  -0.020  -0.501
    1UNK    H1C   48   0.178   0.169  -0.780
    1UNK    H1D   49   0.245   0.015  -0.733
    1UNK    H1E   50   0.501  -0.025  -0.744
    1UNK    H1F   51   0.533   0.108  -0.632
    1UNK    H1G   52   0.606   0.109  -0.791
    1UNK    H1H   53   0.370   0.006  -0.950
    1UNK    H1I   54   0.467   0.145  -1.001
    1UNK    H1J   55   0.291   0.160  -0.989
    1UNK    H1K   56   0.457   0.346  -0.698
    1UNK    H1M   57   0.336   0.367  -0.827
    1UNK    H1N   58   0.505   0.333  -0.864
   1.00000   1.00000   1.00000

