
;
; GENERATED BY LigParGen Server
; Jorgensen Lab @ Yale University 
;
[ atomtypes ]
  opls_857  H857     1.0080     0.000    A    2.50000E-01   1.25520E-01
  opls_814  C814    12.0110     0.000    A    3.50000E-01   2.76144E-01
  opls_855  H855     1.0080     0.000    A    2.50000E-01   1.25520E-01
  opls_824  H824     1.0080     0.000    A    2.50000E-01   1.25520E-01
  opls_805  C805    12.0110     0.000    A    3.50000E-01   2.76144E-01
  opls_818  C818    12.0110     0.000    A    3.50000E-01   2.76144E-01
  opls_843  H843     1.0080     0.000    A    2.50000E-01   1.25520E-01
  opls_836  H836     1.0080     0.000    A    2.50000E-01   1.25520E-01
  opls_834  H834     1.0080     0.000    A    2.50000E-01   1.25520E-01
  opls_828  H828     1.0080     0.000    A    2.50000E-01   1.25520E-01
  opls_835  H835     1.0080     0.000    A    2.50000E-01   1.25520E-01
  opls_851  H851     1.0080     0.000    A    2.50000E-01   1.25520E-01
  opls_802  C802    12.0110     0.000    A    3.50000E-01   2.76144E-01
  opls_827  H827     1.0080     0.000    A    2.50000E-01   1.25520E-01
  opls_809  C809    12.0110     0.000    A    3.50000E-01   2.76144E-01
  opls_806  C806    12.0110     0.000    A    3.50000E-01   2.76144E-01
  opls_822  H822     1.0080     0.000    A    2.50000E-01   1.25520E-01
  opls_803  C803    12.0110     0.000    A    3.50000E-01   2.76144E-01
  opls_838  H838     1.0080     0.000    A    2.50000E-01   1.25520E-01
  opls_825  H825     1.0080     0.000    A    2.50000E-01   1.25520E-01
  opls_830  H830     1.0080     0.000    A    2.50000E-01   1.25520E-01
  opls_810  C810    12.0110     0.000    A    3.50000E-01   2.76144E-01
  opls_842  H842     1.0080     0.000    A    2.50000E-01   1.25520E-01
  opls_826  H826     1.0080     0.000    A    2.50000E-01   1.25520E-01
  opls_812  C812    12.0110     0.000    A    3.55000E-01   2.92880E-01
  opls_837  H837     1.0080     0.000    A    2.50000E-01   1.25520E-01
  opls_829  H829     1.0080     0.000    A    2.50000E-01   1.25520E-01
  opls_831  H831     1.0080     0.000    A    2.50000E-01   1.25520E-01
  opls_853  H853     1.0080     0.000    A    2.50000E-01   1.25520E-01
  opls_856  H856     1.0080     0.000    A    2.50000E-01   1.25520E-01
  opls_832  H832     1.0080     0.000    A    2.50000E-01   1.25520E-01
  opls_800  C800    12.0110     0.000    A    3.50000E-01   2.76144E-01
  opls_846  H846     1.0080     0.000    A    2.50000E-01   1.25520E-01
  opls_848  H848     1.0080     0.000    A    2.50000E-01   1.25520E-01
  opls_816  C816    12.0110     0.000    A    3.50000E-01   2.76144E-01
  opls_815  C815    12.0110     0.000    A    3.50000E-01   2.76144E-01
  opls_823  H823     1.0080     0.000    A    2.50000E-01   1.25520E-01
  opls_819  C819    12.0110     0.000    A    3.50000E-01   2.76144E-01
  opls_820  C820    12.0110     0.000    A    3.50000E-01   2.76144E-01
  opls_813  O813    15.9990     0.000    A    2.96000E-01   8.78640E-01
  opls_841  H841     1.0080     0.000    A    2.50000E-01   1.25520E-01
  opls_821  C821    12.0110     0.000    A    3.50000E-01   2.76144E-01
  opls_804  C804    12.0110     0.000    A    3.50000E-01   2.76144E-01
  opls_833  H833     1.0080     0.000    A    2.50000E-01   1.25520E-01
  opls_811  O811    15.9990     0.000    A    2.90000E-01   5.85760E-01
  opls_839  H839     1.0080     0.000    A    2.50000E-01   1.25520E-01
  opls_817  C817    12.0110     0.000    A    3.50000E-01   2.76144E-01
  opls_852  H852     1.0080     0.000    A    2.50000E-01   1.25520E-01
  opls_801  C801    12.0110     0.000    A    3.50000E-01   2.76144E-01
  opls_808  C808    12.0110     0.000    A    3.50000E-01   2.76144E-01
  opls_850  H850     1.0080     0.000    A    2.50000E-01   1.25520E-01
  opls_840  H840     1.0080     0.000    A    2.50000E-01   1.25520E-01
  opls_849  H849     1.0080     0.000    A    2.50000E-01   1.25520E-01
  opls_847  H847     1.0080     0.000    A    2.50000E-01   1.25520E-01
  opls_844  H844     1.0080     0.000    A    2.50000E-01   1.25520E-01
  opls_845  H845     1.0080     0.000    A    2.50000E-01   1.25520E-01
  opls_854  H854     1.0080     0.000    A    2.50000E-01   1.25520E-01
  opls_807  C807    12.0110     0.000    A    3.50000E-01   2.76144E-01
[ moleculetype ]
; Name               nrexcl
UNK                   3
[ atoms ]
;   nr       type  resnr residue  atom   cgnr     charge       mass  
     1   opls_800      1    UNK   C00      1    -0.2343    12.0110 
     2   opls_801      1    UNK   C01      1    -0.1166    12.0110 
     3   opls_802      1    UNK   C02      1     -0.237    12.0110 
     4   opls_803      1    UNK   C03      1    -0.1596    12.0110 
     5   opls_804      1    UNK   C04      1    -0.1151    12.0110 
     6   opls_805      1    UNK   C05      1    -0.1765    12.0110 
     7   opls_806      1    UNK   C06      1    -0.1277    12.0110 
     8   opls_807      1    UNK   C07      1    -0.1821    12.0110 
     9   opls_808      1    UNK   C08      1    -0.1791    12.0110 
    10   opls_809      1    UNK   C09      1    -0.1401    12.0110 
    11   opls_810      1    UNK   C0A      1     0.0467    12.0110 
    12   opls_811      1    UNK   O0B      1    -0.3392    15.9990 
    13   opls_812      1    UNK   C0C      1     0.4334    12.0110 
    14   opls_813      1    UNK   O0D      1    -0.4572    15.9990 
    15   opls_814      1    UNK   C0E      1    -0.0252    12.0110 
    16   opls_815      1    UNK   C0F      1    -0.2281    12.0110 
    17   opls_816      1    UNK   C0G      1    -0.2336    12.0110 
    18   opls_817      1    UNK   C0H      1    -0.1543    12.0110 
    19   opls_818      1    UNK   C0I      1    -0.0389    12.0110 
    20   opls_819      1    UNK   C0J      1    -0.2313    12.0110 
    21   opls_820      1    UNK   C0K      1    -0.2368    12.0110 
    22   opls_821      1    UNK   C0M      1    -0.2308    12.0110 
    23   opls_822      1    UNK   H0N      1     0.0808     1.0080 
    24   opls_823      1    UNK   H0O      1     0.0808     1.0080 
    25   opls_824      1    UNK   H0P      1     0.0808     1.0080 
    26   opls_825      1    UNK   H0Q      1     0.1006     1.0080 
    27   opls_826      1    UNK   H0R      1     0.0809     1.0080 
    28   opls_827      1    UNK   H0S      1     0.0809     1.0080 
    29   opls_828      1    UNK   H0T      1     0.0809     1.0080 
    30   opls_829      1    UNK   H0U      1     0.0889     1.0080 
    31   opls_830      1    UNK   H0V      1     0.0889     1.0080 
    32   opls_831      1    UNK   H0W      1     0.1058     1.0080 
    33   opls_832      1    UNK   H0X      2     0.0987     1.0080 
    34   opls_833      1    UNK   H0Y      2     0.0987     1.0080 
    35   opls_834      1    UNK   H0Z      2     0.1234     1.0080 
    36   opls_835      1    UNK   H10      2     0.0984     1.0080 
    37   opls_836      1    UNK   H11      2     0.0984     1.0080 
    38   opls_837      1    UNK   H12      2     0.1008     1.0080 
    39   opls_838      1    UNK   H13      2     0.1008     1.0080 
    40   opls_839      1    UNK   H14      2     0.1313     1.0080 
    41   opls_840      1    UNK   H15      2      0.136     1.0080 
    42   opls_841      1    UNK   H16      2     0.0929     1.0080 
    43   opls_842      1    UNK   H17      2     0.0929     1.0080 
    44   opls_843      1    UNK   H18      2     0.0929     1.0080 
    45   opls_844      1    UNK   H19      2     0.0948     1.0080 
    46   opls_845      1    UNK   H1A      2     0.0948     1.0080 
    47   opls_846      1    UNK   H1B      2     0.0948     1.0080 
    48   opls_847      1    UNK   H1C      2     0.0995     1.0080 
    49   opls_848      1    UNK   H1D      2     0.0995     1.0080 
    50   opls_849      1    UNK   H1E      2     0.0827     1.0080 
    51   opls_850      1    UNK   H1F      2     0.0827     1.0080 
    52   opls_851      1    UNK   H1G      2     0.0827     1.0080 
    53   opls_852      1    UNK   H1H      2     0.0835     1.0080 
    54   opls_853      1    UNK   H1I      2     0.0835     1.0080 
    55   opls_854      1    UNK   H1J      2     0.0835     1.0080 
    56   opls_855      1    UNK   H1K      2     0.0822     1.0080 
    57   opls_856      1    UNK   H1M      2     0.0822     1.0080 
    58   opls_857      1    UNK   H1N      2     0.0822     1.0080 
[ bonds ]
    2     1     1      0.1529 224262.400
    3     2     1      0.1529 224262.400
    4     2     1      0.1529 224262.400
    5     4     1      0.1529 224262.400
    6     5     1      0.1529 224262.400
    7     6     1      0.1529 224262.400
    8     7     1      0.1529 224262.400
    9     8     1      0.1529 224262.400
   10     5     1      0.1529 224262.400
   11     7     1      0.1529 224262.400
   12    11     1      0.1410 267776.000
   13    12     1      0.1327 179075.200
   14    13     1      0.1229 476976.000
   15    13     1      0.1522 265265.600
   16    15     1      0.1529 224262.400
   17    15     1      0.1529 224262.400
   18    15     1      0.1529 224262.400
   19    18     1      0.1529 224262.400
   20    19     1      0.1529 224262.400
   21    19     1      0.1529 224262.400
   22    19     1      0.1529 224262.400
   23     1     1      0.1090 284512.000
   24     1     1      0.1090 284512.000
   25     1     1      0.1090 284512.000
   26     2     1      0.1090 284512.000
   27     3     1      0.1090 284512.000
   28     3     1      0.1090 284512.000
   29     3     1      0.1090 284512.000
   30     4     1      0.1090 284512.000
   31     4     1      0.1090 284512.000
   32     5     1      0.1090 284512.000
   33     6     1      0.1090 284512.000
   34     6     1      0.1090 284512.000
   35     7     1      0.1090 284512.000
   36     8     1      0.1090 284512.000
   37     8     1      0.1090 284512.000
   38     9     1      0.1090 284512.000
   39     9     1      0.1090 284512.000
   40    10     1      0.1090 284512.000
   41    11     1      0.1090 284512.000
   42    16     1      0.1090 284512.000
   43    16     1      0.1090 284512.000
   44    16     1      0.1090 284512.000
   45    17     1      0.1090 284512.000
   46    17     1      0.1090 284512.000
   47    17     1      0.1090 284512.000
   48    18     1      0.1090 284512.000
   49    18     1      0.1090 284512.000
   50    20     1      0.1090 284512.000
   51    20     1      0.1090 284512.000
   52    20     1      0.1090 284512.000
   53    21     1      0.1090 284512.000
   54    21     1      0.1090 284512.000
   55    21     1      0.1090 284512.000
   56    22     1      0.1090 284512.000
   57    22     1      0.1090 284512.000
   58    22     1      0.1090 284512.000
   10     9     1      0.1529 224262.400
   11    10     1      0.1529 224262.400

[ angles ]
;  ai    aj    ak funct            c0            c1            c2            c3 
    1     2     3     1    112.700    488.273
    1     2     4     1    112.700    488.273
    2     4     5     1    112.700    488.273
    4     5     6     1    112.700    488.273
    5     6     7     1    112.700    488.273
    6     7     8     1    112.700    488.273
    7     8     9     1    112.700    488.273
    4     5    10     1    112.700    488.273
    6     7    11     1    112.700    488.273
    7    11    12     1    109.500    418.400
   11    12    13     1    116.900    694.544
   12    13    14     1    123.400    694.544
   12    13    15     1    111.400    677.808
   13    15    16     1    111.100    527.184
   13    15    17     1    111.100    527.184
   13    15    18     1    111.100    527.184
   15    18    19     1    112.700    488.273
   18    19    20     1    112.700    488.273
   18    19    21     1    112.700    488.273
   18    19    22     1    112.700    488.273
    2     1    23     1    110.700    313.800
    2     1    24     1    110.700    313.800
    2     1    25     1    110.700    313.800
    1     2    26     1    110.700    313.800
    2     3    27     1    110.700    313.800
    2     3    28     1    110.700    313.800
    2     3    29     1    110.700    313.800
    2     4    30     1    110.700    313.800
    2     4    31     1    110.700    313.800
    4     5    32     1    110.700    313.800
    5     6    33     1    110.700    313.800
    5     6    34     1    110.700    313.800
    6     7    35     1    110.700    313.800
    7     8    36     1    110.700    313.800
    7     8    37     1    110.700    313.800
    8     9    38     1    110.700    313.800
    8     9    39     1    110.700    313.800
    5    10    40     1    110.700    313.800
    7    11    41     1    110.700    313.800
   15    16    42     1    110.700    313.800
   15    16    43     1    110.700    313.800
   15    16    44     1    110.700    313.800
   15    17    45     1    110.700    313.800
   15    17    46     1    110.700    313.800
   15    17    47     1    110.700    313.800
   15    18    48     1    110.700    313.800
   15    18    49     1    110.700    313.800
   19    20    50     1    110.700    313.800
   19    20    51     1    110.700    313.800
   19    20    52     1    110.700    313.800
   19    21    53     1    110.700    313.800
   19    21    54     1    110.700    313.800
   19    21    55     1    110.700    313.800
   19    22    56     1    110.700    313.800
   19    22    57     1    110.700    313.800
   19    22    58     1    110.700    313.800
   45    17    47     1    107.800    276.144
   42    16    44     1    107.800    276.144
   20    19    21     1    112.700    488.273
   53    21    54     1    107.800    276.144
    3     2    26     1    110.700    313.800
   19    18    49     1    110.700    313.800
   10     9    39     1    110.700    313.800
   33     6    34     1    107.800    276.144
    5    10     9     1    112.700    488.273
   27     3    28     1    107.800    276.144
   53    21    55     1    107.800    276.144
   14    13    15     1    120.400    669.440
   50    20    52     1    107.800    276.144
   16    15    17     1    112.700    488.273
    6     5    32     1    110.700    313.800
   57    22    58     1    107.800    276.144
    4     2    26     1    110.700    313.800
   45    17    46     1    107.800    276.144
    6     5    10     1    112.700    488.273
   28     3    29     1    107.800    276.144
   23     1    24     1    107.800    276.144
   42    16    43     1    107.800    276.144
    9     8    37     1    110.700    313.800
   10    11    12     1    109.500    418.400
   19    18    48     1    110.700    313.800
   56    22    58     1    107.800    276.144
    9     8    36     1    110.700    313.800
    7    11    10     1    112.700    488.273
   20    19    22     1    112.700    488.273
    9    10    40     1    110.700    313.800
   16    15    18     1    112.700    488.273
   48    18    49     1    107.800    276.144
    8     7    11     1    112.700    488.273
   11    10    40     1    110.700    313.800
   56    22    57     1    107.800    276.144
   23     1    25     1    107.800    276.144
   30     4    31     1    107.800    276.144
   36     8    37     1    107.800    276.144
   50    20    51     1    107.800    276.144
    8     7    35     1    110.700    313.800
   51    20    52     1    107.800    276.144
   54    21    55     1    107.800    276.144
   10    11    41     1    110.700    313.800
    5     4    31     1    110.700    313.800
    7     6    34     1    110.700    313.800
    9    10    11     1    112.700    488.273
   46    17    47     1    107.800    276.144
    8     9    10     1    112.700    488.273
   27     3    29     1    107.800    276.144
   43    16    44     1    107.800    276.144
   24     1    25     1    107.800    276.144
    5     4    30     1    110.700    313.800
   10     9    38     1    110.700    313.800
    3     2     4     1    112.700    488.273
   21    19    22     1    112.700    488.273
   11     7    35     1    110.700    313.800
    7     6    33     1    110.700    313.800
   12    11    41     1    109.500    292.880
   10     5    32     1    110.700    313.800
    5    10    11     1    112.700    488.273
   38     9    39     1    107.800    276.144
   17    15    18     1    112.700    488.273

[ dihedrals ]
; IMPROPER DIHEDRAL ANGLES 
;  ai    aj    ak    al funct            c0            c1            c2            c3            c4            c5
    15    13    12    14    4        180.000     43.932     2  

[ dihedrals ]
; PROPER DIHEDRAL ANGLES
;  ai    aj    ak    al funct            c0            c1            c2            c3            c4            c5
   13   12   11    7        3      -2.197   5.201   0.527  -3.531  -0.000   0.000
   13   12   11   10        3      -2.197   5.201   0.527  -3.531  -0.000   0.000
   15   13   12   11        3      31.206  -9.768  -21.439  -0.000  -0.000   0.000
   16   15   13   14        3       0.000   0.000   0.000  -0.000  -0.000   0.000
   17   15   13   14        3       0.000   0.000   0.000  -0.000  -0.000   0.000
   18   15   13   14        3       0.000   0.000   0.000  -0.000  -0.000   0.000
   17   15   13   12        3      -1.157  -3.471   0.000   4.628  -0.000   0.000
   16   15   13   12        3      -1.157  -3.471   0.000   4.628  -0.000   0.000
   18   15   13   12        3      -1.157  -3.471   0.000   4.628  -0.000   0.000
   19   18   15   13        3      -4.960   6.286   1.310  -2.636  -0.000   0.000
    5    4    2    3        3       2.301  -1.464   0.837  -1.674  -0.000   0.000
   19   18   15   16        3       2.301  -1.464   0.837  -1.674  -0.000   0.000
   10    5    4    2        3       2.301  -1.464   0.837  -1.674  -0.000   0.000
   11   10    9    8        3       2.301  -1.464   0.837  -1.674  -0.000   0.000
    7   11   10    5        3       2.301  -1.464   0.837  -1.674  -0.000   0.000
   10    5    6    7        3       2.301  -1.464   0.837  -1.674  -0.000   0.000
   10   11    7    6        3       2.301  -1.464   0.837  -1.674  -0.000   0.000
   11    7    6    5        3       2.301  -1.464   0.837  -1.674  -0.000   0.000
   22   19   18   15        3       2.301  -1.464   0.837  -1.674  -0.000   0.000
   21   19   18   15        3       2.301  -1.464   0.837  -1.674  -0.000   0.000
    8    9   10    5        3       2.301  -1.464   0.837  -1.674  -0.000   0.000
   11   10    5    4        3       2.301  -1.464   0.837  -1.674  -0.000   0.000
   10    9    8    7        3       2.301  -1.464   0.837  -1.674  -0.000   0.000
    9   10    5    4        3       2.301  -1.464   0.837  -1.674  -0.000   0.000
   11    7    8    9        3       2.301  -1.464   0.837  -1.674  -0.000   0.000
   10   11    7    8        3       2.301  -1.464   0.837  -1.674  -0.000   0.000
    9   10    5    6        3       2.301  -1.464   0.837  -1.674  -0.000   0.000
   19   18   15   17        3       2.301  -1.464   0.837  -1.674  -0.000   0.000
    9   10   11    7        3       2.301  -1.464   0.837  -1.674  -0.000   0.000
   11   10    5    6        3       2.301  -1.464   0.837  -1.674  -0.000   0.000
   20   19   18   15        3       2.301  -1.464   0.837  -1.674  -0.000   0.000
    9    8    7    6        3       2.301  -1.464   0.837  -1.674  -0.000   0.000
    8    7    6    5        3       2.301  -1.464   0.837  -1.674  -0.000   0.000
    7    6    5    4        3       2.301  -1.464   0.837  -1.674  -0.000   0.000
    6    5    4    2        3       2.301  -1.464   0.837  -1.674  -0.000   0.000
    5    4    2    1        3       2.301  -1.464   0.837  -1.674  -0.000   0.000
   49   18   15   13        3      -0.209  -0.628   0.000   0.837  -0.000   0.000
   48   18   15   13        3      -0.209  -0.628   0.000   0.837  -0.000   0.000
   44   16   15   13        3      -0.209  -0.628   0.000   0.837  -0.000   0.000
   45   17   15   13        3      -0.209  -0.628   0.000   0.837  -0.000   0.000
   46   17   15   13        3      -0.209  -0.628   0.000   0.837  -0.000   0.000
   43   16   15   13        3      -0.209  -0.628   0.000   0.837  -0.000   0.000
   42   16   15   13        3      -0.209  -0.628   0.000   0.837  -0.000   0.000
   47   17   15   13        3      -0.209  -0.628   0.000   0.837  -0.000   0.000
   24    1    2    4        3       0.628   1.883   0.000  -2.510  -0.000   0.000
   37    8    9   10        3       0.628   1.883   0.000  -2.510  -0.000   0.000
   49   18   19   21        3       0.628   1.883   0.000  -2.510  -0.000   0.000
   57   22   19   20        3       0.628   1.883   0.000  -2.510  -0.000   0.000
   32    5   10    9        3       0.628   1.883   0.000  -2.510  -0.000   0.000
   33    6    5    4        3       0.628   1.883   0.000  -2.510  -0.000   0.000
   58   22   19   21        3       0.628   1.883   0.000  -2.510  -0.000   0.000
   39    9   10    5        3       0.628   1.883   0.000  -2.510  -0.000   0.000
   32    5   10   11        3       0.628   1.883   0.000  -2.510  -0.000   0.000
   25    1    2    3        3       0.628   1.883   0.000  -2.510  -0.000   0.000
   51   20   19   22        3       0.628   1.883   0.000  -2.510  -0.000   0.000
   44   16   15   17        3       0.628   1.883   0.000  -2.510  -0.000   0.000
   32    5    4    2        3       0.628   1.883   0.000  -2.510  -0.000   0.000
   43   16   15   17        3       0.628   1.883   0.000  -2.510  -0.000   0.000
   41   11   10    9        3       0.628   1.883   0.000  -2.510  -0.000   0.000
   23    1    2    3        3       0.628   1.883   0.000  -2.510  -0.000   0.000
   26    2    4    5        3       0.628   1.883   0.000  -2.510  -0.000   0.000
   30    4    2    1        3       0.628   1.883   0.000  -2.510  -0.000   0.000
   23    1    2    4        3       0.628   1.883   0.000  -2.510  -0.000   0.000
   24    1    2    3        3       0.628   1.883   0.000  -2.510  -0.000   0.000
   42   16   15   18        3       0.628   1.883   0.000  -2.510  -0.000   0.000
   32    5    6    7        3       0.628   1.883   0.000  -2.510  -0.000   0.000
   39    9    8    7        3       0.628   1.883   0.000  -2.510  -0.000   0.000
   27    3    2    1        3       0.628   1.883   0.000  -2.510  -0.000   0.000
   52   20   19   21        3       0.628   1.883   0.000  -2.510  -0.000   0.000
   48   18   19   22        3       0.628   1.883   0.000  -2.510  -0.000   0.000
   55   21   19   20        3       0.628   1.883   0.000  -2.510  -0.000   0.000
   27    3    2    4        3       0.628   1.883   0.000  -2.510  -0.000   0.000
   43   16   15   18        3       0.628   1.883   0.000  -2.510  -0.000   0.000
   35    7   11   10        3       0.628   1.883   0.000  -2.510  -0.000   0.000
   57   22   19   21        3       0.628   1.883   0.000  -2.510  -0.000   0.000
   40   10    5    6        3       0.628   1.883   0.000  -2.510  -0.000   0.000
   28    3    2    1        3       0.628   1.883   0.000  -2.510  -0.000   0.000
   34    6    7    8        3       0.628   1.883   0.000  -2.510  -0.000   0.000
   51   20   19   18        3       0.628   1.883   0.000  -2.510  -0.000   0.000
   30    4    5   10        3       0.628   1.883   0.000  -2.510  -0.000   0.000
   51   20   19   21        3       0.628   1.883   0.000  -2.510  -0.000   0.000
   50   20   19   22        3       0.628   1.883   0.000  -2.510  -0.000   0.000
   40   10    5    4        3       0.628   1.883   0.000  -2.510  -0.000   0.000
   47   17   15   18        3       0.628   1.883   0.000  -2.510  -0.000   0.000
   46   17   15   16        3       0.628   1.883   0.000  -2.510  -0.000   0.000
   31    4    5    6        3       0.628   1.883   0.000  -2.510  -0.000   0.000
   56   22   19   21        3       0.628   1.883   0.000  -2.510  -0.000   0.000
   55   21   19   18        3       0.628   1.883   0.000  -2.510  -0.000   0.000
   29    3    2    4        3       0.628   1.883   0.000  -2.510  -0.000   0.000
   36    8    7    6        3       0.628   1.883   0.000  -2.510  -0.000   0.000
   41   11   10    5        3       0.628   1.883   0.000  -2.510  -0.000   0.000
   54   21   19   22        3       0.628   1.883   0.000  -2.510  -0.000   0.000
   39    9   10   11        3       0.628   1.883   0.000  -2.510  -0.000   0.000
   44   16   15   18        3       0.628   1.883   0.000  -2.510  -0.000   0.000
   30    4    2    3        3       0.628   1.883   0.000  -2.510  -0.000   0.000
   31    4    5   10        3       0.628   1.883   0.000  -2.510  -0.000   0.000
   34    6    5   10        3       0.628   1.883   0.000  -2.510  -0.000   0.000
   50   20   19   21        3       0.628   1.883   0.000  -2.510  -0.000   0.000
   53   21   19   22        3       0.628   1.883   0.000  -2.510  -0.000   0.000
   58   22   19   20        3       0.628   1.883   0.000  -2.510  -0.000   0.000
   41   11    7    6        3       0.628   1.883   0.000  -2.510  -0.000   0.000
   45   17   15   16        3       0.628   1.883   0.000  -2.510  -0.000   0.000
   37    8    7    6        3       0.628   1.883   0.000  -2.510  -0.000   0.000
   31    4    2    1        3       0.628   1.883   0.000  -2.510  -0.000   0.000
   34    6    7   11        3       0.628   1.883   0.000  -2.510  -0.000   0.000
   38    9    8    7        3       0.628   1.883   0.000  -2.510  -0.000   0.000
   34    6    5    4        3       0.628   1.883   0.000  -2.510  -0.000   0.000
   41   11    7    8        3       0.628   1.883   0.000  -2.510  -0.000   0.000
   45   17   15   18        3       0.628   1.883   0.000  -2.510  -0.000   0.000
   47   17   15   16        3       0.628   1.883   0.000  -2.510  -0.000   0.000
   35    7    6    5        3       0.628   1.883   0.000  -2.510  -0.000   0.000
   42   16   15   17        3       0.628   1.883   0.000  -2.510  -0.000   0.000
   25    1    2    4        3       0.628   1.883   0.000  -2.510  -0.000   0.000
   33    6    5   10        3       0.628   1.883   0.000  -2.510  -0.000   0.000
   31    4    2    3        3       0.628   1.883   0.000  -2.510  -0.000   0.000
   48   18   19   20        3       0.628   1.883   0.000  -2.510  -0.000   0.000
   53   21   19   20        3       0.628   1.883   0.000  -2.510  -0.000   0.000
   49   18   19   22        3       0.628   1.883   0.000  -2.510  -0.000   0.000
   48   18   15   16        3       0.628   1.883   0.000  -2.510  -0.000   0.000
   50   20   19   18        3       0.628   1.883   0.000  -2.510  -0.000   0.000
   33    6    7   11        3       0.628   1.883   0.000  -2.510  -0.000   0.000
   53   21   19   18        3       0.628   1.883   0.000  -2.510  -0.000   0.000
   38    9   10    5        3       0.628   1.883   0.000  -2.510  -0.000   0.000
   40   10   11    7        3       0.628   1.883   0.000  -2.510  -0.000   0.000
   52   20   19   18        3       0.628   1.883   0.000  -2.510  -0.000   0.000
   58   22   19   18        3       0.628   1.883   0.000  -2.510  -0.000   0.000
   35    7    8    9        3       0.628   1.883   0.000  -2.510  -0.000   0.000
   55   21   19   22        3       0.628   1.883   0.000  -2.510  -0.000   0.000
   56   22   19   18        3       0.628   1.883   0.000  -2.510  -0.000   0.000
   37    8    7   11        3       0.628   1.883   0.000  -2.510  -0.000   0.000
   38    9   10   11        3       0.628   1.883   0.000  -2.510  -0.000   0.000
   46   17   15   18        3       0.628   1.883   0.000  -2.510  -0.000   0.000
   36    8    7   11        3       0.628   1.883   0.000  -2.510  -0.000   0.000
   49   18   15   17        3       0.628   1.883   0.000  -2.510  -0.000   0.000
   33    6    7    8        3       0.628   1.883   0.000  -2.510  -0.000   0.000
   29    3    2    1        3       0.628   1.883   0.000  -2.510  -0.000   0.000
   30    4    5    6        3       0.628   1.883   0.000  -2.510  -0.000   0.000
   49   18   19   20        3       0.628   1.883   0.000  -2.510  -0.000   0.000
   52   20   19   22        3       0.628   1.883   0.000  -2.510  -0.000   0.000
   48   18   19   21        3       0.628   1.883   0.000  -2.510  -0.000   0.000
   56   22   19   20        3       0.628   1.883   0.000  -2.510  -0.000   0.000
   40   10    9    8        3       0.628   1.883   0.000  -2.510  -0.000   0.000
   28    3    2    4        3       0.628   1.883   0.000  -2.510  -0.000   0.000
   36    8    9   10        3       0.628   1.883   0.000  -2.510  -0.000   0.000
   57   22   19   18        3       0.628   1.883   0.000  -2.510  -0.000   0.000
   49   18   15   16        3       0.628   1.883   0.000  -2.510  -0.000   0.000
   54   21   19   18        3       0.628   1.883   0.000  -2.510  -0.000   0.000
   48   18   15   17        3       0.628   1.883   0.000  -2.510  -0.000   0.000
   54   21   19   20        3       0.628   1.883   0.000  -2.510  -0.000   0.000
   40   10    9   39        3       0.628   1.883   0.000  -2.510  -0.000   0.000
   35    7    6   34        3       0.628   1.883   0.000  -2.510  -0.000   0.000
   36    8    7   35        3       0.628   1.883   0.000  -2.510  -0.000   0.000
   35    7    6   33        3       0.628   1.883   0.000  -2.510  -0.000   0.000
   31    4    2   26        3       0.628   1.883   0.000  -2.510  -0.000   0.000
   41   11    7   35        3       0.628   1.883   0.000  -2.510  -0.000   0.000
   38    9    8   36        3       0.628   1.883   0.000  -2.510  -0.000   0.000
   27    3    2   26        3       0.628   1.883   0.000  -2.510  -0.000   0.000
   32    5    4   30        3       0.628   1.883   0.000  -2.510  -0.000   0.000
   41   11   10   40        3       0.628   1.883   0.000  -2.510  -0.000   0.000
   40   10    9   38        3       0.628   1.883   0.000  -2.510  -0.000   0.000
   37    8    7   35        3       0.628   1.883   0.000  -2.510  -0.000   0.000
   28    3    2   26        3       0.628   1.883   0.000  -2.510  -0.000   0.000
   30    4    2   26        3       0.628   1.883   0.000  -2.510  -0.000   0.000
   26    2    1   24        3       0.628   1.883   0.000  -2.510  -0.000   0.000
   33    6    5   32        3       0.628   1.883   0.000  -2.510  -0.000   0.000
   39    9    8   36        3       0.628   1.883   0.000  -2.510  -0.000   0.000
   26    2    1   23        3       0.628   1.883   0.000  -2.510  -0.000   0.000
   39    9    8   37        3       0.628   1.883   0.000  -2.510  -0.000   0.000
   34    6    5   32        3       0.628   1.883   0.000  -2.510  -0.000   0.000
   38    9    8   37        3       0.628   1.883   0.000  -2.510  -0.000   0.000
   32    5    4   31        3       0.628   1.883   0.000  -2.510  -0.000   0.000
   26    2    1   25        3       0.628   1.883   0.000  -2.510  -0.000   0.000
   29    3    2   26        3       0.628   1.883   0.000  -2.510  -0.000   0.000
   40   10    5   32        3       0.628   1.883   0.000  -2.510  -0.000   0.000
   40   10   11   12        3       0.979   2.937   0.000  -3.916  -0.000   0.000
   35    7   11   12        3       0.979   2.937   0.000  -3.916  -0.000   0.000
   41   11   12   13        3       0.414   1.243   0.000  -1.657  -0.000   0.000
   14   13   12   11        3      21.439   0.000  -21.439  -0.000  -0.000   0.000
   12   11   10    9        3       2.874   0.582   2.092  -5.548  -0.000   0.000
   12   11    7    6        3       2.874   0.582   2.092  -5.548  -0.000   0.000
   12   11    7    8        3       2.874   0.582   2.092  -5.548  -0.000   0.000
   12   11   10    5        3       2.874   0.582   2.092  -5.548  -0.000   0.000

[ pairs ]
     1     5    1
     3     5    1
     2     6    1
     4     7    1
     2    10    1
     5     8    1
     4     9    1
     6     9    1
     4    11    1
     5    12    1
     6    12    1
     8    12    1
     7    13    1
     9    12    1
    10    13    1
    11    14    1
    11    15    1
     3    23    1
     4    23    1
     3    24    1
    12    16    1
     4    24    1
     3    25    1
     1    27    1
    12    17    1
     4    25    1
     1    28    1
    14    16    1
    12    18    1
     1    29    1
    14    17    1
     5    26    1
     4    27    1
     1    30    1
    14    18    1
    13    19    1
     4    28    1
     1    31    1
     4    29    1
     3    30    1
     3    31    1
     2    32    1
    16    19    1
    15    20    1
    17    19    1
    15    21    1
     6    30    1
    15    22    1
     6    31    1
     4    33    1
     4    34    1
     7    32    1
    10    30    1
     5    35    1
    10    31    1
     9    32    1
     8    33    1
     8    34    1
     6    36    1
    11    32    1
    10    33    1
     6    37    1
     5    38    1
    11    33    1
    10    34    1
     9    35    1
     5    39    1
     4    40    1
    11    34    1
    10    35    1
     7    38    1
    10    36    1
     7    39    1
     6    40    1
     5    41    1
    12    35    1
    11    36    1
    10    37    1
     7    40    1
     6    41    1
    11    37    1
     8    40    1
    23    26    1
    11    38    1
     8    41    1
    24    26    1
    11    39    1
     9    41    1
    25    26    1
    12    40    1
    26    27    1
    26    28    1
    13    41    1
    26    29    1
    13    42    1
    26    30    1
    13    43    1
    26    31    1
    13    44    1
    13    45    1
    17    42    1
    13    46    1
    18    42    1
    17    43    1
    13    47    1
    18    43    1
    17    44    1
    16    45    1
    13    48    1
    30    32    1
    18    44    1
    16    46    1
    13    49    1
    31    32    1
    18    45    1
    16    47    1
    18    46    1
    16    48    1
    32    33    1
    18    47    1
    17    48    1
    16    49    1
    32    34    1
    17    49    1
    33    35    1
    20    48    1
    18    50    1
    34    35    1
    21    48    1
    20    49    1
    18    51    1
    22    48    1
    21    49    1
    18    52    1
    35    36    1
    22    49    1
    21    50    1
    18    53    1
    35    37    1
    32    40    1
    22    50    1
    21    51    1
    18    54    1
    22    51    1
    21    52    1
    20    53    1
    18    55    1
    36    38    1
    22    52    1
    20    54    1
    18    56    1
    37    38    1
    36    39    1
    22    53    1
    20    55    1
    18    57    1
    37    39    1
    35    41    1
    22    54    1
    20    56    1
    18    58    1
    22    55    1
    21    56    1
    20    57    1
    38    40    1
    21    57    1
    20    58    1
    39    40    1
    21    58    1
    40    41    1

