
;
; GENERATED BY LigParGen Server
; Jorgensen Lab @ Yale University 
;
[ atomtypes ]
  opls_824  H824     1.0080     0.000    A    2.50000E-01   1.25520E-01
  opls_801  N801    14.0070     0.000    A    3.30000E-01   7.11280E-01
  opls_804  C804    12.0110     0.000    A    3.50000E-01   2.76144E-01
  opls_818  C818    12.0110     0.000    A    3.50000E-01   2.76144E-01
  opls_843  H843     1.0080     0.000    A    2.50000E-01   1.25520E-01
  opls_836  H836     1.0080     0.000    A    2.50000E-01   1.25520E-01
  opls_834  H834     1.0080     0.000    A    2.50000E-01   1.25520E-01
  opls_810  C810    12.0110     0.000    A    3.50000E-01   2.76144E-01
  opls_828  H828     1.0080     0.000    A    2.50000E-01   1.25520E-01
  opls_812  O812    15.9990     0.000    A    2.90000E-01   5.85760E-01
  opls_815  O815    15.9990     0.000    A    2.90000E-01   5.85760E-01
  opls_802  C802    12.0110     0.000    A    3.50000E-01   2.76144E-01
  opls_827  H827     1.0080     0.000    A    2.50000E-01   1.25520E-01
  opls_809  C809    12.0110     0.000    A    3.50000E-01   2.76144E-01
  opls_806  C806    12.0110     0.000    A    3.50000E-01   2.76144E-01
  opls_820  N820    14.0070     0.000    A    3.20000E-01   7.11280E-01
  opls_822  H822     1.0080     0.000    A    2.50000E-01   1.25520E-01
  opls_803  C803    12.0110     0.000    A    3.50000E-01   2.76144E-01
  opls_838  H838     1.0080     0.000    A    2.50000E-01   1.25520E-01
  opls_830  H830     1.0080     0.000    A    2.50000E-01   1.25520E-01
  opls_821  H821     1.0080     0.000    A    2.50000E-01   1.25520E-01
  opls_842  H842     1.0080     0.000    A    2.50000E-01   1.25520E-01
  opls_826  H826     1.0080     0.000    A    2.50000E-01   1.25520E-01
  opls_837  H837     1.0080     0.000    A    2.50000E-01   1.25520E-01
  opls_813  C813    12.0110     0.000    A    3.55000E-01   2.92880E-01
  opls_829  H829     1.0080     0.000    A    2.50000E-01   1.25520E-01
  opls_831  H831     1.0080     0.000    A    2.50000E-01   1.25520E-01
  opls_832  H832     1.0080     0.000    A    2.50000E-01   1.25520E-01
  opls_800  C800    12.0110     0.000    A    3.50000E-01   2.76144E-01
  opls_805  C805    12.0110     0.000    A    3.50000E-01   2.76144E-01
  opls_846  H846     1.0080     0.000    A    2.50000E-01   1.25520E-01
  opls_811  C811    12.0110     0.000    A    3.50000E-01   2.76144E-01
  opls_823  H823     1.0080     0.000    A    2.50000E-01   1.25520E-01
  opls_835  H835     1.0080     0.000    A    2.50000E-01   1.25520E-01
  opls_841  H841     1.0080     0.000    A    2.50000E-01   1.25520E-01
  opls_825  H825     1.0080     0.000    A    2.50000E-01   1.25520E-01
  opls_816  C816    12.0110     0.000    A    3.50000E-01   2.76144E-01
  opls_833  H833     1.0080     0.000    A    2.50000E-01   1.25520E-01
  opls_839  H839     1.0080     0.000    A    2.50000E-01   1.25520E-01
  opls_817  C817    12.0110     0.000    A    3.50000E-01   2.76144E-01
  opls_840  H840     1.0080     0.000    A    2.50000E-01   1.25520E-01
  opls_814  O814    15.9990     0.000    A    2.96000E-01   8.78640E-01
  opls_847  H847     1.0080     0.000    A    2.50000E-01   1.25520E-01
  opls_844  H844     1.0080     0.000    A    2.50000E-01   1.25520E-01
  opls_819  C819    12.0110     0.000    A    3.30000E-01   2.76144E-01
  opls_845  H845     1.0080     0.000    A    2.50000E-01   1.25520E-01
  opls_807  C807    12.0110     0.000    A    3.50000E-01   2.76144E-01
  opls_808  N808    14.0070     0.000    A    3.30000E-01   7.11280E-01
[ moleculetype ]
; Name               nrexcl
UNK                   3
[ atoms ]
;   nr       type  resnr residue  atom   cgnr     charge       mass  
     1   opls_800      1    UNK   C00      1    -0.0278    12.0110 
     2   opls_801      1    UNK   N01      1    -0.6462    14.0070 
     3   opls_802      1    UNK   C02      1    -0.0285    12.0110 
     4   opls_803      1    UNK   C03      1     0.1821    12.0110 
     5   opls_804      1    UNK   C04      1    -0.2399    12.0110 
     6   opls_805      1    UNK   C05      1    -0.2375    12.0110 
     7   opls_806      1    UNK   C06      1    -0.2245    12.0110 
     8   opls_807      1    UNK   C07      1     0.1672    12.0110 
     9   opls_808      1    UNK   N08      1    -0.6605    14.0070 
    10   opls_809      1    UNK   C09      1    -0.0301    12.0110 
    11   opls_810      1    UNK   C0A      1     -0.047    12.0110 
    12   opls_811      1    UNK   C0B      1     0.0347    12.0110 
    13   opls_812      1    UNK   O0C      1    -0.4146    15.9990 
    14   opls_813      1    UNK   C0D      1     0.6318    12.0110 
    15   opls_814      1    UNK   O0E      1     -0.412    15.9990 
    16   opls_815      1    UNK   O0F      1    -0.3641    15.9990 
    17   opls_816      1    UNK   C0G      1     0.0698    12.0110 
    18   opls_817      1    UNK   C0H      1    -0.1916    12.0110 
    19   opls_818      1    UNK   C0I      1     0.0407    12.0110 
    20   opls_819      1    UNK   C0J      1     0.1351    12.0110 
    21   opls_820      1    UNK   N0K      1    -0.4026    14.0070 
    22   opls_821      1    UNK   H0M      1     0.0805     1.0080 
    23   opls_822      1    UNK   H0N      1     0.0805     1.0080 
    24   opls_823      1    UNK   H0O      1     0.0805     1.0080 
    25   opls_824      1    UNK   H0P      1     0.0842     1.0080 
    26   opls_825      1    UNK   H0Q      1     0.0842     1.0080 
    27   opls_826      1    UNK   H0R      1     0.0842     1.0080 
    28   opls_827      1    UNK   H0S      1     0.0886     1.0080 
    29   opls_828      1    UNK   H0T      1     0.0886     1.0080 
    30   opls_829      1    UNK   H0U      1     0.0886     1.0080 
    31   opls_830      1    UNK   H0V      1      0.094     1.0080 
    32   opls_831      1    UNK   H0W      1      0.094     1.0080 
    33   opls_832      1    UNK   H0X      2      0.094     1.0080 
    34   opls_833      1    UNK   H0Y      2     0.1038     1.0080 
    35   opls_834      1    UNK   H0Z      2     0.1038     1.0080 
    36   opls_835      1    UNK   H10      2     0.0893     1.0080 
    37   opls_836      1    UNK   H11      2     0.0893     1.0080 
    38   opls_837      1    UNK   H12      2     0.0893     1.0080 
    39   opls_838      1    UNK   H13      2     0.0949     1.0080 
    40   opls_839      1    UNK   H14      2     0.0949     1.0080 
    41   opls_840      1    UNK   H15      2     0.0949     1.0080 
    42   opls_841      1    UNK   H16      2      0.126     1.0080 
    43   opls_842      1    UNK   H17      2      0.126     1.0080 
    44   opls_843      1    UNK   H18      2     0.1143     1.0080 
    45   opls_844      1    UNK   H19      2     0.1143     1.0080 
    46   opls_845      1    UNK   H1A      2     0.1246     1.0080 
    47   opls_846      1    UNK   H1B      2     0.1246     1.0080 
    48   opls_847      1    UNK   H1C      2     0.1331     1.0080 
[ bonds ]
    2     1     1      0.1448 319657.600
    3     2     1      0.1448 319657.600
    4     2     1      0.1448 319657.600
    5     4     1      0.1529 224262.400
    6     4     1      0.1529 224262.400
    7     4     1      0.1529 224262.400
    8     7     1      0.1529 224262.400
    9     8     1      0.1448 319657.600
   10     9     1      0.1448 319657.600
   11     9     1      0.1448 319657.600
   12     8     1      0.1529 224262.400
   13    12     1      0.1410 267776.000
   14    13     1      0.1327 179075.200
   15    14     1      0.1229 476976.000
   16    14     1      0.1327 179075.200
   17    16     1      0.1410 267776.000
   18    17     1      0.1529 224262.400
   19     8     1      0.1529 224262.400
   20    19     1      0.1470 326352.000
   21    20     1      0.1157 543920.000
   22     1     1      0.1090 284512.000
   23     1     1      0.1090 284512.000
   24     1     1      0.1090 284512.000
   25     3     1      0.1090 284512.000
   26     3     1      0.1090 284512.000
   27     3     1      0.1090 284512.000
   28     5     1      0.1090 284512.000
   29     5     1      0.1090 284512.000
   30     5     1      0.1090 284512.000
   31     6     1      0.1090 284512.000
   32     6     1      0.1090 284512.000
   33     6     1      0.1090 284512.000
   34     7     1      0.1090 284512.000
   35     7     1      0.1090 284512.000
   36    10     1      0.1090 284512.000
   37    10     1      0.1090 284512.000
   38    10     1      0.1090 284512.000
   39    11     1      0.1090 284512.000
   40    11     1      0.1090 284512.000
   41    11     1      0.1090 284512.000
   42    12     1      0.1090 284512.000
   43    12     1      0.1090 284512.000
   44    17     1      0.1090 284512.000
   45    17     1      0.1090 284512.000
   46    18     1      0.1090 284512.000
   47    18     1      0.1090 284512.000
   48    19     1      0.1090 284512.000
   19    18     1      0.1529 224262.400

[ angles ]
;  ai    aj    ak funct            c0            c1            c2            c3 
    1     2     3     1    107.200    433.462
    1     2     4     1    107.200    433.462
    2     4     5     1    109.470    470.282
    2     4     6     1    109.470    470.282
    2     4     7     1    109.470    470.282
    4     7     8     1    112.700    488.273
    7     8     9     1    109.470    470.282
    8     9    10     1    107.200    433.462
    8     9    11     1    107.200    433.462
    7     8    12     1    112.700    488.273
    8    12    13     1    109.500    418.400
   12    13    14     1    116.900    694.544
   13    14    15     1    123.400    694.544
   13    14    16     1    118.180    584.923
   14    16    17     1    116.900    694.544
   16    17    18     1    109.500    418.400
    7     8    19     1    112.700    488.273
    8    19    20     1    112.700    488.273
   19    20    21     1    180.000   1255.200
    2     1    22     1    109.500    292.880
    2     1    23     1    109.500    292.880
    2     1    24     1    109.500    292.880
    2     3    25     1    109.500    292.880
    2     3    26     1    109.500    292.880
    2     3    27     1    109.500    292.880
    4     5    28     1    110.700    313.800
    4     5    29     1    110.700    313.800
    4     5    30     1    110.700    313.800
    4     6    31     1    110.700    313.800
    4     6    32     1    110.700    313.800
    4     6    33     1    110.700    313.800
    4     7    34     1    110.700    313.800
    4     7    35     1    110.700    313.800
    9    10    36     1    109.500    292.880
    9    10    37     1    109.500    292.880
    9    10    38     1    109.500    292.880
    9    11    39     1    109.500    292.880
    9    11    40     1    109.500    292.880
    9    11    41     1    109.500    292.880
    8    12    42     1    110.700    313.800
    8    12    43     1    110.700    313.800
   16    17    44     1    109.500    292.880
   16    17    45     1    109.500    292.880
   17    18    46     1    110.700    313.800
   17    18    47     1    110.700    313.800
    8    19    48     1    110.700    313.800
   39    11    41     1    107.800    276.144
   19    18    47     1    110.700    313.800
   18    19    48     1    110.700    313.800
   22     1    24     1    107.800    276.144
   31     6    33     1    107.800    276.144
    5     4     7     1    112.700    488.273
   18    19    20     1    112.700    488.273
    5     4     6     1    112.700    488.273
   15    14    16     1    123.400    694.544
    8    19    18     1    112.700    488.273
   23     1    24     1    107.800    276.144
   39    11    40     1    107.800    276.144
   20    19    48     1    108.500    292.880
   32     6    33     1    107.800    276.144
    9     8    19     1    109.470    470.282
   13    12    42     1    109.500    292.880
   42    12    43     1    107.800    276.144
   29     5    30     1    107.800    276.144
   12     8    19     1    112.700    488.273
   40    11    41     1    107.800    276.144
    8     7    35     1    110.700    313.800
   46    18    47     1    107.800    276.144
   17    18    19     1    112.700    488.273
   37    10    38     1    107.800    276.144
   44    17    45     1    107.800    276.144
   18    17    45     1    110.700    313.800
   13    12    43     1    109.500    292.880
   28     5    29     1    107.800    276.144
    8     7    34     1    110.700    313.800
   34     7    35     1    107.800    276.144
   25     3    26     1    107.800    276.144
   31     6    32     1    107.800    276.144
    6     4     7     1    112.700    488.273
   26     3    27     1    107.800    276.144
   18    17    44     1    110.700    313.800
   25     3    27     1    107.800    276.144
   22     1    23     1    107.800    276.144
    9     8    12     1    109.470    470.282
   36    10    38     1    107.800    276.144
    3     2     4     1    107.200    433.462
   10     9    11     1    107.200    433.462
   19    18    46     1    110.700    313.800
   28     5    30     1    107.800    276.144
   36    10    37     1    107.800    276.144

[ dihedrals ]
; IMPROPER DIHEDRAL ANGLES 
;  ai    aj    ak    al funct            c0            c1            c2            c3            c4            c5
    16    14    13    15    4        180.000     43.932     2  

[ dihedrals ]
; PROPER DIHEDRAL ANGLES
;  ai    aj    ak    al funct            c0            c1            c2            c3            c4            c5
   14   13   12    8        3      -2.197   5.201   0.527  -3.531  -0.000   0.000
    8    7    4    6        3       2.301  -1.464   0.837  -1.674  -0.000   0.000
   19    8    7    4        3       2.301  -1.464   0.837  -1.674  -0.000   0.000
   12    8    7    4        3       2.301  -1.464   0.837  -1.674  -0.000   0.000
   18   19    8    7        3       2.301  -1.464   0.837  -1.674  -0.000   0.000
   17   18   19    8        3       2.301  -1.464   0.837  -1.674  -0.000   0.000
   18   19    8   12        3       2.301  -1.464   0.837  -1.674  -0.000   0.000
    8    7    4    5        3       2.301  -1.464   0.837  -1.674  -0.000   0.000
    8    7    4    2        3       3.335  -1.552   2.820  -4.602  -0.000   0.000
   18   19    8    9        3       3.335  -1.552   2.820  -4.602  -0.000   0.000
   19    8   12   13        3       2.874   0.582   2.092  -5.548  -0.000   0.000
   19   18   17   16        3       2.874   0.582   2.092  -5.548  -0.000   0.000
    5    4    2    3        3       1.789   3.492   0.536  -5.816  -0.000   0.000
   19    8    9   11        3       1.789   3.492   0.536  -5.816  -0.000   0.000
    6    4    2    1        3       1.789   3.492   0.536  -5.816  -0.000   0.000
    7    4    2    1        3       1.789   3.492   0.536  -5.816  -0.000   0.000
    6    4    2    3        3       1.789   3.492   0.536  -5.816  -0.000   0.000
   12    8    9   10        3       1.789   3.492   0.536  -5.816  -0.000   0.000
   19    8    9   10        3       1.789   3.492   0.536  -5.816  -0.000   0.000
    5    4    2    1        3       1.789   3.492   0.536  -5.816  -0.000   0.000
    7    4    2    3        3       1.789   3.492   0.536  -5.816  -0.000   0.000
   12    8    9   11        3       1.789   3.492   0.536  -5.816  -0.000   0.000
   18   17   16   14        3      -2.197   5.201   0.527  -3.531  -0.000   0.000
   11    9    8    7        3       1.789   3.492   0.536  -5.816  -0.000   0.000
   10    9    8    7        3       1.789   3.492   0.536  -5.816  -0.000   0.000
   17   16   14   15        3      21.439   0.000  -21.439  -0.000  -0.000   0.000
   17   16   14   13        3      31.206  -9.768  -21.439  -0.000  -0.000   0.000
   20   19    8    7        3      -2.720   0.000   2.720  -0.000  -0.000   0.000
   20   19    8   12        3      -2.720   0.000   2.720  -0.000  -0.000   0.000
   20   19   18   17        3      -2.720   0.000   2.720  -0.000  -0.000   0.000
   20   19    8    9        3       3.335  -1.552   2.820  -4.602  -0.000   0.000
   30    5    4    7        3       0.628   1.883   0.000  -2.510  -0.000   0.000
   48   19    8    7        3       0.628   1.883   0.000  -2.510  -0.000   0.000
   28    5    4    7        3       0.628   1.883   0.000  -2.510  -0.000   0.000
   29    5    4    6        3       0.628   1.883   0.000  -2.510  -0.000   0.000
   34    7    4    5        3       0.628   1.883   0.000  -2.510  -0.000   0.000
   35    7    4    6        3       0.628   1.883   0.000  -2.510  -0.000   0.000
   42   12    8    7        3       0.628   1.883   0.000  -2.510  -0.000   0.000
   43   12    8   19        3       0.628   1.883   0.000  -2.510  -0.000   0.000
   48   19    8   12        3       0.628   1.883   0.000  -2.510  -0.000   0.000
   34    7    8   19        3       0.628   1.883   0.000  -2.510  -0.000   0.000
   33    6    4    5        3       0.628   1.883   0.000  -2.510  -0.000   0.000
   31    6    4    7        3       0.628   1.883   0.000  -2.510  -0.000   0.000
   47   18   19    8        3       0.628   1.883   0.000  -2.510  -0.000   0.000
   35    7    8   12        3       0.628   1.883   0.000  -2.510  -0.000   0.000
   35    7    8   19        3       0.628   1.883   0.000  -2.510  -0.000   0.000
   44   17   18   19        3       0.628   1.883   0.000  -2.510  -0.000   0.000
   34    7    8   12        3       0.628   1.883   0.000  -2.510  -0.000   0.000
   46   18   19    8        3       0.628   1.883   0.000  -2.510  -0.000   0.000
   30    5    4    6        3       0.628   1.883   0.000  -2.510  -0.000   0.000
   45   17   18   19        3       0.628   1.883   0.000  -2.510  -0.000   0.000
   28    5    4    6        3       0.628   1.883   0.000  -2.510  -0.000   0.000
   43   12    8    7        3       0.628   1.883   0.000  -2.510  -0.000   0.000
   34    7    4    6        3       0.628   1.883   0.000  -2.510  -0.000   0.000
   35    7    4    5        3       0.628   1.883   0.000  -2.510  -0.000   0.000
   42   12    8   19        3       0.628   1.883   0.000  -2.510  -0.000   0.000
   29    5    4    7        3       0.628   1.883   0.000  -2.510  -0.000   0.000
   48   19   18   17        3       0.628   1.883   0.000  -2.510  -0.000   0.000
   32    6    4    5        3       0.628   1.883   0.000  -2.510  -0.000   0.000
   32    6    4    7        3       0.628   1.883   0.000  -2.510  -0.000   0.000
   33    6    4    7        3       0.628   1.883   0.000  -2.510  -0.000   0.000
   31    6    4    5        3       0.628   1.883   0.000  -2.510  -0.000   0.000
   46   18   19   20        3       0.766   2.297   0.000  -3.063  -0.000   0.000
   47   18   19   20        3       0.766   2.297   0.000  -3.063  -0.000   0.000
   47   18   17   44        3       0.628   1.883   0.000  -2.510  -0.000   0.000
   48   19   18   46        3       0.628   1.883   0.000  -2.510  -0.000   0.000
   46   18   17   45        3       0.628   1.883   0.000  -2.510  -0.000   0.000
   47   18   17   45        3       0.628   1.883   0.000  -2.510  -0.000   0.000
   46   18   17   44        3       0.628   1.883   0.000  -2.510  -0.000   0.000
   48   19   18   47        3       0.628   1.883   0.000  -2.510  -0.000   0.000
   35    7    4    2        3      -4.096   5.088   2.966  -3.958  -0.000   0.000
   43   12    8    9        3      -4.096   5.088   2.966  -3.958  -0.000   0.000
   33    6    4    2        3      -4.096   5.088   2.966  -3.958  -0.000   0.000
   35    7    8    9        3      -4.096   5.088   2.966  -3.958  -0.000   0.000
   34    7    4    2        3      -4.096   5.088   2.966  -3.958  -0.000   0.000
   28    5    4    2        3      -4.096   5.088   2.966  -3.958  -0.000   0.000
   31    6    4    2        3      -4.096   5.088   2.966  -3.958  -0.000   0.000
   48   19    8    9        3      -4.096   5.088   2.966  -3.958  -0.000   0.000
   42   12    8    9        3      -4.096   5.088   2.966  -3.958  -0.000   0.000
   30    5    4    2        3      -4.096   5.088   2.966  -3.958  -0.000   0.000
   34    7    8    9        3      -4.096   5.088   2.966  -3.958  -0.000   0.000
   29    5    4    2        3      -4.096   5.088   2.966  -3.958  -0.000   0.000
   32    6    4    2        3      -4.096   5.088   2.966  -3.958  -0.000   0.000
   46   18   17   16        3       0.979   2.937   0.000  -3.916  -0.000   0.000
   47   18   17   16        3       0.979   2.937   0.000  -3.916  -0.000   0.000
   48   19   20   21        3       0.000   0.000   0.000  -0.000  -0.000   0.000
   40   11    9   10        3       1.172   3.515   0.000  -4.686  -0.000   0.000
   25    3    2    4        3       1.172   3.515   0.000  -4.686  -0.000   0.000
   41   11    9   10        3       1.172   3.515   0.000  -4.686  -0.000   0.000
   27    3    2    4        3       1.172   3.515   0.000  -4.686  -0.000   0.000
   26    3    2    4        3       1.172   3.515   0.000  -4.686  -0.000   0.000
   26    3    2    1        3       1.172   3.515   0.000  -4.686  -0.000   0.000
   38   10    9   11        3       1.172   3.515   0.000  -4.686  -0.000   0.000
   39   11    9   10        3       1.172   3.515   0.000  -4.686  -0.000   0.000
   38   10    9    8        3       1.172   3.515   0.000  -4.686  -0.000   0.000
   41   11    9    8        3       1.172   3.515   0.000  -4.686  -0.000   0.000
   24    1    2    4        3       1.172   3.515   0.000  -4.686  -0.000   0.000
   37   10    9   11        3       1.172   3.515   0.000  -4.686  -0.000   0.000
   40   11    9    8        3       1.172   3.515   0.000  -4.686  -0.000   0.000
   23    1    2    3        3       1.172   3.515   0.000  -4.686  -0.000   0.000
   39   11    9    8        3       1.172   3.515   0.000  -4.686  -0.000   0.000
   25    3    2    1        3       1.172   3.515   0.000  -4.686  -0.000   0.000
   24    1    2    3        3       1.172   3.515   0.000  -4.686  -0.000   0.000
   23    1    2    4        3       1.172   3.515   0.000  -4.686  -0.000   0.000
   37   10    9    8        3       1.172   3.515   0.000  -4.686  -0.000   0.000
   22    1    2    3        3       1.172   3.515   0.000  -4.686  -0.000   0.000
   27    3    2    1        3       1.172   3.515   0.000  -4.686  -0.000   0.000
   36   10    9    8        3       1.172   3.515   0.000  -4.686  -0.000   0.000
   36   10    9   11        3       1.172   3.515   0.000  -4.686  -0.000   0.000
   22    1    2    4        3       1.172   3.515   0.000  -4.686  -0.000   0.000
   45   17   16   14        3       0.414   1.243   0.000  -1.657  -0.000   0.000
   43   12   13   14        3       0.414   1.243   0.000  -1.657  -0.000   0.000
   44   17   16   14        3       0.414   1.243   0.000  -1.657  -0.000   0.000
   42   12   13   14        3       0.414   1.243   0.000  -1.657  -0.000   0.000
    9    8    7    4        3       3.335  -1.552   2.820  -4.602  -0.000   0.000
   21   20   19   18        3       0.000   0.000   0.000  -0.000  -0.000   0.000
   21   20   19    8        3       0.000   0.000   0.000  -0.000  -0.000   0.000
   15   14   13   12        3      21.439   0.000  -21.439  -0.000  -0.000   0.000
   16   14   13   12        3      31.206  -9.768  -21.439  -0.000  -0.000   0.000
   13   12    8    7        3       2.874   0.582   2.092  -5.548  -0.000   0.000
   13   12    8    9        3      16.736  -16.736   0.000  -0.000  -0.000   0.000

[ pairs ]
     1     5    1
     1     6    1
     3     5    1
     1     7    1
     3     6    1
     3     7    1
     2     8    1
     5     8    1
     4     9    1
     6     8    1
     4    12    1
     7    10    1
     7    11    1
     7    13    1
    10    12    1
     9    13    1
     8    14    1
    11    12    1
     4    19    1
     8    17    1
     7    18    1
     3    22    1
     4    22    1
     3    23    1
     1    25    1
    12    15    1
     9    18    1
     7    20    1
     4    23    1
     3    24    1
     1    26    1
    12    16    1
     4    24    1
     1    27    1
    10    19    1
     9    20    1
     8    21    1
     4    25    1
    13    17    1
    12    18    1
    11    19    1
     4    26    1
     2    28    1
     4    27    1
     2    29    1
    15    17    1
    14    18    1
    13    19    1
    12    20    1
     2    30    1
     2    31    1
     6    28    1
     2    32    1
    16    19    1
     7    28    1
     6    29    1
     2    33    1
     7    29    1
     6    30    1
     5    31    1
     2    34    1
    17    20    1
     7    30    1
     5    32    1
     2    35    1
     7    31    1
     5    33    1
    18    21    1
     7    32    1
     5    34    1
     7    33    1
     6    34    1
     5    35    1
     6    35    1
     9    34    1
     9    35    1
     8    36    1
     8    37    1
    12    34    1
     8    38    1
    12    35    1
    11    36    1
     8    39    1
    11    37    1
     8    40    1
    11    38    1
    10    39    1
     8    41    1
     7    42    1
    10    40    1
     7    43    1
    10    41    1
     9    42    1
     9    43    1
    19    34    1
    19    35    1
     8    46    1
     8    47    1
     7    48    1
    14    42    1
    14    43    1
     9    48    1
    14    44    1
    14    45    1
    12    48    1
    19    42    1
    19    43    1
    16    46    1
    19    44    1
    16    47    1
    19    45    1
    17    48    1
    20    46    1
    20    47    1
    21    48    1
    44    46    1
    45    46    1
    44    47    1
    45    47    1
    46    48    1
    47    48    1

