LIGPARGEN GENERATED GRO FILE
   52
    1UNK    C00    1   0.100   0.100   0.000
    1UNK    C01    2  -0.052   0.100   0.000
    1UNK    C02    3  -0.110   0.100   0.142
    1UNK    C03    4  -0.263   0.100   0.135
    1UNK    C04    5  -0.328   0.100   0.273
    1UNK    C05    6  -0.483   0.100   0.266
    1UNK    C06    7  -0.541  -0.017   0.184
    1UNK    C07    8  -0.518  -0.155   0.244
    1UNK    C08    9  -0.539   0.107   0.410
    1UNK    C09   10  -0.692   0.114   0.416
    1UNK    C0A   11  -0.741   0.121   0.561
    1UNK    C0B   12  -0.893   0.127   0.565
    1UNK    C0C   13  -0.947   0.134   0.707
    1UNK    O0D   14  -0.886   0.087   0.802
    1UNK    C0E   15  -1.080   0.204   0.726
    1UNK    C0F   16  -1.190   0.136   0.645
    1UNK    C0G   17  -1.325   0.205   0.664
    1UNK    C0H   18  -1.433   0.137   0.583
    1UNK    H0I   19   0.137   0.100  -0.103
    1UNK    H0J   20   0.139   0.011   0.050
    1UNK    H0K   21   0.139   0.189   0.051
    1UNK    H0M   22  -0.087   0.012  -0.055
    1UNK    H0N   23  -0.088   0.188  -0.054
    1UNK    H0O   24  -0.075   0.188   0.197
    1UNK    H0P   25  -0.075   0.011   0.196
    1UNK    H0Q   26  -0.293   0.011   0.079
    1UNK    H0R   27  -0.297   0.187   0.078
    1UNK    H0S   28  -0.295   0.190   0.327
    1UNK    H0T   29  -0.293   0.014   0.331
    1UNK    H0U   30  -0.513   0.192   0.215
    1UNK    H0V   31  -0.500  -0.015   0.082
    1UNK    H0W   32  -0.649  -0.003   0.169
    1UNK    H0X   33  -0.415  -0.169   0.278
    1UNK    H0Y   34  -0.538  -0.232   0.168
    1UNK    H0Z   35  -0.586  -0.173   0.328
    1UNK    H10   36  -0.498   0.196   0.460
    1UNK    H11   37  -0.504   0.020   0.468
    1UNK    H12   38  -0.736   0.026   0.369
    1UNK    H13   39  -0.727   0.202   0.361
    1UNK    H14   40  -0.699   0.208   0.611
    1UNK    H15   41  -0.706   0.032   0.616
    1UNK    H16   42  -0.937   0.039   0.517
    1UNK    H17   43  -0.927   0.216   0.511
    1UNK    H18   44  -1.068   0.309   0.697
    1UNK    H19   45  -1.105   0.201   0.833
    1UNK    H1A   46  -1.198   0.031   0.674
    1UNK    H1B   47  -1.164   0.137   0.538
    1UNK    H1C   48  -1.317   0.310   0.634
    1UNK    H1D   49  -1.353   0.204   0.770
    1UNK    H1E   50  -1.409   0.140   0.476
    1UNK    H1F   51  -1.529   0.188   0.597
    1UNK    H1G   52  -1.445   0.033   0.613
   1.00000   1.00000   1.00000

