LIGPARGEN GENERATED GRO FILE
   25
    1UNK    C00    1   0.100   0.100   0.000
    1UNK    C01    2  -0.052   0.100   0.000
    1UNK    C02    3  -0.110   0.100   0.141
    1UNK    O03    4  -0.039   0.105   0.241
    1UNK    C04    5  -0.262   0.094   0.152
    1UNK    C05    6  -0.295  -0.037   0.225
    1UNK    C06    7  -0.311   0.219   0.225
    1UNK    S07    8  -0.272   0.373   0.134
    1UNK    C08    9  -0.394   0.474   0.222
    1UNK    C09   10  -0.524   0.396   0.217
    1UNK    S0A   11  -0.493   0.221   0.253
    1UNK    H0B   12   0.138   0.095  -0.102
    1UNK    H0C   13   0.139   0.014   0.055
    1UNK    H0D   14   0.139   0.191   0.047
    1UNK    H0E   15  -0.088   0.011  -0.052
    1UNK    H0F   16  -0.088   0.189  -0.053
    1UNK    H0G   17  -0.304   0.088   0.051
    1UNK    H0H   18  -0.256  -0.037   0.327
    1UNK    H0I   19  -0.251  -0.123   0.173
    1UNK    H0J   20  -0.403  -0.054   0.230
    1UNK    H0K   21  -0.264   0.227   0.324
    1UNK    H0M   22  -0.404   0.572   0.175
    1UNK    H0N   23  -0.359   0.489   0.325
    1UNK    H0O   24  -0.571   0.405   0.119
    1UNK    H0P   25  -0.595   0.436   0.291
   1.00000   1.00000   1.00000

