LIGPARGEN GENERATED GRO FILE
   41
    1UNK    C00    1   0.100   0.100   0.000
    1UNK    C01    2  -0.054   0.100   0.000
    1UNK    C02    3  -0.105   0.100   0.145
    1UNK    C03    4  -0.102   0.229  -0.069
    1UNK    C04    5  -0.109  -0.021  -0.079
    1UNK    C05    6  -0.070  -0.159  -0.025
    1UNK    C06    7  -0.127  -0.276  -0.107
    1UNK    C07    8  -0.082  -0.279  -0.252
    1UNK    C08    9   0.068  -0.287  -0.270
    1UNK    O09   10   0.134  -0.203  -0.330
    1UNK    O0A   11   0.116  -0.404  -0.219
    1UNK    C0B   12   0.245  -0.444  -0.270
    1UNK    C0C   13   0.361  -0.368  -0.208
    1UNK    S0D   14   0.513  -0.426  -0.279
    1UNK    C0E   15   0.636  -0.324  -0.202
    1UNK    O0F   16   0.534  -0.562  -0.233
    1UNK    O0G   17   0.513  -0.396  -0.421
    1UNK    H0H   18   0.139   0.190   0.049
    1UNK    H0I   19   0.139   0.098  -0.102
    1UNK    H0J   20   0.141   0.014   0.054
    1UNK    H0K   21  -0.070   0.189   0.199
    1UNK    H0M   22  -0.070   0.012   0.200
    1UNK    H0N   23  -0.215   0.101   0.148
    1UNK    H0O   24  -0.064   0.318  -0.018
    1UNK    H0P   25  -0.212   0.235  -0.069
    1UNK    H0Q   26  -0.068   0.233  -0.173
    1UNK    H0R   27  -0.074  -0.012  -0.183
    1UNK    H0S   28  -0.219  -0.015  -0.083
    1UNK    H0T   29  -0.107  -0.170   0.078
    1UNK    H0U   30   0.039  -0.169  -0.020
    1UNK    H0V   31  -0.236  -0.271  -0.104
    1UNK    H0W   32  -0.098  -0.369  -0.058
    1UNK    H0X   33  -0.118  -0.190  -0.306
    1UNK    H0Y   34  -0.126  -0.365  -0.303
    1UNK    H0Z   35   0.244  -0.435  -0.380
    1UNK    H10   36   0.254  -0.551  -0.248
    1UNK    H11   37   0.364  -0.384  -0.100
    1UNK    H12   38   0.354  -0.261  -0.226
    1UNK    H13   39   0.635  -0.342  -0.095
    1UNK    H14   40   0.614  -0.220  -0.225
    1UNK    H15   41   0.734  -0.352  -0.243
   1.00000   1.00000   1.00000

