LIGPARGEN GENERATED GRO FILE
   36
    1UNK    C00    1   0.100   0.100   0.000
    1UNK    C01    2  -0.052   0.100   0.000
    1UNK    C02    3  -0.107   0.100   0.143
    1UNK    C03    4  -0.261   0.100   0.145
    1UNK    C04    5  -0.326   0.100   0.287
    1UNK    C05    6  -0.276  -0.028   0.357
    1UNK    O06    7  -0.231  -0.030   0.471
    1UNK    C07    8  -0.274   0.219   0.373
    1UNK    C08    9  -0.301   0.357   0.319
    1UNK    O09   10  -0.228   0.412   0.238
    1UNK    C0A   11  -0.486   0.090   0.279
    1UNK    C0B   12  -0.550   0.090   0.421
    1UNK    C0C   13  -0.541   0.208   0.207
    1UNK    N0D   14  -0.587   0.297   0.150
    1UNK    C0E   15  -0.534  -0.037   0.202
    1UNK    C0F   16  -0.685  -0.050   0.192
    1UNK    O0G   17  -0.746  -0.142   0.245
    1UNK    H0H   18   0.138   0.105  -0.102
    1UNK    H0I   19   0.139   0.009   0.047
    1UNK    H0J   20   0.139   0.186   0.055
    1UNK    H0K   21  -0.088   0.012  -0.054
    1UNK    H0M   22  -0.088   0.189  -0.053
    1UNK    H0N   23  -0.068   0.188   0.195
    1UNK    H0O   24  -0.069   0.012   0.195
    1UNK    H0P   25  -0.292   0.011   0.090
    1UNK    H0Q   26  -0.296   0.186   0.088
    1UNK    H0R   27  -0.285  -0.122   0.299
    1UNK    H0S   28  -0.166   0.212   0.387
    1UNK    H0T   29  -0.314   0.216   0.476
    1UNK    H0U   30  -0.395   0.405   0.353
    1UNK    H0V   31  -0.526   0.181   0.477
    1UNK    H0W   32  -0.517   0.004   0.480
    1UNK    H0X   33  -0.659   0.086   0.416
    1UNK    H0Y   34  -0.498  -0.128   0.251
    1UNK    H0Z   35  -0.499  -0.038   0.099
    1UNK    H10   36  -0.738   0.028   0.135
   1.00000   1.00000   1.00000

