LIGPARGEN GENERATED GRO FILE
   34
    1UNK    C00    1   0.100   0.100   0.000
    1UNK    N01    2  -0.047   0.100   0.000
    1UNK    C02    3  -0.099   0.100   0.139
    1UNK    C03    4  -0.054  -0.024   0.214
    1UNK    O04    5   0.009  -0.019   0.319
    1UNK    C05    6  -0.094   0.219  -0.075
    1UNK    C06    7  -0.246   0.234  -0.084
    1UNK    C07    8  -0.286   0.352  -0.169
    1UNK    C08    9  -0.431   0.385  -0.191
    1UNK    C09   10  -0.544   0.290  -0.169
    1UNK    C0A   11  -0.535   0.184  -0.280
    1UNK    C0B   12  -0.406   0.211  -0.359
    1UNK    C0C   13  -0.348   0.337  -0.306
    1UNK    O0D   14  -0.342   0.448  -0.397
    1UNK    C0E   15  -0.414   0.554  -0.347
    1UNK    O0F   16  -0.428   0.662  -0.402
    1UNK    O0G   17  -0.467   0.520  -0.225
    1UNK    H0H   18   0.140   0.009   0.046
    1UNK    H0I   19   0.141   0.187   0.053
    1UNK    H0J   20   0.138   0.101  -0.103
    1UNK    H0K   21  -0.208   0.094   0.139
    1UNK    H0M   22  -0.068   0.190   0.194
    1UNK    H0N   23  -0.085  -0.120   0.170
    1UNK    H0O   24  -0.055   0.213  -0.177
    1UNK    H0P   25  -0.051   0.310  -0.030
    1UNK    H0Q   26  -0.288   0.251   0.016
    1UNK    H0R   27  -0.289   0.140  -0.122
    1UNK    H0S   28  -0.220   0.437  -0.151
    1UNK    H0T   29  -0.641   0.341  -0.174
    1UNK    H0U   30  -0.537   0.243  -0.070
    1UNK    H0V   31  -0.622   0.191  -0.346
    1UNK    H0W   32  -0.535   0.083  -0.238
    1UNK    H0X   33  -0.429   0.220  -0.466
    1UNK    H0Y   34  -0.335   0.127  -0.348
   1.00000   1.00000   1.00000

