
;
; GENERATED BY LigParGen Server
; Jorgensen Lab @ Yale University 
;
[ atomtypes ]
  opls_818  H818     1.0080     0.000    A    2.50000E-01   1.25520E-01
  opls_824  H824     1.0080     0.000    A    2.50000E-01   1.25520E-01
  opls_801  N801    14.0070     0.000    A    3.30000E-01   7.11280E-01
  opls_805  C805    12.0110     0.000    A    3.50000E-01   2.76144E-01
  opls_804  O804    15.9990     0.000    A    2.96000E-01   8.78640E-01
  opls_828  H828     1.0080     0.000    A    2.50000E-01   1.25520E-01
  opls_814  C814    12.0110     0.000    A    3.55000E-01   2.92880E-01
  opls_807  C807    12.0110     0.000    A    3.45000E-01   3.47272E-01
  opls_802  C802    12.0110     0.000    A    3.50000E-01   2.76144E-01
  opls_827  H827     1.0080     0.000    A    2.50000E-01   1.25520E-01
  opls_809  C809    12.0110     0.000    A    3.50000E-01   2.76144E-01
  opls_806  C806    12.0110     0.000    A    3.50000E-01   2.76144E-01
  opls_822  H822     1.0080     0.000    A    2.50000E-01   1.25520E-01
  opls_808  C808    12.0110     0.000    A    3.45000E-01   3.47272E-01
  opls_825  H825     1.0080     0.000    A    2.50000E-01   1.25520E-01
  opls_830  H830     1.0080     0.000    A    2.50000E-01   1.25520E-01
  opls_821  H821     1.0080     0.000    A    2.50000E-01   1.25520E-01
  opls_820  H820     1.0080     0.000    A    2.50000E-01   1.25520E-01
  opls_829  H829     1.0080     0.000    A    2.50000E-01   1.25520E-01
  opls_831  H831     1.0080     0.000    A    2.50000E-01   1.25520E-01
  opls_832  H832     1.0080     0.000    A    2.50000E-01   1.25520E-01
  opls_800  C800    12.0110     0.000    A    3.50000E-01   2.76144E-01
  opls_811  C811    12.0110     0.000    A    3.50000E-01   2.76144E-01
  opls_823  H823     1.0080     0.000    A    2.50000E-01   1.25520E-01
  opls_813  O813    15.9990     0.000    A    2.90000E-01   5.85760E-01
  opls_816  O816    15.9990     0.000    A    2.90000E-01   5.85760E-01
  opls_826  H826     1.0080     0.000    A    2.50000E-01   1.25520E-01
  opls_819  H819     1.0080     0.000    A    2.50000E-01   1.25520E-01
  opls_810  C810    12.0110     0.000    A    3.50000E-01   2.76144E-01
  opls_833  H833     1.0080     0.000    A    2.50000E-01   1.25520E-01
  opls_803  C803    12.0110     0.000    A    3.55000E-01   2.92880E-01
  opls_815  O815    15.9990     0.000    A    2.96000E-01   8.78640E-01
  opls_817  H817     1.0080     0.000    A    2.50000E-01   1.25520E-01
  opls_812  C812    12.0110     0.000    A    3.45000E-01   3.47272E-01
[ moleculetype ]
; Name               nrexcl
UNK                   3
[ atoms ]
;   nr       type  resnr residue  atom   cgnr     charge       mass  
     1   opls_800      1    UNK   C00      1    -0.0734    12.0110 
     2   opls_801      1    UNK   N01      1    -0.5365    14.0070 
     3   opls_802      1    UNK   C02      1    -0.0852    12.0110 
     4   opls_803      1    UNK   C03      1     0.3155    12.0110 
     5   opls_804      1    UNK   O04      1    -0.4357    15.9990 
     6   opls_805      1    UNK   C05      1    -0.0023    12.0110 
     7   opls_806      1    UNK   C06      1    -0.1537    12.0110 
     8   opls_807      1    UNK   C07      1    -0.1017    12.0110 
     9   opls_808      1    UNK   C08      1    -0.0034    12.0110 
    10   opls_809      1    UNK   C09      1    -0.1403    12.0110 
    11   opls_810      1    UNK   C0A      1    -0.1878    12.0110 
    12   opls_811      1    UNK   C0B      1    -0.1417    12.0110 
    13   opls_812      1    UNK   C0C      1     0.0124    12.0110 
    14   opls_813      1    UNK   O0D      1    -0.3048    15.9990 
    15   opls_814      1    UNK   C0E      1     0.5672    12.0110 
    16   opls_815      1    UNK   O0F      1     -0.367    15.9990 
    17   opls_816      1    UNK   O0G      1    -0.3032    15.9990 
    18   opls_817      1    UNK   H0H      1     0.0936     1.0080 
    19   opls_818      1    UNK   H0I      1     0.0936     1.0080 
    20   opls_819      1    UNK   H0J      1     0.0936     1.0080 
    21   opls_820      1    UNK   H0K      1     0.1148     1.0080 
    22   opls_821      1    UNK   H0M      1     0.1148     1.0080 
    23   opls_822      1    UNK   H0N      1     0.1227     1.0080 
    24   opls_823      1    UNK   H0O      1      0.096     1.0080 
    25   opls_824      1    UNK   H0P      1      0.096     1.0080 
    26   opls_825      1    UNK   H0Q      1     0.1138     1.0080 
    27   opls_826      1    UNK   H0R      1     0.1138     1.0080 
    28   opls_827      1    UNK   H0S      1     0.1653     1.0080 
    29   opls_828      1    UNK   H0T      1     0.1253     1.0080 
    30   opls_829      1    UNK   H0U      1     0.1253     1.0080 
    31   opls_830      1    UNK   H0V      1     0.1083     1.0080 
    32   opls_831      1    UNK   H0W      1     0.1083     1.0080 
    33   opls_832      1    UNK   H0X      2     0.1281     1.0080 
    34   opls_833      1    UNK   H0Y      2     0.1281     1.0080 
[ bonds ]
    2     1     1      0.1448 319657.600
    3     2     1      0.1448 319657.600
    4     3     1      0.1522 265265.600
    5     4     1      0.1229 476976.000
    6     2     1      0.1448 319657.600
    7     6     1      0.1529 224262.400
    8     7     1      0.1510 234304.000
    9     8     1      0.1520 217568.000
   10     9     1      0.1510 234304.000
   11    10     1      0.1529 224262.400
   12    11     1      0.1529 224262.400
   13     8     1      0.1520 217568.000
   14    13     1      0.1410 267776.000
   15    14     1      0.1327 179075.200
   16    15     1      0.1229 476976.000
   17     9     1      0.1410 267776.000
   18     1     1      0.1090 284512.000
   19     1     1      0.1090 284512.000
   20     1     1      0.1090 284512.000
   21     3     1      0.1090 284512.000
   22     3     1      0.1090 284512.000
   23     4     1      0.1090 284512.000
   24     6     1      0.1090 284512.000
   25     6     1      0.1090 284512.000
   26     7     1      0.1090 284512.000
   27     7     1      0.1090 284512.000
   28     8     1      0.1088 284512.000
   29    10     1      0.1090 284512.000
   30    10     1      0.1090 284512.000
   31    11     1      0.1090 284512.000
   32    11     1      0.1090 284512.000
   33    12     1      0.1090 284512.000
   34    12     1      0.1090 284512.000
   13     9     1      0.1520 217568.000
   13    12     1      0.1510 234304.000
   17    15     1      0.1327 179075.200

[ angles ]
;  ai    aj    ak funct            c0            c1            c2            c3 
    1     2     3     1    107.200    433.462
    2     3     4     1    111.200    669.440
    3     4     5     1    120.400    669.440
    1     2     6     1    107.200    433.462
    2     6     7     1    109.470    470.282
    6     7     8     1    112.700    488.273
    7     8     9     1    117.200    313.800
    8     9    10     1    117.200    313.800
    9    10    11     1    112.700    488.273
   10    11    12     1    112.700    488.273
    7     8    13     1    117.200    313.800
    8    13    14     1    109.500    418.400
   13    14    15     1    116.900    694.544
   14    15    16     1    123.400    694.544
    8     9    17     1    109.500    418.400
    2     1    18     1    109.500    292.880
    2     1    19     1    109.500    292.880
    2     1    20     1    109.500    292.880
    2     3    21     1    109.500    292.880
    2     3    22     1    109.500    292.880
    3     4    23     1    115.000    292.880
    2     6    24     1    109.500    292.880
    2     6    25     1    109.500    292.880
    6     7    26     1    110.700    313.800
    6     7    27     1    110.700    313.800
    7     8    28     1    114.300    292.880
    9    10    29     1    110.700    313.800
    9    10    30     1    110.700    313.800
   10    11    31     1    110.700    313.800
   10    11    32     1    110.700    313.800
   11    12    33     1    110.700    313.800
   11    12    34     1    110.700    313.800
    9     8    28     1    117.200    313.800
   12    11    31     1    110.700    313.800
   14    15    17     1    118.180    584.923
    8    13    12     1    117.200    313.800
    9    13    12     1    117.200    313.800
    7     6    24     1    110.700    313.800
   11    12    13     1    112.700    488.273
   26     7    27     1    107.800    276.144
   10     9    13     1    117.200    313.800
   33    12    34     1    107.800    276.144
   29    10    30     1    107.800    276.144
   13    12    33     1    110.700    313.800
    7     6    25     1    110.700    313.800
   13    12    34     1    110.700    313.800
    8     9    13     1     83.000    251.040
    8     7    27     1    110.700    313.800
   10     9    17     1    109.500    418.400
    8     7    26     1    110.700    313.800
   31    11    32     1    107.800    276.144
    9     8    13     1     83.000    251.040
    5     4    23     1    123.000    292.880
   13     8    28     1    117.200    313.800
   13     9    17     1    109.500    418.400
    8    13     9     1     83.000    251.040
   21     3    22     1    107.800    276.144
   12    13    14     1    109.500    418.400
    3     2     6     1    107.200    433.462
   12    11    32     1    110.700    313.800
    4     3    21     1    109.500    292.880
   11    10    29     1    110.700    313.800
   18     1    20     1    107.800    276.144
    4     3    22     1    109.500    292.880
   24     6    25     1    107.800    276.144
   18     1    19     1    107.800    276.144
   19     1    20     1    107.800    276.144
    9    13    14     1    109.500    418.400
   16    15    17     1    123.400    694.544
    9    17    15     1    116.900    694.544
   11    10    30     1    110.700    313.800

[ dihedrals ]
; IMPROPER DIHEDRAL ANGLES 
;  ai    aj    ak    al funct            c0            c1            c2            c3            c4            c5
    23     4     3     5    4        180.000     43.932     2  
    16    15    17    14    4        180.000     43.932     2  

[ dihedrals ]
; PROPER DIHEDRAL ANGLES
;  ai    aj    ak    al funct            c0            c1            c2            c3            c4            c5
    4    3    2    1        3       1.789   3.492   0.536  -5.816  -0.000   0.000
   15   14   13   12        3      -2.197   5.201   0.527  -3.531  -0.000   0.000
   15   17    9   10        3      -2.197   5.201   0.527  -3.531  -0.000   0.000
   15   17    9   13        3      -2.197   5.201   0.527  -3.531  -0.000   0.000
   15   14   13    9        3      -2.197   5.201   0.527  -3.531  -0.000   0.000
   15   14   13    8        3      -2.197   5.201   0.527  -3.531  -0.000   0.000
   15   17    9    8        3      -2.197   5.201   0.527  -3.531  -0.000   0.000
   12   11   10    9        3       2.301  -1.464   0.837  -1.674  -0.000   0.000
   11   12   13    9        3       0.000   0.000   0.000  -0.000  -0.000   0.000
   11   12   13    8        3       0.000   0.000   0.000  -0.000  -0.000   0.000
   11   10    9    8        3       0.000   0.000   0.000  -0.000  -0.000   0.000
    7    6    2    1        3       1.789   3.492   0.536  -5.816  -0.000   0.000
    7    6    2    3        3       1.789   3.492   0.536  -5.816  -0.000   0.000
   12   13    8    7        3       0.000   0.000   0.000  -0.000  -0.000   0.000
   10    9    8    7        3       0.000   0.000   0.000  -0.000  -0.000   0.000
   12   13    9   10        3       0.000   0.000   0.000  -0.000  -0.000   0.000
   12   13    8    9        3       0.000   0.000   0.000  -0.000  -0.000   0.000
   10    9   13    8        3       0.000   0.000   0.000  -0.000  -0.000   0.000
   12   13    9    8        3       0.000   0.000   0.000  -0.000  -0.000   0.000
    6    2    3    4        3       1.789   3.492   0.536  -5.816  -0.000   0.000
   13   12   11   10        3       2.301  -1.464   0.837  -1.674  -0.000   0.000
    8    7    6    2        3       3.335  -1.552   2.820  -4.602  -0.000   0.000
    9    8    7    6        3       0.000   0.000   0.000  -0.000  -0.000   0.000
   13    8    7    6        3       0.000   0.000   0.000  -0.000  -0.000   0.000
   13    9   10   11        3       0.000   0.000   0.000  -0.000  -0.000   0.000
   13    8    7    9        3       0.000   0.000   0.000  -0.000  -0.000   0.000
   23    4    3   21        3       0.753   2.259   0.000  -3.012  -0.000   0.000
   23    4    3   22        3       0.753   2.259   0.000  -3.012  -0.000   0.000
   23    4    3    2        3      -4.096   5.088   2.966  -3.958  -0.000   0.000
   21    3    4    5        3       0.000   0.000   0.000  -0.000  -0.000   0.000
   22    3    4    5        3       0.000   0.000   0.000  -0.000  -0.000   0.000
   30   10   11   12        3       0.628   1.883   0.000  -2.510  -0.000   0.000
   33   12   11   10        3       0.628   1.883   0.000  -2.510  -0.000   0.000
   34   12   11   10        3       0.628   1.883   0.000  -2.510  -0.000   0.000
   29   10   11   12        3       0.628   1.883   0.000  -2.510  -0.000   0.000
   31   11   12   13        3       0.628   1.883   0.000  -2.510  -0.000   0.000
   25    6    7    8        3       0.628   1.883   0.000  -2.510  -0.000   0.000
   24    6    7    8        3       0.628   1.883   0.000  -2.510  -0.000   0.000
   31   11   10    9        3       0.628   1.883   0.000  -2.510  -0.000   0.000
   32   11   10    9        3       0.628   1.883   0.000  -2.510  -0.000   0.000
   32   11   12   13        3       0.628   1.883   0.000  -2.510  -0.000   0.000
   31   11   10   30        3       0.628   1.883   0.000  -2.510  -0.000   0.000
   33   12   11   31        3       0.628   1.883   0.000  -2.510  -0.000   0.000
   33   12   11   32        3       0.628   1.883   0.000  -2.510  -0.000   0.000
   34   12   11   31        3       0.628   1.883   0.000  -2.510  -0.000   0.000
   26    7    6   24        3       0.628   1.883   0.000  -2.510  -0.000   0.000
   31   11   10   29        3       0.628   1.883   0.000  -2.510  -0.000   0.000
   32   11   10   30        3       0.628   1.883   0.000  -2.510  -0.000   0.000
   27    7    6   25        3       0.628   1.883   0.000  -2.510  -0.000   0.000
   32   11   10   29        3       0.628   1.883   0.000  -2.510  -0.000   0.000
   26    7    6   25        3       0.628   1.883   0.000  -2.510  -0.000   0.000
   34   12   11   32        3       0.628   1.883   0.000  -2.510  -0.000   0.000
   27    7    6   24        3       0.628   1.883   0.000  -2.510  -0.000   0.000
   26    7    6    2        3      -4.096   5.088   2.966  -3.958  -0.000   0.000
   27    7    6    2        3      -4.096   5.088   2.966  -3.958  -0.000   0.000
   33   12   13    9        3       0.628   1.883   0.000  -2.510  -0.000   0.000
   26    7    8    9        3       0.628   1.883   0.000  -2.510  -0.000   0.000
   34   12   13    8        3       0.628   1.883   0.000  -2.510  -0.000   0.000
   33   12   13    8        3       0.628   1.883   0.000  -2.510  -0.000   0.000
   29   10    9    8        3       0.628   1.883   0.000  -2.510  -0.000   0.000
   29   10    9   13        3       0.628   1.883   0.000  -2.510  -0.000   0.000
   34   12   13    9        3       0.628   1.883   0.000  -2.510  -0.000   0.000
   26    7    8   13        3       0.628   1.883   0.000  -2.510  -0.000   0.000
   27    7    8   13        3       0.628   1.883   0.000  -2.510  -0.000   0.000
   27    7    8    9        3       0.628   1.883   0.000  -2.510  -0.000   0.000
   30   10    9   13        3       0.628   1.883   0.000  -2.510  -0.000   0.000
   30   10    9    8        3       0.628   1.883   0.000  -2.510  -0.000   0.000
   33   12   13   14        3       0.979   2.937   0.000  -3.916  -0.000   0.000
   34   12   13   14        3       0.979   2.937   0.000  -3.916  -0.000   0.000
   30   10    9   17        3       0.979   2.937   0.000  -3.916  -0.000   0.000
   29   10    9   17        3       0.979   2.937   0.000  -3.916  -0.000   0.000
   18    1    2    3        3       1.172   3.515   0.000  -4.686  -0.000   0.000
   19    1    2    6        3       1.172   3.515   0.000  -4.686  -0.000   0.000
   19    1    2    3        3       1.172   3.515   0.000  -4.686  -0.000   0.000
   20    1    2    3        3       1.172   3.515   0.000  -4.686  -0.000   0.000
   25    6    2    1        3       1.172   3.515   0.000  -4.686  -0.000   0.000
   21    3    2    1        3       1.172   3.515   0.000  -4.686  -0.000   0.000
   24    6    2    3        3       1.172   3.515   0.000  -4.686  -0.000   0.000
   25    6    2    3        3       1.172   3.515   0.000  -4.686  -0.000   0.000
   22    3    2    6        3       1.172   3.515   0.000  -4.686  -0.000   0.000
   22    3    2    1        3       1.172   3.515   0.000  -4.686  -0.000   0.000
   18    1    2    6        3       1.172   3.515   0.000  -4.686  -0.000   0.000
   21    3    2    6        3       1.172   3.515   0.000  -4.686  -0.000   0.000
   24    6    2    1        3       1.172   3.515   0.000  -4.686  -0.000   0.000
   20    1    2    6        3       1.172   3.515   0.000  -4.686  -0.000   0.000
   28    8    7    6        3       0.628   1.883   0.000  -2.510  -0.000   0.000
   28    8    7   27        3       0.628   1.883   0.000  -2.510  -0.000   0.000
   28    8    7   26        3       0.628   1.883   0.000  -2.510  -0.000   0.000
   28    8   13   12        3       0.000   0.000   0.000  -0.000  -0.000   0.000
   28    8    9   10        3       0.000   0.000   0.000  -0.000  -0.000   0.000
   28    8    9   13        3       0.000   0.000   0.000  -0.000  -0.000   0.000
   28    8   13    9        3       0.000   0.000   0.000  -0.000  -0.000   0.000
   28    8    9   17        3       0.000   0.000   0.000  -0.000  -0.000   0.000
   28    8   13   14        3       0.000   0.000   0.000  -0.000  -0.000   0.000
    5    4    3    2        3       0.000   0.000   0.000  -0.000  -0.000   0.000
   16   15   14   13        3      21.439   0.000  -21.439  -0.000  -0.000   0.000
   16   15   17    9        3      21.439   0.000  -21.439  -0.000  -0.000   0.000
   17   15   14   13        3      31.206  -9.768  -21.439  -0.000  -0.000   0.000
   14   15   17    9        3      31.206  -9.768  -21.439  -0.000  -0.000   0.000
   17    9   10   11        3      -1.157  -3.471   0.000   4.628  -0.000   0.000
   14   13   12   11        3      -1.157  -3.471   0.000   4.628  -0.000   0.000
   14   13    8    7        3       0.000   0.000   0.000  -0.000  -0.000   0.000
   17    9    8    7        3       0.000   0.000   0.000  -0.000  -0.000   0.000
   17    9   13   12        3       0.000   0.000   0.000  -0.000  -0.000   0.000
   14   13    9   10        3       0.000   0.000   0.000  -0.000  -0.000   0.000
   14   13    8    9        3       0.000   0.000   0.000  -0.000  -0.000   0.000
   17    9    8   13        3       0.000   0.000   0.000  -0.000  -0.000   0.000
   14   13    9    8        3       0.000   0.000   0.000  -0.000  -0.000   0.000
   17    9   13    8        3       0.000   0.000   0.000  -0.000  -0.000   0.000
   17    9   13   14        3      -1.151   1.151   0.000  -0.000  -0.000   0.000

[ pairs ]
     1     4    1
     2     5    1
     1     7    1
     4     6    1
     3     7    1
     2     8    1
     6     9    1
     7    10    1
     8    11    1
     7    12    1
     6    13    1
     7    14    1
     3    18    1
     3    19    1
     1    21    1
     8    15    1
     3    20    1
     1    22    1
    10    14    1
     7    17    1
     6    18    1
    11    14    1
    10    15    1
     9    16    1
     6    19    1
     2    23    1
     1    24    1
     6    20    1
     5    21    1
     1    25    1
    12    15    1
     6    21    1
     5    22    1
     3    24    1
    11    17    1
     6    22    1
     3    25    1
     2    26    1
    13    16    1
    12    17    1
     2    27    1
     8    24    1
     8    25    1
     6    28    1
     9    26    1
     9    27    1
     8    29    1
    10    28    1
     8    30    1
    13    26    1
    13    27    1
    12    28    1
     9    31    1
    12    29    1
     9    32    1
     8    33    1
    14    28    1
    13    29    1
    12    30    1
     9    33    1
     8    34    1
    13    30    1
    10    33    1
     9    34    1
    21    23    1
    13    31    1
    10    34    1
    22    23    1
    17    28    1
    13    32    1
    17    29    1
    17    30    1
    14    33    1
    14    34    1
    24    26    1
    25    26    1
    24    27    1
    25    27    1
    26    28    1
    27    28    1
    29    31    1
    30    31    1
    29    32    1
    30    32    1
    31    33    1
    32    33    1
    31    34    1
    32    34    1

