LIGPARGEN GENERATED GRO FILE
   31
    1UNK    C00    1   0.100   0.100   0.000
    1UNK    C01    2  -0.051   0.100   0.000
    1UNK    O02    3  -0.114   0.100   0.105
    1UNK    C03    4  -0.118   0.100  -0.136
    1UNK    C04    5  -0.271   0.100  -0.126
    1UNK    C05    6  -0.334   0.106  -0.265
    1UNK    C06    7  -0.309  -0.016  -0.359
    1UNK    C07    8  -0.454   0.003  -0.406
    1UNK    O08    9  -0.514  -0.030  -0.506
    1UNK    C09   10  -0.490   0.080  -0.275
    1UNK    C0A   11  -0.579   0.204  -0.288
    1UNK    C0B   12  -0.714   0.168  -0.349
    1UNK    C0C   13  -0.600   0.266  -0.149
    1UNK    H0D   14   0.137   0.100   0.103
    1UNK    H0E   15   0.137   0.190  -0.051
    1UNK    H0F   16   0.137   0.010  -0.051
    1UNK    H0G   17  -0.084   0.011  -0.190
    1UNK    H0H   18  -0.084   0.188  -0.191
    1UNK    H0I   19  -0.303   0.186  -0.067
    1UNK    H0J   20  -0.304   0.010  -0.072
    1UNK    H0K   21  -0.305   0.200  -0.314
    1UNK    H0M   22  -0.294  -0.112  -0.308
    1UNK    H0N   23  -0.233  -0.001  -0.435
    1UNK    H0O   24  -0.528   0.010  -0.199
    1UNK    H0P   25  -0.531   0.279  -0.352
    1UNK    H0Q   26  -0.764   0.089  -0.291
    1UNK    H0R   27  -0.703   0.133  -0.452
    1UNK    H0S   28  -0.780   0.256  -0.351
    1UNK    H0T   29  -0.647   0.194  -0.081
    1UNK    H0U   30  -0.665   0.354  -0.155
    1UNK    H0V   31  -0.505   0.297  -0.104
   1.00000   1.00000   1.00000

