LIGPARGEN GENERATED GRO FILE
   35
    1UNK    C00    1   0.100   0.100   0.000
    1UNK    C01    2  -0.052   0.100   0.000
    1UNK    C02    3  -0.106   0.100   0.143
    1UNK    C03    4  -0.259   0.100   0.148
    1UNK    C04    5  -0.305   0.100   0.294
    1UNK    C05    6  -0.458   0.100   0.308
    1UNK    C06    7  -0.505   0.100   0.456
    1UNK    C07    8  -0.449   0.218   0.538
    1UNK    C08    9  -0.496   0.356   0.495
    1UNK    C09   10  -0.659   0.092   0.459
    1UNK    C0A   11  -0.718   0.085   0.600
    1UNK    H0B   12   0.138   0.100  -0.102
    1UNK    H0C   13   0.139   0.011   0.051
    1UNK    H0D   14   0.139   0.189   0.051
    1UNK    H0E   15  -0.089   0.012  -0.054
    1UNK    H0F   16  -0.088   0.189  -0.054
    1UNK    H0G   17  -0.068   0.188   0.196
    1UNK    H0H   18  -0.068   0.012   0.196
    1UNK    H0I   19  -0.298   0.012   0.096
    1UNK    H0J   20  -0.298   0.189   0.097
    1UNK    H0K   21  -0.263   0.189   0.342
    1UNK    H0M   22  -0.265   0.012   0.345
    1UNK    H0N   23  -0.497   0.011   0.258
    1UNK    H0O   24  -0.500   0.186   0.254
    1UNK    H0P   25  -0.467   0.008   0.502
    1UNK    H0Q   26  -0.339   0.215   0.536
    1UNK    H0R   27  -0.474   0.204   0.644
    1UNK    H0S   28  -0.489   0.369   0.386
    1UNK    H0T   29  -0.434   0.433   0.541
    1UNK    H0U   30  -0.600   0.373   0.525
    1UNK    H0V   31  -0.691   0.002   0.405
    1UNK    H0W   32  -0.704   0.177   0.406
    1UNK    H0X   33  -0.673   0.003   0.657
    1UNK    H0Y   34  -0.826   0.066   0.594
    1UNK    H0Z   35  -0.703   0.178   0.654
   1.00000   1.00000   1.00000

