LIGPARGEN GENERATED GRO FILE
   32
    1UNK    C00    1   0.100   0.100   0.000
    1UNK    O01    2  -0.042   0.100   0.000
    1UNK    S02    3  -0.116   0.100   0.145
    1UNK    O03    4  -0.084  -0.026   0.209
    1UNK    O04    5  -0.090   0.227   0.209
    1UNK    C05    6  -0.285   0.094   0.085
    1UNK    C06    7  -0.389   0.092   0.195
    1UNK    C07    8  -0.377  -0.020   0.297
    1UNK    O08    9  -0.399   0.217   0.263
    1UNK    C09   10  -0.389   0.336   0.199
    1UNK    O0A   11  -0.425   0.441   0.251
    1UNK    O0B   12  -0.333   0.333   0.075
    1UNK    C0C   13  -0.317   0.213  -0.004
    1UNK    C0D   14  -0.445   0.199  -0.091
    1UNK    C0E   15  -0.461   0.320  -0.184
    1UNK    C0F   16  -0.450   0.071  -0.173
    1UNK    H0G   17   0.135   0.105  -0.104
    1UNK    H0H   18   0.138   0.008   0.045
    1UNK    H0I   19   0.139   0.187   0.054
    1UNK    H0J   20  -0.288  -0.001   0.029
    1UNK    H0K   21  -0.488   0.076   0.148
    1UNK    H0M   22  -0.291  -0.008   0.362
    1UNK    H0N   23  -0.373  -0.118   0.248
    1UNK    H0O   24  -0.465  -0.019   0.363
    1UNK    H0P   25  -0.233   0.233  -0.072
    1UNK    H0Q   26  -0.533   0.201  -0.025
    1UNK    H0R   27  -0.379   0.325  -0.256
    1UNK    H0S   28  -0.463   0.414  -0.128
    1UNK    H0T   29  -0.555   0.314  -0.240
    1UNK    H0U   30  -0.363   0.063  -0.240
    1UNK    H0V   31  -0.541   0.068  -0.235
    1UNK    H0W   32  -0.453  -0.018  -0.109
   1.00000   1.00000   1.00000

