LIGPARGEN GENERATED GRO FILE
   42
    1UNK    C00    1   0.100   0.100   0.000
    1UNK    C01    2  -0.052   0.100   0.000
    1UNK    C02    3  -0.106   0.100   0.143
    1UNK    C03    4  -0.259   0.100   0.147
    1UNK    C04    5  -0.306   0.100   0.293
    1UNK    C05    6  -0.459   0.100   0.307
    1UNK    C06    7  -0.507   0.100   0.455
    1UNK    C07    8  -0.453   0.224   0.534
    1UNK    C08    9  -0.488   0.360   0.475
    1UNK    C09   10  -0.660   0.091   0.462
    1UNK    C0A   11  -0.688   0.029   0.599
    1UNK    C0B   12  -0.579  -0.076   0.615
    1UNK    C0C   13  -0.538  -0.096   0.760
    1UNK    C0D   14  -0.462  -0.030   0.527
    1UNK    H0E   15   0.138   0.100  -0.103
    1UNK    H0F   16   0.139   0.011   0.051
    1UNK    H0G   17   0.139   0.189   0.051
    1UNK    H0H   18  -0.088   0.012  -0.054
    1UNK    H0I   19  -0.088   0.188  -0.054
    1UNK    H0J   20  -0.068   0.188   0.196
    1UNK    H0K   21  -0.069   0.012   0.196
    1UNK    H0M   22  -0.298   0.012   0.095
    1UNK    H0N   23  -0.298   0.189   0.096
    1UNK    H0O   24  -0.264   0.189   0.342
    1UNK    H0P   25  -0.264   0.012   0.343
    1UNK    H0Q   26  -0.498   0.012   0.256
    1UNK    H0R   27  -0.501   0.186   0.254
    1UNK    H0S   28  -0.344   0.217   0.543
    1UNK    H0T   29  -0.490   0.221   0.637
    1UNK    H0U   30  -0.450   0.371   0.373
    1UNK    H0V   31  -0.443   0.439   0.536
    1UNK    H0W   32  -0.596   0.377   0.474
    1UNK    H0X   33  -0.699   0.024   0.384
    1UNK    H0Y   34  -0.711   0.187   0.450
    1UNK    H0Z   35  -0.788  -0.016   0.603
    1UNK    H10   36  -0.683   0.106   0.677
    1UNK    H11   37  -0.616  -0.172   0.577
    1UNK    H12   38  -0.497  -0.004   0.804
    1UNK    H13   39  -0.461  -0.173   0.768
    1UNK    H14   40  -0.624  -0.127   0.821
    1UNK    H15   41  -0.441  -0.109   0.454
    1UNK    H16   42  -0.369  -0.015   0.584
   1.00000   1.00000   1.00000

