LIGPARGEN GENERATED GRO FILE
   33
    1UNK    C00    1   0.100   0.100   0.000
    1UNK    C01    2  -0.053   0.100   0.000
    1UNK    C02    3  -0.103   0.100   0.145
    1UNK    C03    4  -0.106   0.220  -0.082
    1UNK    S04    5  -0.287   0.211  -0.102
    1UNK    C05    6  -0.322   0.367  -0.195
    1UNK    C06    7  -0.256   0.359  -0.333
    1UNK    C07    8  -0.478   0.396  -0.202
    1UNK    C08    9  -0.534   0.421  -0.060
    1UNK    C09   10  -0.507   0.524  -0.284
    1UNK    C0A   11  -0.557   0.280  -0.266
    1UNK    H0B   12   0.139   0.013   0.054
    1UNK    H0C   13   0.140   0.190   0.048
    1UNK    H0D   14   0.139   0.096  -0.102
    1UNK    H0E   15  -0.086   0.007  -0.048
    1UNK    H0F   16  -0.077   0.193   0.196
    1UNK    H0G   17  -0.060   0.017   0.201
    1UNK    H0H   18  -0.212   0.088   0.150
    1UNK    H0I   19  -0.059   0.216  -0.181
    1UNK    H0J   20  -0.079   0.314  -0.034
    1UNK    H0K   21  -0.275   0.449  -0.139
    1UNK    H0M   22  -0.290   0.272  -0.390
    1UNK    H0N   23  -0.147   0.353  -0.325
    1UNK    H0O   24  -0.275   0.448  -0.393
    1UNK    H0P   25  -0.482   0.505  -0.012
    1UNK    H0Q   26  -0.523   0.334   0.005
    1UNK    H0R   27  -0.640   0.446  -0.064
    1UNK    H0S   28  -0.451   0.609  -0.245
    1UNK    H0T   29  -0.613   0.550  -0.280
    1UNK    H0U   30  -0.481   0.511  -0.390
    1UNK    H0V   31  -0.551   0.189  -0.206
    1UNK    H0W   32  -0.521   0.258  -0.366
    1UNK    H0X   33  -0.663   0.306  -0.274
   1.00000   1.00000   1.00000

