LIGPARGEN GENERATED GRO FILE
   52
    1UNK    C00    1   0.100   0.100   0.000
    1UNK    C01    2  -0.052   0.100   0.000
    1UNK    C02    3  -0.114   0.100   0.141
    1UNK    C03    4  -0.079   0.220   0.232
    1UNK    C04    5  -0.119   0.354   0.164
    1UNK    C05    6  -0.096   0.483   0.246
    1UNK    C06    7   0.051   0.513   0.290
    1UNK    C07    8   0.141   0.529   0.163
    1UNK    O08    9   0.097   0.641   0.084
    1UNK    C09   10   0.190   0.737   0.058
    1UNK    O0A   11   0.309   0.732   0.086
    1UNK    O0B   12   0.128   0.840  -0.004
    1UNK    C0C   13   0.214   0.952  -0.030
    1UNK    N0D   14   0.057   0.633   0.380
    1UNK    C0E   15  -0.022   0.614   0.503
    1UNK    C0F   16   0.194   0.667   0.419
    1UNK    C0G   17  -0.150   0.205   0.369
    1UNK    N0H   18  -0.120   0.083   0.447
    1UNK    C0I   19   0.023   0.073   0.480
    1UNK    C0J   20  -0.199   0.083   0.570
    1UNK    H0K   21   0.137   0.089  -0.102
    1UNK    H0M   22   0.139   0.017   0.060
    1UNK    H0N   23   0.140   0.194   0.040
    1UNK    H0O   24  -0.086   0.010  -0.052
    1UNK    H0P   25  -0.089   0.185  -0.058
    1UNK    H0Q   26  -0.083   0.007   0.190
    1UNK    H0R   27  -0.223   0.095   0.129
    1UNK    H0S   28   0.030   0.222   0.248
    1UNK    H0T   29  -0.226   0.350   0.141
    1UNK    H0U   30  -0.068   0.365   0.068
    1UNK    H0V   31  -0.162   0.477   0.334
    1UNK    H0W   32  -0.134   0.568   0.188
    1UNK    H0X   33   0.089   0.426   0.345
    1UNK    H0Y   34   0.133   0.440   0.099
    1UNK    H0Z   35   0.246   0.535   0.191
    1UNK    H10   36   0.152   1.035  -0.065
    1UNK    H11   37   0.286   0.927  -0.108
    1UNK    H12   38   0.265   0.983   0.062
    1UNK    H13   39  -0.129   0.613   0.483
    1UNK    H14   40  -0.007   0.699   0.571
    1UNK    H15   41   0.006   0.523   0.556
    1UNK    H16   42   0.254   0.701   0.334
    1UNK    H17   43   0.246   0.583   0.467
    1UNK    H18   44   0.195   0.752   0.489
    1UNK    H19   45  -0.258   0.208   0.351
    1UNK    H1A   46  -0.127   0.292   0.432
    1UNK    H1B   47   0.080   0.042   0.392
    1UNK    H1C   48   0.040  -0.003   0.557
    1UNK    H1D   49   0.064   0.168   0.516
    1UNK    H1E   50  -0.306   0.086   0.547
    1UNK    H1F   51  -0.176   0.169   0.634
    1UNK    H1G   52  -0.182  -0.008   0.628
   1.00000   1.00000   1.00000

