LIGPARGEN GENERATED GRO FILE
   32
    1UNK    C00    1   0.100   0.100   0.000
    1UNK    C01    2  -0.052   0.100   0.000
    1UNK    C02    3  -0.107   0.100   0.143
    1UNK    C03    4  -0.260   0.100   0.144
    1UNK    C04    5  -0.323   0.091   0.285
    1UNK    C05    6  -0.279   0.210   0.374
    1UNK    C06    7  -0.327   0.203   0.519
    1UNK    C07    8  -0.279   0.324   0.599
    1UNK    C08    9  -0.478   0.084   0.276
    1UNK    C09   10  -0.531  -0.037   0.201
    1UNK    F0A   11  -0.667  -0.034   0.207
    1UNK    H0B   12   0.138   0.105  -0.103
    1UNK    H0C   13   0.139   0.009   0.046
    1UNK    H0D   14   0.139   0.186   0.055
    1UNK    H0E   15  -0.088   0.012  -0.055
    1UNK    H0F   16  -0.088   0.189  -0.054
    1UNK    H0G   17  -0.068   0.189   0.194
    1UNK    H0H   18  -0.070   0.012   0.197
    1UNK    H0I   19  -0.293   0.014   0.084
    1UNK    H0J   20  -0.297   0.190   0.093
    1UNK    H0K   21  -0.288  -0.002   0.333
    1UNK    H0M   22  -0.315   0.304   0.328
    1UNK    H0N   23  -0.170   0.215   0.376
    1UNK    H0O   24  -0.289   0.112   0.566
    1UNK    H0P   25  -0.436   0.200   0.525
    1UNK    H0Q   26  -0.170   0.331   0.598
    1UNK    H0R   27  -0.312   0.316   0.703
    1UNK    H0S   28  -0.320   0.417   0.557
    1UNK    H0T   29  -0.516   0.175   0.229
    1UNK    H0U   30  -0.522   0.080   0.376
    1UNK    H0V   31  -0.498  -0.131   0.246
    1UNK    H0W   32  -0.504  -0.036   0.095
   1.00000   1.00000   1.00000

