LIGPARGEN GENERATED GRO FILE
   45
    1UNK    C00    1   0.100   0.100   0.000
    1UNK    C01    2  -0.052   0.100   0.000
    1UNK    C02    3  -0.123   0.100   0.139
    1UNK    C03    4  -0.093   0.225   0.224
    1UNK    C04    5   0.050   0.269   0.252
    1UNK    C05    6  -0.279   0.083   0.117
    1UNK    C06    7  -0.310  -0.047   0.041
    1UNK    C07    8  -0.268  -0.180   0.100
    1UNK    O08    9  -0.367  -0.045  -0.068
    1UNK    C09   10  -0.374   0.091   0.241
    1UNK    C0A   11  -0.525   0.072   0.204
    1UNK    C0B   12  -0.598   0.182   0.284
    1UNK    C0C   13  -0.575   0.319   0.217
    1UNK    C0D   14  -0.424   0.341   0.237
    1UNK    C0E   15  -0.390   0.475   0.302
    1UNK    C0F   16  -0.384   0.221   0.326
    1UNK    C0G   17  -0.511   0.195   0.408
    1UNK    H0H   18   0.138   0.060  -0.095
    1UNK    H0I   19   0.141   0.039   0.081
    1UNK    H0J   20   0.140   0.201   0.006
    1UNK    H0K   21  -0.082   0.010  -0.054
    1UNK    H0M   22  -0.088   0.185  -0.060
    1UNK    H0N   23  -0.086   0.013   0.194
    1UNK    H0O   24  -0.132   0.204   0.323
    1UNK    H0P   25  -0.146   0.311   0.182
    1UNK    H0Q   26   0.111   0.185   0.286
    1UNK    H0R   27   0.048   0.343   0.333
    1UNK    H0S   28   0.096   0.318   0.167
    1UNK    H0T   29  -0.309   0.163   0.047
    1UNK    H0U   30  -0.280  -0.180   0.209
    1UNK    H0V   31  -0.163  -0.200   0.075
    1UNK    H0W   32  -0.331  -0.259   0.059
    1UNK    H0X   33  -0.347   0.009   0.310
    1UNK    H0Y   34  -0.559  -0.027   0.237
    1UNK    H0Z   35  -0.546   0.083   0.097
    1UNK    H10   36  -0.704   0.161   0.302
    1UNK    H11   37  -0.634   0.397   0.268
    1UNK    H12   38  -0.602   0.319   0.111
    1UNK    H13   39  -0.373   0.339   0.141
    1UNK    H14   40  -0.445   0.491   0.395
    1UNK    H15   41  -0.413   0.557   0.234
    1UNK    H16   42  -0.283   0.480   0.325
    1UNK    H17   43  -0.301   0.240   0.393
    1UNK    H18   44  -0.539   0.279   0.472
    1UNK    H19   45  -0.506   0.103   0.467
   1.00000   1.00000   1.00000

