LIGPARGEN GENERATED GRO FILE
   38
    1UNK    C00    1   0.100   0.100   0.000
    1UNK    O01    2  -0.043   0.100   0.000
    1UNK    C02    3  -0.100   0.100   0.124
    1UNK    O03    4  -0.037   0.100   0.229
    1UNK    C04    5  -0.254   0.100   0.113
    1UNK    C05    6  -0.315   0.100   0.255
    1UNK    C06    7  -0.286   0.237   0.049
    1UNK    C07    8  -0.300  -0.028   0.030
    1UNK    C08    9  -0.251  -0.156   0.102
    1UNK    C09   10  -0.454  -0.043  -0.006
    1UNK    C0A   11  -0.505   0.076  -0.089
    1UNK    C0B   12  -0.488  -0.179  -0.078
    1UNK    C0C   13  -0.639  -0.202  -0.096
    1UNK    C0D   14  -0.416  -0.196  -0.212
    1UNK    H0E   15   0.134   0.074  -0.101
    1UNK    H0F   16   0.140   0.026   0.069
    1UNK    H0G   17   0.137   0.200   0.025
    1UNK    H0H   18  -0.284   0.189   0.311
    1UNK    H0I   19  -0.282   0.013   0.313
    1UNK    H0J   20  -0.424   0.100   0.251
    1UNK    H0K   21  -0.218   0.315   0.086
    1UNK    H0M   22  -0.386   0.272   0.073
    1UNK    H0N   23  -0.273   0.234  -0.060
    1UNK    H0O   24  -0.246  -0.023  -0.066
    1UNK    H0P   25  -0.321  -0.187   0.180
    1UNK    H0Q   26  -0.153  -0.143   0.149
    1UNK    H0R   27  -0.239  -0.239   0.032
    1UNK    H0S   28  -0.510  -0.043   0.089
    1UNK    H0T   29  -0.436   0.102  -0.170
    1UNK    H0U   30  -0.522   0.164  -0.026
    1UNK    H0V   31  -0.603   0.057  -0.135
    1UNK    H0W   32  -0.455  -0.261  -0.013
    1UNK    H0X   33  -0.689  -0.124  -0.153
    1UNK    H0Y   34  -0.688  -0.210   0.002
    1UNK    H0Z   35  -0.657  -0.296  -0.149
    1UNK    H10   36  -0.438  -0.114  -0.281
    1UNK    H11   37  -0.448  -0.289  -0.261
    1UNK    H12   38  -0.308  -0.202  -0.198
   1.00000   1.00000   1.00000

