LIGPARGEN GENERATED GRO FILE
   30
    1UNK    C00    1   0.100   0.100   0.000
    1UNK    C01    2  -0.052   0.100   0.000
    1UNK    C02    3  -0.110   0.100   0.142
    1UNK    C03    4  -0.076  -0.030   0.231
    1UNK    C04    5  -0.216   0.000   0.293
    1UNK    C05    6  -0.349  -0.025   0.356
    1UNK    C06    7  -0.401   0.114   0.405
    1UNK    C07    8  -0.360   0.245   0.329
    1UNK    C08    9  -0.210   0.288   0.326
    1UNK    C09   10  -0.110   0.248   0.211
    1UNK    O0A   11  -0.026   0.334   0.180
    1UNK    C0B   12  -0.250   0.038   0.143
    1UNK    H0C   13   0.137   0.100  -0.103
    1UNK    H0D   14   0.139   0.011   0.050
    1UNK    H0E   15   0.141   0.187   0.051
    1UNK    H0F   16  -0.085   0.011  -0.055
    1UNK    H0G   17  -0.089   0.187  -0.056
    1UNK    H0H   18   0.010  -0.018   0.299
    1UNK    H0I   19  -0.067  -0.125   0.177
    1UNK    H0J   20  -0.178   0.066   0.372
    1UNK    H0K   21  -0.340  -0.092   0.442
    1UNK    H0M   22  -0.421  -0.071   0.287
    1UNK    H0N   23  -0.369   0.127   0.509
    1UNK    H0O   24  -0.511   0.109   0.408
    1UNK    H0P   25  -0.412   0.326   0.383
    1UNK    H0Q   26  -0.404   0.248   0.229
    1UNK    H0R   27  -0.162   0.264   0.422
    1UNK    H0S   28  -0.212   0.398   0.322
    1UNK    H0T   29  -0.332   0.105   0.118
    1UNK    H0U   30  -0.265  -0.051   0.079
   1.00000   1.00000   1.00000

