LIGPARGEN GENERATED GRO FILE
   51
    1UNK    C00    1   0.100   0.100   0.000
    1UNK    C01    2  -0.052   0.100   0.000
    1UNK    C02    3  -0.106   0.100   0.142
    1UNK    C03    4  -0.259   0.100   0.144
    1UNK    C04    5  -0.309   0.100   0.288
    1UNK    C05    6  -0.461   0.100   0.297
    1UNK    C06    7  -0.509   0.094   0.442
    1UNK    C07    8  -0.467   0.218   0.522
    1UNK    C08    9  -0.511   0.221   0.670
    1UNK    C09   10  -0.663   0.219   0.674
    1UNK    N0A   11  -0.789   0.217   0.678
    1UNK    C0B   12  -0.463   0.096   0.750
    1UNK    C0C   13  -0.312   0.080   0.763
    1UNK    C0D   14  -0.461   0.352   0.739
    1UNK    C0E   15  -0.512   0.482   0.675
    1UNK    C0F   16  -0.462   0.611   0.743
    1UNK    C0G   17  -0.310   0.624   0.738
    1UNK    C0H   18  -0.526   0.733   0.676
    1UNK    H0I   19   0.138   0.100  -0.103
    1UNK    H0J   20   0.139   0.011   0.051
    1UNK    H0K   21   0.139   0.189   0.051
    1UNK    H0M   22  -0.088   0.012  -0.054
    1UNK    H0N   23  -0.088   0.189  -0.054
    1UNK    H0O   24  -0.069   0.188   0.196
    1UNK    H0P   25  -0.069   0.012   0.196
    1UNK    H0Q   26  -0.297   0.012   0.091
    1UNK    H0R   27  -0.297   0.189   0.092
    1UNK    H0S   28  -0.268   0.189   0.337
    1UNK    H0T   29  -0.269   0.013   0.341
    1UNK    H0U   30  -0.501   0.013   0.243
    1UNK    H0V   31  -0.501   0.190   0.248
    1UNK    H0W   32  -0.469   0.003   0.488
    1UNK    H0X   33  -0.618   0.085   0.442
    1UNK    H0Y   34  -0.509   0.304   0.469
    1UNK    H0Z   35  -0.359   0.230   0.519
    1UNK    H10   36  -0.504   0.005   0.705
    1UNK    H11   37  -0.505   0.099   0.851
    1UNK    H12   38  -0.260   0.097   0.668
    1UNK    H13   39  -0.289  -0.022   0.795
    1UNK    H14   40  -0.272   0.148   0.838
    1UNK    H15   41  -0.352   0.352   0.738
    1UNK    H16   42  -0.492   0.352   0.845
    1UNK    H17   43  -0.621   0.483   0.676
    1UNK    H18   44  -0.481   0.486   0.569
    1UNK    H19   45  -0.493   0.609   0.848
    1UNK    H1A   46  -0.273   0.616   0.635
    1UNK    H1B   47  -0.261   0.547   0.798
    1UNK    H1C   48  -0.278   0.721   0.777
    1UNK    H1D   49  -0.498   0.739   0.570
    1UNK    H1E   50  -0.495   0.825   0.725
    1UNK    H1F   51  -0.636   0.727   0.681
   1.00000   1.00000   1.00000

