
;
; GENERATED BY LigParGen Server
; Jorgensen Lab @ Yale University 
;
[ atomtypes ]
  opls_818  H818     1.0080     0.000    A    2.50000E-01   1.25520E-01
  opls_824  H824     1.0080     0.000    A    2.50000E-01   1.25520E-01
  opls_804  C804    12.0110     0.000    A    3.50000E-01   2.76144E-01
  opls_836  H836     1.0080     0.000    A    2.50000E-01   1.25520E-01
  opls_834  H834     1.0080     0.000    A    2.50000E-01   1.25520E-01
  opls_828  H828     1.0080     0.000    A    2.50000E-01   1.25520E-01
  opls_812  C812    12.0110     0.000    A    3.50000E-01   2.76144E-01
  opls_802  C802    12.0110     0.000    A    3.50000E-01   2.76144E-01
  opls_827  H827     1.0080     0.000    A    2.50000E-01   1.25520E-01
  opls_809  C809    12.0110     0.000    A    3.50000E-01   2.76144E-01
  opls_806  C806    12.0110     0.000    A    3.50000E-01   2.76144E-01
  opls_811  O811    15.9990     0.000    A    2.96000E-01   8.78640E-01
  opls_822  H822     1.0080     0.000    A    2.50000E-01   1.25520E-01
  opls_803  C803    12.0110     0.000    A    3.50000E-01   2.76144E-01
  opls_838  H838     1.0080     0.000    A    2.50000E-01   1.25520E-01
  opls_825  H825     1.0080     0.000    A    2.50000E-01   1.25520E-01
  opls_830  H830     1.0080     0.000    A    2.50000E-01   1.25520E-01
  opls_821  H821     1.0080     0.000    A    2.50000E-01   1.25520E-01
  opls_820  H820     1.0080     0.000    A    2.50000E-01   1.25520E-01
  opls_837  H837     1.0080     0.000    A    2.50000E-01   1.25520E-01
  opls_813  C813    12.0110     0.000    A    3.55000E-01   2.92880E-01
  opls_829  H829     1.0080     0.000    A    2.50000E-01   1.25520E-01
  opls_831  H831     1.0080     0.000    A    2.50000E-01   1.25520E-01
  opls_810  C810    12.0110     0.000    A    3.55000E-01   2.92880E-01
  opls_832  H832     1.0080     0.000    A    2.50000E-01   1.25520E-01
  opls_800  C800    12.0110     0.000    A    3.50000E-01   2.76144E-01
  opls_805  C805    12.0110     0.000    A    3.50000E-01   2.76144E-01
  opls_815  C815    12.0110     0.000    A    3.50000E-01   2.76144E-01
  opls_823  H823     1.0080     0.000    A    2.50000E-01   1.25520E-01
  opls_808  O808    15.9990     0.000    A    2.90000E-01   5.85760E-01
  opls_826  H826     1.0080     0.000    A    2.50000E-01   1.25520E-01
  opls_835  H835     1.0080     0.000    A    2.50000E-01   1.25520E-01
  opls_819  H819     1.0080     0.000    A    2.50000E-01   1.25520E-01
  opls_816  C816    12.0110     0.000    A    3.50000E-01   2.76144E-01
  opls_833  H833     1.0080     0.000    A    2.50000E-01   1.25520E-01
  opls_801  C801    12.0110     0.000    A    3.50000E-01   2.76144E-01
  opls_817  H817     1.0080     0.000    A    2.50000E-01   1.25520E-01
  opls_814  O814    15.9990     0.000    A    2.96000E-01   8.78640E-01
  opls_807  C807    12.0110     0.000    A    3.50000E-01   2.76144E-01
[ moleculetype ]
; Name               nrexcl
UNK                   3
[ atoms ]
;   nr       type  resnr residue  atom   cgnr     charge       mass  
     1   opls_800      1    UNK   C00      1    -0.2381    12.0110 
     2   opls_801      1    UNK   C01      1     -0.175    12.0110 
     3   opls_802      1    UNK   C02      1    -0.1059    12.0110 
     4   opls_803      1    UNK   C03      1    -0.1787    12.0110 
     5   opls_804      1    UNK   C04      1    -0.1885    12.0110 
     6   opls_805      1    UNK   C05      1    -0.1689    12.0110 
     7   opls_806      1    UNK   C06      1    -0.0721    12.0110 
     8   opls_807      1    UNK   C07      1     0.0039    12.0110 
     9   opls_808      1    UNK   O08      1    -0.3397    15.9990 
    10   opls_809      1    UNK   C09      1     0.0138    12.0110 
    11   opls_810      1    UNK   C0A      1       0.28    12.0110 
    12   opls_811      1    UNK   O0B      1    -0.4191    15.9990 
    13   opls_812      1    UNK   C0C      1    -0.2186    12.0110 
    14   opls_813      1    UNK   C0D      1     0.3156    12.0110 
    15   opls_814      1    UNK   O0E      1    -0.4369    15.9990 
    16   opls_815      1    UNK   C0F      1    -0.0879    12.0110 
    17   opls_816      1    UNK   C0G      1    -0.2399    12.0110 
    18   opls_817      1    UNK   H0H      1     0.0831     1.0080 
    19   opls_818      1    UNK   H0I      1     0.0831     1.0080 
    20   opls_819      1    UNK   H0J      1     0.0831     1.0080 
    21   opls_820      1    UNK   H0K      1     0.0917     1.0080 
    22   opls_821      1    UNK   H0M      1     0.0917     1.0080 
    23   opls_822      1    UNK   H0N      1     0.1027     1.0080 
    24   opls_823      1    UNK   H0O      1     0.0952     1.0080 
    25   opls_824      1    UNK   H0P      1     0.0952     1.0080 
    26   opls_825      1    UNK   H0Q      1     0.0942     1.0080 
    27   opls_826      1    UNK   H0R      1     0.0942     1.0080 
    28   opls_827      1    UNK   H0S      1     0.0974     1.0080 
    29   opls_828      1    UNK   H0T      1     0.0974     1.0080 
    30   opls_829      1    UNK   H0U      1     0.1154     1.0080 
    31   opls_830      1    UNK   H0V      1     0.1154     1.0080 
    32   opls_831      1    UNK   H0W      1     0.1461     1.0080 
    33   opls_832      1    UNK   H0X      2     0.1367     1.0080 
    34   opls_833      1    UNK   H0Y      2     0.1359     1.0080 
    35   opls_834      1    UNK   H0Z      2     0.1172     1.0080 
    36   opls_835      1    UNK   H10      2     0.1125     1.0080 
    37   opls_836      1    UNK   H11      2     0.0894     1.0080 
    38   opls_837      1    UNK   H12      2     0.0894     1.0080 
    39   opls_838      1    UNK   H13      2     0.0894     1.0080 
[ bonds ]
    2     1     1      0.1529 224262.400
    3     2     1      0.1529 224262.400
    4     3     1      0.1529 224262.400
    5     4     1      0.1529 224262.400
    6     5     1      0.1529 224262.400
    7     3     1      0.1529 224262.400
    8     7     1      0.1529 224262.400
    9     8     1      0.1410 267776.000
   10     9     1      0.1410 267776.000
   11    10     1      0.1522 265265.600
   12    11     1      0.1229 476976.000
   13    10     1      0.1529 224262.400
   14    13     1      0.1522 265265.600
   15    14     1      0.1229 476976.000
   16     7     1      0.1529 224262.400
   17    16     1      0.1529 224262.400
   18     1     1      0.1090 284512.000
   19     1     1      0.1090 284512.000
   20     1     1      0.1090 284512.000
   21     2     1      0.1090 284512.000
   22     2     1      0.1090 284512.000
   23     3     1      0.1090 284512.000
   24     4     1      0.1090 284512.000
   25     4     1      0.1090 284512.000
   26     5     1      0.1090 284512.000
   27     5     1      0.1090 284512.000
   28     6     1      0.1090 284512.000
   29     6     1      0.1090 284512.000
   30     8     1      0.1090 284512.000
   31     8     1      0.1090 284512.000
   32    10     1      0.1090 284512.000
   33    11     1      0.1090 284512.000
   34    13     1      0.1090 284512.000
   35    14     1      0.1090 284512.000
   36    16     1      0.1090 284512.000
   37    17     1      0.1090 284512.000
   38    17     1      0.1090 284512.000
   39    17     1      0.1090 284512.000
    7     6     1      0.1529 224262.400
   16    13     1      0.1529 224262.400

[ angles ]
;  ai    aj    ak funct            c0            c1            c2            c3 
    1     2     3     1    112.700    488.273
    2     3     4     1    112.700    488.273
    3     4     5     1    112.700    488.273
    4     5     6     1    112.700    488.273
    2     3     7     1    112.700    488.273
    3     7     8     1    112.700    488.273
    7     8     9     1    109.500    418.400
    8     9    10     1    109.500    502.080
    9    10    11     1    109.500    418.400
   10    11    12     1    120.400    669.440
    9    10    13     1    109.500    418.400
   10    13    14     1    111.100    527.184
   13    14    15     1    120.400    669.440
    3     7    16     1    112.700    488.273
    7    16    17     1    112.700    488.273
    2     1    18     1    110.700    313.800
    2     1    19     1    110.700    313.800
    2     1    20     1    110.700    313.800
    1     2    21     1    110.700    313.800
    1     2    22     1    110.700    313.800
    2     3    23     1    110.700    313.800
    3     4    24     1    110.700    313.800
    3     4    25     1    110.700    313.800
    4     5    26     1    110.700    313.800
    4     5    27     1    110.700    313.800
    5     6    28     1    110.700    313.800
    5     6    29     1    110.700    313.800
    7     8    30     1    110.700    313.800
    7     8    31     1    110.700    313.800
    9    10    32     1    109.500    292.880
   10    11    33     1    115.000    292.880
   10    13    34     1    110.700    313.800
   13    14    35     1    115.000    292.880
    7    16    36     1    110.700    313.800
   16    17    37     1    110.700    313.800
   16    17    38     1    110.700    313.800
   16    17    39     1    110.700    313.800
    9     8    30     1    109.500    292.880
   15    14    35     1    123.000    292.880
   38    17    39     1    107.800    276.144
    3     2    21     1    110.700    313.800
   28     6    29     1    107.800    276.144
    7     3    23     1    110.700    313.800
    5     4    24     1    110.700    313.800
   12    11    33     1    123.000    292.880
   24     4    25     1    107.800    276.144
    6     7     8     1    112.700    488.273
    9     8    31     1    109.500    292.880
    7     6    28     1    110.700    313.800
    5     6     7     1    112.700    488.273
   37    17    39     1    107.800    276.144
   13    10    32     1    110.700    313.800
   11    10    32     1    109.500    292.880
   17    16    36     1    110.700    313.800
    4     3     7     1    112.700    488.273
    3     7     6     1    112.700    488.273
    4     3    23     1    110.700    313.800
    3     2    22     1    110.700    313.800
    6     5    27     1    110.700    313.800
   11    10    13     1    111.100    527.184
   18     1    19     1    107.800    276.144
   10    13    16     1    112.700    488.273
   14    13    34     1    109.500    292.880
   37    17    38     1    107.800    276.144
   26     5    27     1    107.800    276.144
   16    13    34     1    110.700    313.800
    7     6    29     1    110.700    313.800
    5     4    25     1    110.700    313.800
   13    16    17     1    112.700    488.273
    6     5    26     1    110.700    313.800
   18     1    20     1    107.800    276.144
   21     2    22     1    107.800    276.144
   30     8    31     1    107.800    276.144
   14    13    16     1    111.100    527.184
   19     1    20     1    107.800    276.144
    7    16    13     1    112.700    488.273
   13    16    36     1    110.700    313.800
    6     7    16     1    112.700    488.273
    8     7    16     1    112.700    488.273

[ dihedrals ]
; IMPROPER DIHEDRAL ANGLES 
;  ai    aj    ak    al funct            c0            c1            c2            c3            c4            c5
    35    14    13    15    4        180.000     43.932     2  
    33    11    10    12    4        180.000     43.932     2  

[ dihedrals ]
; PROPER DIHEDRAL ANGLES
;  ai    aj    ak    al funct            c0            c1            c2            c3            c4            c5
   14   13   10   11        3       0.941   7.427   0.000  -8.368  -0.000   0.000
   14   13   16    7        3      -4.960   6.286   1.310  -2.636  -0.000   0.000
   14   13   10    9        3      -12.929  12.929   0.000  -0.000  -0.000   0.000
   11   10    9    8        3       1.715   2.845   1.046  -5.607  -0.000   0.000
   13   10   11   12        3       0.000   0.000   0.000  -0.000  -0.000   0.000
   16   13   14   15        3       0.000   0.000   0.000  -0.000  -0.000   0.000
   16   13   10   11        3      -4.960   6.286   1.310  -2.636  -0.000   0.000
   17   16   13   14        3      -4.960   6.286   1.310  -2.636  -0.000   0.000
    6    7    3    4        3       2.301  -1.464   0.837  -1.674  -0.000   0.000
   13   16    7    3        3       2.301  -1.464   0.837  -1.674  -0.000   0.000
   10   13   16    7        3       2.301  -1.464   0.837  -1.674  -0.000   0.000
    7    3    2    1        3       2.301  -1.464   0.837  -1.674  -0.000   0.000
   17   16    7    3        3       2.301  -1.464   0.837  -1.674  -0.000   0.000
   16    7    3    2        3       2.301  -1.464   0.837  -1.674  -0.000   0.000
   13   16    7    6        3       2.301  -1.464   0.837  -1.674  -0.000   0.000
   16    7    3    4        3       2.301  -1.464   0.837  -1.674  -0.000   0.000
    4    3    2    1        3       2.301  -1.464   0.837  -1.674  -0.000   0.000
   16    7    6    5        3       2.301  -1.464   0.837  -1.674  -0.000   0.000
    8    7    3    2        3       2.301  -1.464   0.837  -1.674  -0.000   0.000
   17   16    7    8        3       2.301  -1.464   0.837  -1.674  -0.000   0.000
    7    3    4    5        3       2.301  -1.464   0.837  -1.674  -0.000   0.000
   13   16    7    8        3       2.301  -1.464   0.837  -1.674  -0.000   0.000
    5    6    7    3        3       2.301  -1.464   0.837  -1.674  -0.000   0.000
    7    6    5    4        3       2.301  -1.464   0.837  -1.674  -0.000   0.000
   17   16   13   10        3       2.301  -1.464   0.837  -1.674  -0.000   0.000
   17   16    7    6        3       2.301  -1.464   0.837  -1.674  -0.000   0.000
    8    7    6    5        3       2.301  -1.464   0.837  -1.674  -0.000   0.000
    6    7    3    2        3       2.301  -1.464   0.837  -1.674  -0.000   0.000
    8    7    3    4        3       2.301  -1.464   0.837  -1.674  -0.000   0.000
    5    4    3    2        3       2.301  -1.464   0.837  -1.674  -0.000   0.000
    6    5    4    3        3       2.301  -1.464   0.837  -1.674  -0.000   0.000
   16   13   10    9        3       2.874   0.582   2.092  -5.548  -0.000   0.000
   16    7    8    9        3       2.874   0.582   2.092  -5.548  -0.000   0.000
   13   10    9    8        3       1.715   2.845   1.046  -5.607  -0.000   0.000
   10    9    8    7        3       1.715   2.845   1.046  -5.607  -0.000   0.000
   35   14   13   10        3       0.000   0.000   0.000  -0.000  -0.000   0.000
   35   14   13   16        3       0.000   0.000   0.000  -0.000  -0.000   0.000
   33   11   10   13        3       0.000   0.000   0.000  -0.000  -0.000   0.000
   35   14   13   34        3       0.753   2.259   0.000  -3.012  -0.000   0.000
   33   11   10   32        3       0.753   2.259   0.000  -3.012  -0.000   0.000
   33   11   10    9        3       0.979   2.937   0.000  -3.916  -0.000   0.000
   34   13   14   15        3       0.000   0.000   0.000  -0.000  -0.000   0.000
   32   10   11   12        3       0.000   0.000   0.000  -0.000  -0.000   0.000
   32   10   13   14        3      -0.209  -0.628   0.000   0.837  -0.000   0.000
   34   13   10   11        3      -0.209  -0.628   0.000   0.837  -0.000   0.000
   36   16   13   14        3      -0.209  -0.628   0.000   0.837  -0.000   0.000
   24    4    5    6        3       0.628   1.883   0.000  -2.510  -0.000   0.000
   21    2    3    7        3       0.628   1.883   0.000  -2.510  -0.000   0.000
   39   17   16   13        3       0.628   1.883   0.000  -2.510  -0.000   0.000
   26    5    4    3        3       0.628   1.883   0.000  -2.510  -0.000   0.000
   18    1    2    3        3       0.628   1.883   0.000  -2.510  -0.000   0.000
   31    8    7    3        3       0.628   1.883   0.000  -2.510  -0.000   0.000
   23    3    7    8        3       0.628   1.883   0.000  -2.510  -0.000   0.000
   26    5    6    7        3       0.628   1.883   0.000  -2.510  -0.000   0.000
   27    5    6    7        3       0.628   1.883   0.000  -2.510  -0.000   0.000
   36   16   13   10        3       0.628   1.883   0.000  -2.510  -0.000   0.000
   25    4    3    2        3       0.628   1.883   0.000  -2.510  -0.000   0.000
   28    6    7    3        3       0.628   1.883   0.000  -2.510  -0.000   0.000
   22    2    3    4        3       0.628   1.883   0.000  -2.510  -0.000   0.000
   37   17   16   13        3       0.628   1.883   0.000  -2.510  -0.000   0.000
   32   10   13   16        3       0.628   1.883   0.000  -2.510  -0.000   0.000
   29    6    7    8        3       0.628   1.883   0.000  -2.510  -0.000   0.000
   24    4    3    2        3       0.628   1.883   0.000  -2.510  -0.000   0.000
   27    5    4    3        3       0.628   1.883   0.000  -2.510  -0.000   0.000
   39   17   16    7        3       0.628   1.883   0.000  -2.510  -0.000   0.000
   31    8    7   16        3       0.628   1.883   0.000  -2.510  -0.000   0.000
   22    2    3    7        3       0.628   1.883   0.000  -2.510  -0.000   0.000
   20    1    2    3        3       0.628   1.883   0.000  -2.510  -0.000   0.000
   36   16    7    3        3       0.628   1.883   0.000  -2.510  -0.000   0.000
   21    2    3    4        3       0.628   1.883   0.000  -2.510  -0.000   0.000
   24    4    3    7        3       0.628   1.883   0.000  -2.510  -0.000   0.000
   29    6    7    3        3       0.628   1.883   0.000  -2.510  -0.000   0.000
   23    3    2    1        3       0.628   1.883   0.000  -2.510  -0.000   0.000
   23    3    7    6        3       0.628   1.883   0.000  -2.510  -0.000   0.000
   34   13   16    7        3       0.628   1.883   0.000  -2.510  -0.000   0.000
   28    6    7   16        3       0.628   1.883   0.000  -2.510  -0.000   0.000
   23    3    7   16        3       0.628   1.883   0.000  -2.510  -0.000   0.000
   23    3    4    5        3       0.628   1.883   0.000  -2.510  -0.000   0.000
   30    8    7   16        3       0.628   1.883   0.000  -2.510  -0.000   0.000
   29    6    5    4        3       0.628   1.883   0.000  -2.510  -0.000   0.000
   31    8    7    6        3       0.628   1.883   0.000  -2.510  -0.000   0.000
   28    6    5    4        3       0.628   1.883   0.000  -2.510  -0.000   0.000
   38   17   16    7        3       0.628   1.883   0.000  -2.510  -0.000   0.000
   19    1    2    3        3       0.628   1.883   0.000  -2.510  -0.000   0.000
   25    4    5    6        3       0.628   1.883   0.000  -2.510  -0.000   0.000
   28    6    7    8        3       0.628   1.883   0.000  -2.510  -0.000   0.000
   29    6    7   16        3       0.628   1.883   0.000  -2.510  -0.000   0.000
   37   17   16    7        3       0.628   1.883   0.000  -2.510  -0.000   0.000
   34   13   16   17        3       0.628   1.883   0.000  -2.510  -0.000   0.000
   36   16    7    6        3       0.628   1.883   0.000  -2.510  -0.000   0.000
   30    8    7    3        3       0.628   1.883   0.000  -2.510  -0.000   0.000
   36   16    7    8        3       0.628   1.883   0.000  -2.510  -0.000   0.000
   38   17   16   13        3       0.628   1.883   0.000  -2.510  -0.000   0.000
   25    4    3    7        3       0.628   1.883   0.000  -2.510  -0.000   0.000
   30    8    7    6        3       0.628   1.883   0.000  -2.510  -0.000   0.000
   28    6    5   27        3       0.628   1.883   0.000  -2.510  -0.000   0.000
   29    6    5   26        3       0.628   1.883   0.000  -2.510  -0.000   0.000
   22    2    1   18        3       0.628   1.883   0.000  -2.510  -0.000   0.000
   37   17   16   36        3       0.628   1.883   0.000  -2.510  -0.000   0.000
   26    5    4   25        3       0.628   1.883   0.000  -2.510  -0.000   0.000
   27    5    4   24        3       0.628   1.883   0.000  -2.510  -0.000   0.000
   21    2    1   19        3       0.628   1.883   0.000  -2.510  -0.000   0.000
   24    4    3   23        3       0.628   1.883   0.000  -2.510  -0.000   0.000
   23    3    2   21        3       0.628   1.883   0.000  -2.510  -0.000   0.000
   21    2    1   18        3       0.628   1.883   0.000  -2.510  -0.000   0.000
   34   13   10   32        3       0.628   1.883   0.000  -2.510  -0.000   0.000
   26    5    4   24        3       0.628   1.883   0.000  -2.510  -0.000   0.000
   23    3    2   22        3       0.628   1.883   0.000  -2.510  -0.000   0.000
   29    6    5   27        3       0.628   1.883   0.000  -2.510  -0.000   0.000
   28    6    5   26        3       0.628   1.883   0.000  -2.510  -0.000   0.000
   22    2    1   19        3       0.628   1.883   0.000  -2.510  -0.000   0.000
   27    5    4   25        3       0.628   1.883   0.000  -2.510  -0.000   0.000
   21    2    1   20        3       0.628   1.883   0.000  -2.510  -0.000   0.000
   38   17   16   36        3       0.628   1.883   0.000  -2.510  -0.000   0.000
   25    4    3   23        3       0.628   1.883   0.000  -2.510  -0.000   0.000
   39   17   16   36        3       0.628   1.883   0.000  -2.510  -0.000   0.000
   22    2    1   20        3       0.628   1.883   0.000  -2.510  -0.000   0.000
   36   16   13   34        3       0.628   1.883   0.000  -2.510  -0.000   0.000
   34   13   10    9        3       0.979   2.937   0.000  -3.916  -0.000   0.000
   31    8    9   10        3       1.590   4.770   0.000  -6.360  -0.000   0.000
   30    8    9   10        3       1.590   4.770   0.000  -6.360  -0.000   0.000
   32   10    9    8        3       1.590   4.770   0.000  -6.360  -0.000   0.000
   15   14   13   10        3       0.000   0.000   0.000  -0.000  -0.000   0.000
   12   11   10    9        3       0.000   0.000   0.000  -0.000  -0.000   0.000
    9    8    7    3        3       2.874   0.582   2.092  -5.548  -0.000   0.000
    9    8    7    6        3       2.874   0.582   2.092  -5.548  -0.000   0.000

[ pairs ]
     1     4    1
     2     5    1
     2     6    1
     1     7    1
     2     8    1
     4     8    1
     3     9    1
     5     8    1
     6     9    1
     3    13    1
     7    10    1
     2    16    1
     8    11    1
     6    13    1
     4    16    1
     3    17    1
     9    12    1
     8    13    1
     7    14    1
     5    16    1
     3    18    1
     3    19    1
     9    14    1
     6    17    1
     3    20    1
     1    23    1
    12    13    1
    11    14    1
    10    15    1
     9    16    1
     8    17    1
     4    21    1
     4    22    1
     2    24    1
    11    16    1
    10    17    1
     2    25    1
     7    21    1
     5    23    1
     7    22    1
     6    23    1
     3    26    1
     6    24    1
     3    27    1
    15    16    1
    14    17    1
     8    23    1
     7    24    1
     6    25    1
     3    28    1
     7    25    1
     4    28    1
     3    29    1
     7    26    1
     4    29    1
     3    30    1
     7    27    1
     3    31    1
     8    28    1
     6    30    1
     8    29    1
     6    31    1
    18    21    1
    16    23    1
     3    36    1
    19    21    1
    18    22    1
    10    30    1
     8    32    1
    20    21    1
    19    22    1
    10    31    1
     7    34    1
    20    22    1
     9    33    1
     6    36    1
     9    34    1
    21    23    1
    16    28    1
    12    32    1
     8    36    1
     7    37    1
    22    23    1
    16    29    1
    11    34    1
    10    35    1
     7    38    1
    16    30    1
    14    32    1
    13    33    1
    10    36    1
     7    39    1
    23    24    1
    16    31    1
    23    25    1
    16    32    1
    15    34    1
    24    26    1
    14    36    1
    13    37    1
    25    26    1
    24    27    1
    17    34    1
    16    35    1
    13    38    1
    25    27    1
    13    39    1
    26    28    1
    27    28    1
    26    29    1
    27    29    1
    32    33    1
    32    34    1
    34    35    1
    34    36    1
    36    37    1
    36    38    1
    36    39    1

