LIGPARGEN GENERATED GRO FILE
   39
    1UNK    C00    1   0.100   0.100   0.000
    1UNK    C01    2  -0.053   0.100   0.000
    1UNK    C02    3  -0.113   0.100   0.142
    1UNK    C03    4  -0.071   0.225   0.221
    1UNK    C04    5  -0.185   0.252   0.318
    1UNK    C05    6  -0.308   0.216   0.237
    1UNK    C06    7  -0.270   0.092   0.152
    1UNK    C07    8  -0.341   0.104   0.014
    1UNK    O08    9  -0.483   0.086   0.025
    1UNK    C09   10  -0.518  -0.046   0.067
    1UNK    C0A   11  -0.477  -0.158  -0.031
    1UNK    O0B   12  -0.456  -0.140  -0.151
    1UNK    C0C   13  -0.467  -0.065   0.210
    1UNK    C0D   14  -0.517  -0.197   0.263
    1UNK    O0E   15  -0.457  -0.303   0.250
    1UNK    C0F   16  -0.315  -0.044   0.220
    1UNK    C0G   17  -0.271  -0.059   0.367
    1UNK    H0H   18   0.137   0.078  -0.100
    1UNK    H0I   19   0.140   0.024   0.069
    1UNK    H0J   20   0.140   0.198   0.029
    1UNK    H0K   21  -0.085   0.010  -0.053
    1UNK    H0M   22  -0.087   0.187  -0.057
    1UNK    H0N   23  -0.070   0.013   0.193
    1UNK    H0O   24  -0.058   0.311   0.154
    1UNK    H0P   25   0.023   0.209   0.274
    1UNK    H0Q   26  -0.186   0.356   0.350
    1UNK    H0R   27  -0.175   0.189   0.407
    1UNK    H0S   28  -0.333   0.301   0.172
    1UNK    H0T   29  -0.395   0.200   0.302
    1UNK    H0U   30  -0.302   0.032  -0.058
    1UNK    H0V   31  -0.325   0.203  -0.029
    1UNK    H0W   32  -0.628  -0.050   0.069
    1UNK    H0X   33  -0.475  -0.260   0.009
    1UNK    H0Y   34  -0.514   0.011   0.273
    1UNK    H0Z   35  -0.616  -0.195   0.312
    1UNK    H10   36  -0.266  -0.126   0.164
    1UNK    H11   37  -0.324   0.011   0.432
    1UNK    H12   38  -0.163  -0.044   0.380
    1UNK    H13   39  -0.292  -0.160   0.404
   1.00000   1.00000   1.00000

