
;
; GENERATED BY LigParGen Server
; Jorgensen Lab @ Yale University 
;
[ atomtypes ]
  opls_807  O807    15.9990     0.000    A    2.96000E-01   8.78640E-01
  opls_818  H818     1.0080     0.000    A    2.50000E-01   1.25520E-01
  opls_814  C814    12.0110     0.000    A    3.50000E-01   2.76144E-01
  opls_803  O803    15.9990     0.000    A    2.90000E-01   5.85760E-01
  opls_824  H824     1.0080     0.000    A    2.50000E-01   1.25520E-01
  opls_810  O810    15.9990     0.000    A    2.90000E-01   5.85760E-01
  opls_836  H836     1.0080     0.000    A    2.50000E-01   1.25520E-01
  opls_834  H834     1.0080     0.000    A    2.50000E-01   1.25520E-01
  opls_828  H828     1.0080     0.000    A    2.50000E-01   1.25520E-01
  opls_802  C802    12.0110     0.000    A    3.50000E-01   2.76144E-01
  opls_827  H827     1.0080     0.000    A    2.50000E-01   1.25520E-01
  opls_809  C809    12.0110     0.000    A    3.50000E-01   2.76144E-01
  opls_822  H822     1.0080     0.000    A    2.50000E-01   1.25520E-01
  opls_825  H825     1.0080     0.000    A    2.50000E-01   1.25520E-01
  opls_830  H830     1.0080     0.000    A    2.50000E-01   1.25520E-01
  opls_804  C804    12.0110     0.000    A    3.50000E-01   2.76144E-01
  opls_820  H820     1.0080     0.000    A    2.50000E-01   1.25520E-01
  opls_837  H837     1.0080     0.000    A    2.50000E-01   1.25520E-01
  opls_821  H821     1.0080     0.000    A    2.50000E-01   1.25520E-01
  opls_831  H831     1.0080     0.000    A    2.50000E-01   1.25520E-01
  opls_812  O812    15.9990     0.000    A    2.96000E-01   8.78640E-01
  opls_832  H832     1.0080     0.000    A    2.50000E-01   1.25520E-01
  opls_800  C800    12.0110     0.000    A    3.50000E-01   2.76144E-01
  opls_805  C805    12.0110     0.000    A    3.50000E-01   2.76144E-01
  opls_815  C815    12.0110     0.000    A    3.50000E-01   2.76144E-01
  opls_806  C806    12.0110     0.000    A    3.55000E-01   2.92880E-01
  opls_823  H823     1.0080     0.000    A    2.50000E-01   1.25520E-01
  opls_813  O813    15.9990     0.000    A    2.90000E-01   5.85760E-01
  opls_811  C811    12.0110     0.000    A    3.55000E-01   2.92880E-01
  opls_826  H826     1.0080     0.000    A    2.50000E-01   1.25520E-01
  opls_835  H835     1.0080     0.000    A    2.50000E-01   1.25520E-01
  opls_819  H819     1.0080     0.000    A    2.50000E-01   1.25520E-01
  opls_816  C816    12.0110     0.000    A    3.50000E-01   2.76144E-01
  opls_833  H833     1.0080     0.000    A    2.50000E-01   1.25520E-01
  opls_817  C817    12.0110     0.000    A    3.50000E-01   2.76144E-01
  opls_801  C801    12.0110     0.000    A    3.50000E-01   2.76144E-01
  opls_808  C808    12.0110     0.000    A    3.50000E-01   2.76144E-01
  opls_829  H829     1.0080     0.000    A    2.50000E-01   1.25520E-01
[ moleculetype ]
; Name               nrexcl
UNK                   3
[ atoms ]
;   nr       type  resnr residue  atom   cgnr     charge       mass  
     1   opls_800      1    UNK   C00      1    -0.2318    12.0110 
     2   opls_801      1    UNK   C01      1    -0.1934    12.0110 
     3   opls_802      1    UNK   C02      1     0.1693    12.0110 
     4   opls_803      1    UNK   O03      1    -0.3801    15.9990 
     5   opls_804      1    UNK   C04      1    -0.0568    12.0110 
     6   opls_805      1    UNK   C05      1    -0.2449    12.0110 
     7   opls_806      1    UNK   C06      1     0.3291    12.0110 
     8   opls_807      1    UNK   O07      1     -0.438    15.9990 
     9   opls_808      1    UNK   C08      1     0.1033    12.0110 
    10   opls_809      1    UNK   C09      1    -0.2452    12.0110 
    11   opls_810      1    UNK   O0A      1    -0.3348    15.9990 
    12   opls_811      1    UNK   C0B      1     0.5653    12.0110 
    13   opls_812      1    UNK   O0C      1    -0.3749    15.9990 
    14   opls_813      1    UNK   O0D      1    -0.3223    15.9990 
    15   opls_814      1    UNK   C0E      1     0.0306    12.0110 
    16   opls_815      1    UNK   C0F      1    -0.0339    12.0110 
    17   opls_816      1    UNK   C0G      1    -0.2245    12.0110 
    18   opls_817      1    UNK   C0H      1    -0.2259    12.0110 
    19   opls_818      1    UNK   H0I      1     0.0902     1.0080 
    20   opls_819      1    UNK   H0J      1     0.0902     1.0080 
    21   opls_820      1    UNK   H0K      1     0.0902     1.0080 
    22   opls_821      1    UNK   H0M      1     0.0981     1.0080 
    23   opls_822      1    UNK   H0N      1     0.0981     1.0080 
    24   opls_823      1    UNK   H0O      1     0.0921     1.0080 
    25   opls_824      1    UNK   H0P      1     0.0921     1.0080 
    26   opls_825      1    UNK   H0Q      1     0.0921     1.0080 
    27   opls_826      1    UNK   H0R      1     0.1615     1.0080 
    28   opls_827      1    UNK   H0S      1     0.1388     1.0080 
    29   opls_828      1    UNK   H0T      1     0.1116     1.0080 
    30   opls_829      1    UNK   H0U      1     0.1116     1.0080 
    31   opls_830      1    UNK   H0V      1     0.1116     1.0080 
    32   opls_831      1    UNK   H0W      1      0.152     1.0080 
    33   opls_832      1    UNK   H0X      2     0.0991     1.0080 
    34   opls_833      1    UNK   H0Y      2     0.0991     1.0080 
    35   opls_834      1    UNK   H0Z      2     0.0991     1.0080 
    36   opls_835      1    UNK   H10      2     0.0937     1.0080 
    37   opls_836      1    UNK   H11      2     0.0937     1.0080 
    38   opls_837      1    UNK   H12      2     0.0937     1.0080 
[ bonds ]
    2     1     1      0.1529 224262.400
    3     2     1      0.1529 224262.400
    4     3     1      0.1410 267776.000
    5     4     1      0.1410 267776.000
    6     3     1      0.1529 224262.400
    7     6     1      0.1522 265265.600
    8     7     1      0.1229 476976.000
    9     6     1      0.1529 224262.400
   10     9     1      0.1529 224262.400
   11     9     1      0.1410 267776.000
   12    11     1      0.1327 179075.200
   13    12     1      0.1229 476976.000
   14    12     1      0.1327 179075.200
   15     9     1      0.1529 224262.400
   16     3     1      0.1529 224262.400
   17    16     1      0.1529 224262.400
   18    16     1      0.1529 224262.400
   19     1     1      0.1090 284512.000
   20     1     1      0.1090 284512.000
   21     1     1      0.1090 284512.000
   22     2     1      0.1090 284512.000
   23     2     1      0.1090 284512.000
   24     5     1      0.1090 284512.000
   25     5     1      0.1090 284512.000
   26     5     1      0.1090 284512.000
   27     6     1      0.1090 284512.000
   28     7     1      0.1090 284512.000
   29    10     1      0.1090 284512.000
   30    10     1      0.1090 284512.000
   31    10     1      0.1090 284512.000
   32    15     1      0.1090 284512.000
   33    17     1      0.1090 284512.000
   34    17     1      0.1090 284512.000
   35    17     1      0.1090 284512.000
   36    18     1      0.1090 284512.000
   37    18     1      0.1090 284512.000
   38    18     1      0.1090 284512.000
   15    14     1      0.1410 267776.000
   16    15     1      0.1529 224262.400

[ angles ]
;  ai    aj    ak funct            c0            c1            c2            c3 
    1     2     3     1    112.700    488.273
    2     3     4     1    109.500    418.400
    3     4     5     1    109.500    502.080
    2     3     6     1    112.700    488.273
    3     6     7     1    111.100    527.184
    6     7     8     1    120.400    669.440
    3     6     9     1    112.700    488.273
    6     9    10     1    112.700    488.273
    6     9    11     1    109.500    418.400
    9    11    12     1    116.900    694.544
   11    12    13     1    123.400    694.544
   11    12    14     1    118.180    584.923
    6     9    15     1    112.700    488.273
    2     3    16     1    112.700    488.273
    3    16    17     1    112.700    488.273
    3    16    18     1    112.700    488.273
    2     1    19     1    110.700    313.800
    2     1    20     1    110.700    313.800
    2     1    21     1    110.700    313.800
    1     2    22     1    110.700    313.800
    1     2    23     1    110.700    313.800
    4     5    24     1    109.500    292.880
    4     5    25     1    109.500    292.880
    4     5    26     1    109.500    292.880
    3     6    27     1    110.700    313.800
    6     7    28     1    115.000    292.880
    9    10    29     1    110.700    313.800
    9    10    30     1    110.700    313.800
    9    10    31     1    110.700    313.800
    9    15    32     1    110.700    313.800
   16    17    33     1    110.700    313.800
   16    17    34     1    110.700    313.800
   16    17    35     1    110.700    313.800
   16    18    36     1    110.700    313.800
   16    18    37     1    110.700    313.800
   16    18    38     1    110.700    313.800
   19     1    20     1    107.800    276.144
   15    16    18     1    112.700    488.273
   30    10    31     1    107.800    276.144
   13    12    14     1    123.400    694.544
   20     1    21     1    107.800    276.144
   24     5    26     1    107.800    276.144
    7     6     9     1    111.100    527.184
   34    17    35     1    107.800    276.144
   29    10    30     1    107.800    276.144
    9    15    14     1    109.500    418.400
   36    18    38     1    107.800    276.144
   12    14    15     1    116.900    694.544
    3     2    22     1    110.700    313.800
    3     2    23     1    110.700    313.800
   19     1    21     1    107.800    276.144
   24     5    25     1    107.800    276.144
    8     7    28     1    123.000    292.880
   22     2    23     1    107.800    276.144
   10     9    15     1    112.700    488.273
    7     6    27     1    109.500    292.880
    9     6    27     1    110.700    313.800
    3    16    15     1    112.700    488.273
   25     5    26     1    107.800    276.144
    6     3    16     1    112.700    488.273
    4     3     6     1    109.500    418.400
   17    16    18     1    112.700    488.273
   10     9    11     1    109.500    418.400
   14    15    32     1    109.500    292.880
   14    15    16     1    109.500    418.400
   37    18    38     1    107.800    276.144
   15    16    17     1    112.700    488.273
    4     3    16     1    109.500    418.400
    9    15    16     1    112.700    488.273
   11     9    15     1    109.500    418.400
   16    15    32     1    110.700    313.800
   33    17    34     1    107.800    276.144
   33    17    35     1    107.800    276.144
   29    10    31     1    107.800    276.144
   36    18    37     1    107.800    276.144

[ dihedrals ]
; IMPROPER DIHEDRAL ANGLES 
;  ai    aj    ak    al funct            c0            c1            c2            c3            c4            c5
    28     7     6     8    4        180.000     43.932     2  
    14    12    11    13    4        180.000     43.932     2  

[ dihedrals ]
; PROPER DIHEDRAL ANGLES
;  ai    aj    ak    al funct            c0            c1            c2            c3            c4            c5
    7    6    3    2        3      -4.960   6.286   1.310  -2.636  -0.000   0.000
    7    6    3    4        3      -12.929  12.929   0.000  -0.000  -0.000   0.000
   12   11    9   10        3      -2.197   5.201   0.527  -3.531  -0.000   0.000
   12   14   15    9        3      -2.197   5.201   0.527  -3.531  -0.000   0.000
   12   11    9    6        3      -2.197   5.201   0.527  -3.531  -0.000   0.000
    9    6    7    8        3       0.000   0.000   0.000  -0.000  -0.000   0.000
   16    3    6    7        3      -4.960   6.286   1.310  -2.636  -0.000   0.000
   15    9    6    7        3      -4.960   6.286   1.310  -2.636  -0.000   0.000
   10    9    6    7        3      -4.960   6.286   1.310  -2.636  -0.000   0.000
   15   16    3    2        3       2.301  -1.464   0.837  -1.674  -0.000   0.000
   17   16    3    2        3       2.301  -1.464   0.837  -1.674  -0.000   0.000
   17   16   15    9        3       2.301  -1.464   0.837  -1.674  -0.000   0.000
   15    9    6    3        3       2.301  -1.464   0.837  -1.674  -0.000   0.000
   17   16    3    6        3       2.301  -1.464   0.837  -1.674  -0.000   0.000
   16    3    6    9        3       2.301  -1.464   0.837  -1.674  -0.000   0.000
   18   16    3    2        3       2.301  -1.464   0.837  -1.674  -0.000   0.000
   16   15    9    6        3       2.301  -1.464   0.837  -1.674  -0.000   0.000
   16   15    9   10        3       2.301  -1.464   0.837  -1.674  -0.000   0.000
    9   15   16    3        3       2.301  -1.464   0.837  -1.674  -0.000   0.000
   18   16   15    9        3       2.301  -1.464   0.837  -1.674  -0.000   0.000
    9    6    3    2        3       2.301  -1.464   0.837  -1.674  -0.000   0.000
   10    9    6    3        3       2.301  -1.464   0.837  -1.674  -0.000   0.000
   15   16    3    6        3       2.301  -1.464   0.837  -1.674  -0.000   0.000
    6    3    2    1        3       2.301  -1.464   0.837  -1.674  -0.000   0.000
   18   16    3    6        3       2.301  -1.464   0.837  -1.674  -0.000   0.000
   16    3    2    1        3       2.301  -1.464   0.837  -1.674  -0.000   0.000
   15   16    3    4        3       2.874   0.582   2.092  -5.548  -0.000   0.000
   18   16   15   14        3       2.874   0.582   2.092  -5.548  -0.000   0.000
    9    6    3    4        3       2.874   0.582   2.092  -5.548  -0.000   0.000
   18   16    3    4        3       2.874   0.582   2.092  -5.548  -0.000   0.000
   17   16   15   14        3       2.874   0.582   2.092  -5.548  -0.000   0.000
   16   15    9   11        3       2.874   0.582   2.092  -5.548  -0.000   0.000
   17   16    3    4        3       2.874   0.582   2.092  -5.548  -0.000   0.000
   16   15   14   12        3      -2.197   5.201   0.527  -3.531  -0.000   0.000
   15    9   11   12        3      -2.197   5.201   0.527  -3.531  -0.000   0.000
    6    3    4    5        3       1.715   2.845   1.046  -5.607  -0.000   0.000
   16    3    4    5        3       1.715   2.845   1.046  -5.607  -0.000   0.000
   15   14   12   13        3      21.439   0.000  -21.439  -0.000  -0.000   0.000
   15   14   12   11        3      31.206  -9.768  -21.439  -0.000  -0.000   0.000
    5    4    3    2        3       1.715   2.845   1.046  -5.607  -0.000   0.000
   28    7    6    3        3       0.000   0.000   0.000  -0.000  -0.000   0.000
   28    7    6    9        3       0.000   0.000   0.000  -0.000  -0.000   0.000
   28    7    6   27        3       0.753   2.259   0.000  -3.012  -0.000   0.000
   27    6    7    8        3       0.000   0.000   0.000  -0.000  -0.000   0.000
   38   18   16   15        3       0.628   1.883   0.000  -2.510  -0.000   0.000
   27    6    3   16        3       0.628   1.883   0.000  -2.510  -0.000   0.000
   36   18   16   15        3       0.628   1.883   0.000  -2.510  -0.000   0.000
   29   10    9   15        3       0.628   1.883   0.000  -2.510  -0.000   0.000
   33   17   16    3        3       0.628   1.883   0.000  -2.510  -0.000   0.000
   38   18   16    3        3       0.628   1.883   0.000  -2.510  -0.000   0.000
   27    6    3    2        3       0.628   1.883   0.000  -2.510  -0.000   0.000
   36   18   16   17        3       0.628   1.883   0.000  -2.510  -0.000   0.000
   29   10    9    6        3       0.628   1.883   0.000  -2.510  -0.000   0.000
   32   15    9    6        3       0.628   1.883   0.000  -2.510  -0.000   0.000
   21    1    2    3        3       0.628   1.883   0.000  -2.510  -0.000   0.000
   34   17   16    3        3       0.628   1.883   0.000  -2.510  -0.000   0.000
   32   15   16    3        3       0.628   1.883   0.000  -2.510  -0.000   0.000
   38   18   16   17        3       0.628   1.883   0.000  -2.510  -0.000   0.000
   23    2    3    6        3       0.628   1.883   0.000  -2.510  -0.000   0.000
   19    1    2    3        3       0.628   1.883   0.000  -2.510  -0.000   0.000
   20    1    2    3        3       0.628   1.883   0.000  -2.510  -0.000   0.000
   34   17   16   18        3       0.628   1.883   0.000  -2.510  -0.000   0.000
   34   17   16   15        3       0.628   1.883   0.000  -2.510  -0.000   0.000
   27    6    9   10        3       0.628   1.883   0.000  -2.510  -0.000   0.000
   22    2    3    6        3       0.628   1.883   0.000  -2.510  -0.000   0.000
   35   17   16    3        3       0.628   1.883   0.000  -2.510  -0.000   0.000
   35   17   16   18        3       0.628   1.883   0.000  -2.510  -0.000   0.000
   23    2    3   16        3       0.628   1.883   0.000  -2.510  -0.000   0.000
   32   15    9   10        3       0.628   1.883   0.000  -2.510  -0.000   0.000
   33   17   16   15        3       0.628   1.883   0.000  -2.510  -0.000   0.000
   35   17   16   15        3       0.628   1.883   0.000  -2.510  -0.000   0.000
   32   15   16   17        3       0.628   1.883   0.000  -2.510  -0.000   0.000
   27    6    9   15        3       0.628   1.883   0.000  -2.510  -0.000   0.000
   36   18   16    3        3       0.628   1.883   0.000  -2.510  -0.000   0.000
   37   18   16    3        3       0.628   1.883   0.000  -2.510  -0.000   0.000
   33   17   16   18        3       0.628   1.883   0.000  -2.510  -0.000   0.000
   30   10    9    6        3       0.628   1.883   0.000  -2.510  -0.000   0.000
   37   18   16   15        3       0.628   1.883   0.000  -2.510  -0.000   0.000
   22    2    3   16        3       0.628   1.883   0.000  -2.510  -0.000   0.000
   31   10    9   15        3       0.628   1.883   0.000  -2.510  -0.000   0.000
   31   10    9    6        3       0.628   1.883   0.000  -2.510  -0.000   0.000
   32   15   16   18        3       0.628   1.883   0.000  -2.510  -0.000   0.000
   30   10    9   15        3       0.628   1.883   0.000  -2.510  -0.000   0.000
   37   18   16   17        3       0.628   1.883   0.000  -2.510  -0.000   0.000
   23    2    1   19        3       0.628   1.883   0.000  -2.510  -0.000   0.000
   22    2    1   20        3       0.628   1.883   0.000  -2.510  -0.000   0.000
   23    2    1   21        3       0.628   1.883   0.000  -2.510  -0.000   0.000
   22    2    1   19        3       0.628   1.883   0.000  -2.510  -0.000   0.000
   22    2    1   21        3       0.628   1.883   0.000  -2.510  -0.000   0.000
   23    2    1   20        3       0.628   1.883   0.000  -2.510  -0.000   0.000
   23    2    3    4        3       0.979   2.937   0.000  -3.916  -0.000   0.000
   22    2    3    4        3       0.979   2.937   0.000  -3.916  -0.000   0.000
   32   15    9   11        3       0.979   2.937   0.000  -3.916  -0.000   0.000
   27    6    9   11        3       0.979   2.937   0.000  -3.916  -0.000   0.000
   29   10    9   11        3       0.979   2.937   0.000  -3.916  -0.000   0.000
   30   10    9   11        3       0.979   2.937   0.000  -3.916  -0.000   0.000
   27    6    3    4        3       0.979   2.937   0.000  -3.916  -0.000   0.000
   31   10    9   11        3       0.979   2.937   0.000  -3.916  -0.000   0.000
   32   15   14   12        3       0.414   1.243   0.000  -1.657  -0.000   0.000
   24    5    4    3        3       1.590   4.770   0.000  -6.360  -0.000   0.000
   26    5    4    3        3       1.590   4.770   0.000  -6.360  -0.000   0.000
   25    5    4    3        3       1.590   4.770   0.000  -6.360  -0.000   0.000
    8    7    6    3        3       0.000   0.000   0.000  -0.000  -0.000   0.000
   13   12   11    9        3      21.439   0.000  -21.439  -0.000  -0.000   0.000
   14   12   11    9        3      31.206  -9.768  -21.439  -0.000  -0.000   0.000
   11    9    6    7        3      -12.929  12.929   0.000  -0.000  -0.000   0.000
   11    9    6    3        3       2.874   0.582   2.092  -5.548  -0.000   0.000
   14   15    9    6        3       2.874   0.582   2.092  -5.548  -0.000   0.000
   14   15   16    3        3       2.874   0.582   2.092  -5.548  -0.000   0.000
   14   15    9   10        3       2.874   0.582   2.092  -5.548  -0.000   0.000
    4    3    2    1        3       2.874   0.582   2.092  -5.548  -0.000   0.000
   14   15    9   11        3      -1.151   1.151   0.000  -0.000  -0.000   0.000

[ pairs ]
     1     4    1
     2     5    1
     1     6    1
     2     7    1
     5     6    1
     4     7    1
     3     8    1
     2     9    1
     4     9    1
     3    10    1
     3    11    1
     8     9    1
     7    10    1
     3    14    1
     2    15    1
     1    16    1
     7    11    1
     6    12    1
     4    15    1
     2    17    1
     6    14    1
     2    18    1
     5    16    1
     4    17    1
    10    12    1
     9    13    1
     7    15    1
     4    18    1
     3    19    1
     7    16    1
     6    17    1
     3    20    1
    10    14    1
     6    18    1
     3    21    1
    10    16    1
     9    17    1
     4    22    1
    11    16    1
     9    18    1
     4    23    1
     3    24    1
    13    15    1
    12    16    1
     6    22    1
     3    25    1
     6    23    1
     3    26    1
     2    27    1
    14    17    1
     4    27    1
     3    28    1
    14    18    1
     8    27    1
     6    29    1
     3    32    1
     6    30    1
     3    33    1
    10    27    1
     9    28    1
     6    31    1
     3    34    1
    16    22    1
    11    27    1
     6    32    1
     3    35    1
    16    23    1
     3    36    1
    11    29    1
     3    37    1
    19    22    1
    11    30    1
     3    38    1
    20    22    1
    19    23    1
    15    27    1
    11    31    1
    10    32    1
    21    22    1
    20    23    1
    16    27    1
    11    32    1
    21    23    1
    15    29    1
    12    32    1
    15    30    1
    15    31    1
    15    33    1
    17    32    1
    15    34    1
    18    32    1
    15    35    1
    18    33    1
    15    36    1
    18    34    1
    15    37    1
    18    35    1
    17    36    1
    15    38    1
    17    37    1
    27    28    1
    17    38    1

