LIGPARGEN GENERATED GRO FILE
   38
    1UNK    C00    1   0.100   0.100   0.000
    1UNK    C01    2  -0.052   0.100   0.000
    1UNK    C02    3  -0.126   0.100   0.138
    1UNK    O03    4  -0.068   0.201   0.223
    1UNK    C04    5  -0.087   0.337   0.187
    1UNK    C05    6  -0.281   0.116   0.121
    1UNK    C06    7  -0.324   0.200   0.002
    1UNK    O07    8  -0.355   0.319   0.012
    1UNK    C08    9  -0.340  -0.027   0.113
    1UNK    C09   10  -0.468  -0.039   0.195
    1UNK    O0A   11  -0.369  -0.069  -0.019
    1UNK    C0B   12  -0.277  -0.161  -0.060
    1UNK    O0C   13  -0.273  -0.208  -0.172
    1UNK    O0D   14  -0.187  -0.185   0.038
    1UNK    C0E   15  -0.230  -0.122   0.158
    1UNK    C0F   16  -0.120  -0.035   0.222
    1UNK    C0G   17   0.017  -0.105   0.224
    1UNK    C0H   18  -0.158  -0.012   0.371
    1UNK    H0I   19   0.136   0.127  -0.100
    1UNK    H0J   20   0.142   0.002   0.021
    1UNK    H0K   21   0.142   0.173   0.070
    1UNK    H0M   22  -0.087   0.019  -0.064
    1UNK    H0N   23  -0.079   0.192  -0.053
    1UNK    H0O   24  -0.019   0.397   0.248
    1UNK    H0P   25  -0.188   0.369   0.210
    1UNK    H0Q   26  -0.062   0.357   0.082
    1UNK    H0R   27  -0.320   0.168   0.210
    1UNK    H0S   28  -0.319   0.152  -0.097
    1UNK    H0T   29  -0.546   0.025   0.153
    1UNK    H0U   30  -0.453  -0.012   0.300
    1UNK    H0V   31  -0.506  -0.142   0.192
    1UNK    H0W   32  -0.265  -0.201   0.226
    1UNK    H0X   33   0.043  -0.150   0.128
    1UNK    H0Y   34   0.018  -0.186   0.297
    1UNK    H0Z   35   0.096  -0.035   0.253
    1UNK    H10   36  -0.250   0.045   0.384
    1UNK    H11   37  -0.079   0.043   0.425
    1UNK    H12   38  -0.171  -0.108   0.423
   1.00000   1.00000   1.00000

