LIGPARGEN GENERATED GRO FILE
   37
    1UNK    C00    1   0.100   0.100   0.000
    1UNK    C01    2  -0.052   0.100   0.000
    1UNK    C02    3  -0.109   0.100   0.142
    1UNK    C03    4  -0.262   0.093   0.136
    1UNK    C04    5  -0.326   0.082   0.274
    1UNK    C05    6  -0.481   0.084   0.276
    1UNK    C06    7  -0.549  -0.038   0.208
    1UNK    C07    8  -0.529  -0.056   0.058
    1UNK    C08    9  -0.538   0.096   0.423
    1UNK    C09   10  -0.496  -0.021   0.513
    1UNK    C0A   11  -0.503   0.228   0.494
    1UNK    C0B   12  -0.554   0.352   0.423
    1UNK    O0C   13  -0.477   0.432   0.371
    1UNK    Cl0   14  -0.728   0.365   0.425
    1UNK    H0E   15   0.137   0.100  -0.103
    1UNK    H0F   16   0.139   0.011   0.050
    1UNK    H0G   17   0.139   0.188   0.051
    1UNK    H0H   18  -0.087   0.011  -0.054
    1UNK    H0I   19  -0.088   0.188  -0.055
    1UNK    H0J   20  -0.078   0.190   0.195
    1UNK    H0K   21  -0.071   0.014   0.197
    1UNK    H0M   22  -0.287   0.006   0.076
    1UNK    H0N   23  -0.301   0.182   0.084
    1UNK    H0O   24  -0.289   0.166   0.333
    1UNK    H0P   25  -0.289  -0.009   0.323
    1UNK    H0Q   26  -0.513   0.173   0.221
    1UNK    H0R   27  -0.658  -0.028   0.223
    1UNK    H0S   28  -0.520  -0.131   0.257
    1UNK    H0T   29  -0.518   0.040   0.006
    1UNK    H0U   30  -0.614  -0.108   0.014
    1UNK    H0V   31  -0.441  -0.118   0.038
    1UNK    H0W   32  -0.647   0.092   0.415
    1UNK    H0X   33  -0.387  -0.027   0.524
    1UNK    H0Y   34  -0.533  -0.116   0.475
    1UNK    H0Z   35  -0.538  -0.008   0.614
    1UNK    H10   36  -0.395   0.238   0.507
    1UNK    H11   37  -0.545   0.229   0.595
   1.00000   1.00000   1.00000

