LIGPARGEN GENERATED GRO FILE
   36
    1UNK    C00    1   0.100   0.100   0.000
    1UNK    C01    2  -0.055   0.100   0.000
    1UNK    C02    3  -0.093   0.100   0.149
    1UNK    C03    4  -0.081  -0.049   0.201
    1UNK    C04    5  -0.189  -0.143   0.145
    1UNK    C05    6  -0.198  -0.138  -0.008
    1UNK    C06    7  -0.148  -0.256  -0.090
    1UNK    C07    8  -0.047  -0.210  -0.194
    1UNK    C08    9  -0.102  -0.096  -0.285
    1UNK    C09   10  -0.144   0.027  -0.205
    1UNK    C0A   11  -0.038   0.141  -0.242
    1UNK    C0B   12  -0.097   0.205  -0.110
    1UNK    C0C   13  -0.233   0.165  -0.194
    1UNK    C0D   14  -0.152  -0.003  -0.057
    1UNK    H0E   15   0.151   0.086  -0.095
    1UNK    H0F   16   0.146   0.029   0.068
    1UNK    H0G   17   0.132   0.200   0.033
    1UNK    H0H   18  -0.195   0.141   0.167
    1UNK    H0I   19  -0.023   0.162   0.207
    1UNK    H0J   20  -0.087  -0.050   0.310
    1UNK    H0K   21   0.016  -0.092   0.174
    1UNK    H0M   22  -0.285  -0.109   0.185
    1UNK    H0N   23  -0.176  -0.246   0.180
    1UNK    H0O   24  -0.306  -0.143  -0.028
    1UNK    H0P   25  -0.234  -0.298  -0.144
    1UNK    H0Q   26  -0.110  -0.336  -0.027
    1UNK    H0R   27  -0.018  -0.296  -0.255
    1UNK    H0S   28   0.043  -0.177  -0.141
    1UNK    H0T   29  -0.183  -0.133  -0.347
    1UNK    H0U   30  -0.018  -0.072  -0.353
    1UNK    H0V   31  -0.058   0.193  -0.338
    1UNK    H0W   32   0.066   0.113  -0.251
    1UNK    H0X   33  -0.075   0.311  -0.094
    1UNK    H0Y   34  -0.254   0.221  -0.286
    1UNK    H0Z   35  -0.326   0.168  -0.135
    1UNK    H10   36  -0.246   0.042  -0.022
   1.00000   1.00000   1.00000

