
;
; GENERATED BY LigParGen Server
; Jorgensen Lab @ Yale University 
;
[ atomtypes ]
  opls_818  H818     1.0080     0.000    A    2.50000E-01   1.25520E-01
  opls_814  C814    12.0110     0.000    A    3.50000E-01   2.76144E-01
  opls_824  H824     1.0080     0.000    A    2.50000E-01   1.25520E-01
  opls_815  C815    12.0110     0.000    A    3.50000E-01   2.76144E-01
  opls_843  H843     1.0080     0.000    A    2.50000E-01   1.25520E-01
  opls_836  H836     1.0080     0.000    A    2.50000E-01   1.25520E-01
  opls_834  H834     1.0080     0.000    A    2.50000E-01   1.25520E-01
  opls_828  H828     1.0080     0.000    A    2.50000E-01   1.25520E-01
  opls_812  C812    12.0110     0.000    A    3.50000E-01   2.76144E-01
  opls_811  C811    12.0110     0.000    A    3.50000E-01   2.76144E-01
  opls_827  H827     1.0080     0.000    A    2.50000E-01   1.25520E-01
  opls_809  C809    12.0110     0.000    A    3.50000E-01   2.76144E-01
  opls_838  H838     1.0080     0.000    A    2.50000E-01   1.25520E-01
  opls_822  H822     1.0080     0.000    A    2.50000E-01   1.25520E-01
  opls_803  C803    12.0110     0.000    A    3.50000E-01   2.76144E-01
  opls_825  H825     1.0080     0.000    A    2.50000E-01   1.25520E-01
  opls_830  H830     1.0080     0.000    A    2.50000E-01   1.25520E-01
  opls_821  H821     1.0080     0.000    A    2.50000E-01   1.25520E-01
  opls_842  H842     1.0080     0.000    A    2.50000E-01   1.25520E-01
  opls_820  H820     1.0080     0.000    A    2.50000E-01   1.25520E-01
  opls_837  H837     1.0080     0.000    A    2.50000E-01   1.25520E-01
  opls_829  H829     1.0080     0.000    A    2.50000E-01   1.25520E-01
  opls_831  H831     1.0080     0.000    A    2.50000E-01   1.25520E-01
  opls_805  C805    12.0110     0.000    A    3.55000E-01   2.92880E-01
  opls_832  H832     1.0080     0.000    A    2.50000E-01   1.25520E-01
  opls_800  C800    12.0110     0.000    A    3.50000E-01   2.76144E-01
  opls_802  C802    12.0110     0.000    A    3.50000E-01   2.76144E-01
  opls_823  H823     1.0080     0.000    A    2.50000E-01   1.25520E-01
  opls_813  C813    12.0110     0.000    A    3.50000E-01   2.76144E-01
  opls_816  O816    15.9990     0.000    A    2.90000E-01   5.85760E-01
  opls_826  H826     1.0080     0.000    A    2.50000E-01   1.25520E-01
  opls_835  H835     1.0080     0.000    A    2.50000E-01   1.25520E-01
  opls_841  H841     1.0080     0.000    A    2.50000E-01   1.25520E-01
  opls_819  H819     1.0080     0.000    A    2.50000E-01   1.25520E-01
  opls_810  C810    12.0110     0.000    A    3.50000E-01   2.76144E-01
  opls_833  H833     1.0080     0.000    A    2.50000E-01   1.25520E-01
  opls_839  H839     1.0080     0.000    A    2.50000E-01   1.25520E-01
  opls_817  C817    12.0110     0.000    A    3.50000E-01   2.76144E-01
  opls_801  C801    12.0110     0.000    A    3.50000E-01   2.76144E-01
  opls_808  C808    12.0110     0.000    A    3.50000E-01   2.76144E-01
  opls_806  O806    15.9990     0.000    A    2.96000E-01   8.78640E-01
  opls_840  H840     1.0080     0.000    A    2.50000E-01   1.25520E-01
  opls_804  O804    15.9990     0.000    A    2.90000E-01   5.85760E-01
  opls_807  O807    15.9990     0.000    A    2.90000E-01   5.85760E-01
  opls_844  H844     1.0080     0.000    A    2.50000E-01   1.25520E-01
  opls_845  H845     1.0080     0.000    A    2.50000E-01   1.25520E-01
[ moleculetype ]
; Name               nrexcl
UNK                   3
[ atoms ]
;   nr       type  resnr residue  atom   cgnr     charge       mass  
     1   opls_800      1    UNK   C00      1    -0.2327    12.0110 
     2   opls_801      1    UNK   C01      1    -0.2082    12.0110 
     3   opls_802      1    UNK   C02      1     0.0851    12.0110 
     4   opls_803      1    UNK   C03      1    -0.2464    12.0110 
     5   opls_804      1    UNK   O04      1    -0.3288    15.9990 
     6   opls_805      1    UNK   C05      1     0.5759    12.0110 
     7   opls_806      1    UNK   O06      1    -0.5069    15.9990 
     8   opls_807      1    UNK   O07      1    -0.3259    15.9990 
     9   opls_808      1    UNK   C08      1     0.0804    12.0110 
    10   opls_809      1    UNK   C09      1    -0.2747    12.0110 
    11   opls_810      1    UNK   C0A      1    -0.1788    12.0110 
    12   opls_811      1    UNK   C0B      1    -0.1781    12.0110 
    13   opls_812      1    UNK   C0C      1    -0.1034    12.0110 
    14   opls_813      1    UNK   C0D      1    -0.2356    12.0110 
    15   opls_814      1    UNK   C0E      1     0.0768    12.0110 
    16   opls_815      1    UNK   C0F      1    -0.2756    12.0110 
    17   opls_816      1    UNK   O0G      1    -0.3892    15.9990 
    18   opls_817      1    UNK   C0H      1    -0.0472    12.0110 
    19   opls_818      1    UNK   H0I      1     0.0856     1.0080 
    20   opls_819      1    UNK   H0J      1     0.0856     1.0080 
    21   opls_820      1    UNK   H0K      1     0.0856     1.0080 
    22   opls_821      1    UNK   H0M      1     0.1064     1.0080 
    23   opls_822      1    UNK   H0N      1     0.1064     1.0080 
    24   opls_823      1    UNK   H0O      1     0.1244     1.0080 
    25   opls_824      1    UNK   H0P      1     0.1006     1.0080 
    26   opls_825      1    UNK   H0Q      1     0.1006     1.0080 
    27   opls_826      1    UNK   H0R      1     0.1006     1.0080 
    28   opls_827      1    UNK   H0S      1     0.1275     1.0080 
    29   opls_828      1    UNK   H0T      1     0.1007     1.0080 
    30   opls_829      1    UNK   H0U      1     0.1007     1.0080 
    31   opls_830      1    UNK   H0V      1     0.1007     1.0080 
    32   opls_831      1    UNK   H0W      1     0.1068     1.0080 
    33   opls_832      1    UNK   H0X      2     0.1068     1.0080 
    34   opls_833      1    UNK   H0Y      2     0.1063     1.0080 
    35   opls_834      1    UNK   H0Z      2     0.1063     1.0080 
    36   opls_835      1    UNK   H10      2     0.1053     1.0080 
    37   opls_836      1    UNK   H11      2     0.0848     1.0080 
    38   opls_837      1    UNK   H12      2     0.0848     1.0080 
    39   opls_838      1    UNK   H13      2     0.0848     1.0080 
    40   opls_839      1    UNK   H14      2     0.0838     1.0080 
    41   opls_840      1    UNK   H15      2     0.0927     1.0080 
    42   opls_841      1    UNK   H16      2     0.0927     1.0080 
    43   opls_842      1    UNK   H17      2     0.0927     1.0080 
    44   opls_843      1    UNK   H18      2     0.0801     1.0080 
    45   opls_844      1    UNK   H19      2     0.0801     1.0080 
    46   opls_845      1    UNK   H1A      2     0.0801     1.0080 
[ bonds ]
    2     1     1      0.1529 224262.400
    3     2     1      0.1529 224262.400
    4     3     1      0.1529 224262.400
    5     3     1      0.1410 267776.000
    6     5     1      0.1327 179075.200
    7     6     1      0.1229 476976.000
    8     6     1      0.1327 179075.200
    9     8     1      0.1410 267776.000
   10     9     1      0.1529 224262.400
   11     9     1      0.1529 224262.400
   12    11     1      0.1529 224262.400
   13    12     1      0.1529 224262.400
   14    13     1      0.1529 224262.400
   15    13     1      0.1529 224262.400
   16    15     1      0.1529 224262.400
   17    15     1      0.1410 267776.000
   18    17     1      0.1410 267776.000
   19     1     1      0.1090 284512.000
   20     1     1      0.1090 284512.000
   21     1     1      0.1090 284512.000
   22     2     1      0.1090 284512.000
   23     2     1      0.1090 284512.000
   24     3     1      0.1090 284512.000
   25     4     1      0.1090 284512.000
   26     4     1      0.1090 284512.000
   27     4     1      0.1090 284512.000
   28     9     1      0.1090 284512.000
   29    10     1      0.1090 284512.000
   30    10     1      0.1090 284512.000
   31    10     1      0.1090 284512.000
   32    11     1      0.1090 284512.000
   33    11     1      0.1090 284512.000
   34    12     1      0.1090 284512.000
   35    12     1      0.1090 284512.000
   36    13     1      0.1090 284512.000
   37    14     1      0.1090 284512.000
   38    14     1      0.1090 284512.000
   39    14     1      0.1090 284512.000
   40    15     1      0.1090 284512.000
   41    16     1      0.1090 284512.000
   42    16     1      0.1090 284512.000
   43    16     1      0.1090 284512.000
   44    18     1      0.1090 284512.000
   45    18     1      0.1090 284512.000
   46    18     1      0.1090 284512.000

[ angles ]
;  ai    aj    ak funct            c0            c1            c2            c3 
    1     2     3     1    112.700    488.273
    2     3     4     1    112.700    488.273
    2     3     5     1    109.500    418.400
    3     5     6     1    116.900    694.544
    5     6     7     1    123.400    694.544
    5     6     8     1    118.180    584.923
    6     8     9     1    116.900    694.544
    8     9    10     1    109.500    418.400
    8     9    11     1    109.500    418.400
    9    11    12     1    112.700    488.273
   11    12    13     1    112.700    488.273
   12    13    14     1    112.700    488.273
   12    13    15     1    112.700    488.273
   13    15    16     1    112.700    488.273
   13    15    17     1    109.500    418.400
   15    17    18     1    109.500    502.080
    2     1    19     1    110.700    313.800
    2     1    20     1    110.700    313.800
    2     1    21     1    110.700    313.800
    1     2    22     1    110.700    313.800
    1     2    23     1    110.700    313.800
    2     3    24     1    110.700    313.800
    3     4    25     1    110.700    313.800
    3     4    26     1    110.700    313.800
    3     4    27     1    110.700    313.800
    8     9    28     1    109.500    292.880
    9    10    29     1    110.700    313.800
    9    10    30     1    110.700    313.800
    9    10    31     1    110.700    313.800
    9    11    32     1    110.700    313.800
    9    11    33     1    110.700    313.800
   11    12    34     1    110.700    313.800
   11    12    35     1    110.700    313.800
   12    13    36     1    110.700    313.800
   13    14    37     1    110.700    313.800
   13    14    38     1    110.700    313.800
   13    14    39     1    110.700    313.800
   13    15    40     1    110.700    313.800
   15    16    41     1    110.700    313.800
   15    16    42     1    110.700    313.800
   15    16    43     1    110.700    313.800
   17    18    44     1    109.500    292.880
   17    18    45     1    109.500    292.880
   17    18    46     1    109.500    292.880
   41    16    43     1    107.800    276.144
   37    14    39     1    107.800    276.144
   12    11    32     1    110.700    313.800
   10     9    28     1    110.700    313.800
   42    16    43     1    107.800    276.144
   29    10    30     1    107.800    276.144
   30    10    31     1    107.800    276.144
   41    16    42     1    107.800    276.144
   16    15    40     1    110.700    313.800
   45    18    46     1    107.800    276.144
   14    13    15     1    112.700    488.273
   38    14    39     1    107.800    276.144
    3     2    22     1    110.700    313.800
    3     2    23     1    110.700    313.800
    4     3     5     1    109.500    418.400
   37    14    38     1    107.800    276.144
   26     4    27     1    107.800    276.144
    5     3    24     1    109.500    292.880
   22     2    23     1    107.800    276.144
   20     1    21     1    107.800    276.144
   19     1    21     1    107.800    276.144
   44    18    46     1    107.800    276.144
   44    18    45     1    107.800    276.144
    4     3    24     1    110.700    313.800
   34    12    35     1    107.800    276.144
   32    11    33     1    107.800    276.144
   16    15    17     1    109.500    418.400
   13    12    34     1    110.700    313.800
   11     9    28     1    110.700    313.800
   15    13    36     1    110.700    313.800
   25     4    26     1    107.800    276.144
    7     6     8     1    123.400    694.544
   10     9    11     1    112.700    488.273
   13    12    35     1    110.700    313.800
   29    10    31     1    107.800    276.144
   14    13    36     1    110.700    313.800
   17    15    40     1    109.500    292.880
   19     1    20     1    107.800    276.144
   12    11    33     1    110.700    313.800
   25     4    27     1    107.800    276.144

[ dihedrals ]
; IMPROPER DIHEDRAL ANGLES 
;  ai    aj    ak    al funct            c0            c1            c2            c3            c4            c5
     8     6     5     7    4        180.000     43.932     2  

[ dihedrals ]
; PROPER DIHEDRAL ANGLES
;  ai    aj    ak    al funct            c0            c1            c2            c3            c4            c5
    6    5    3    2        3      -2.197   5.201   0.527  -3.531  -0.000   0.000
    6    5    3    4        3      -2.197   5.201   0.527  -3.531  -0.000   0.000
    4    3    2    1        3       2.301  -1.464   0.837  -1.674  -0.000   0.000
   12   11    9   10        3       2.301  -1.464   0.837  -1.674  -0.000   0.000
   15   13   12   11        3       2.301  -1.464   0.837  -1.674  -0.000   0.000
   14   13   12   11        3       2.301  -1.464   0.837  -1.674  -0.000   0.000
   13   12   11    9        3       2.301  -1.464   0.837  -1.674  -0.000   0.000
   16   15   13   12        3       2.301  -1.464   0.837  -1.674  -0.000   0.000
   16   15   13   14        3       2.301  -1.464   0.837  -1.674  -0.000   0.000
   12   11    9    8        3       2.874   0.582   2.092  -5.548  -0.000   0.000
   10    9    8    6        3      -2.197   5.201   0.527  -3.531  -0.000   0.000
   11    9    8    6        3      -2.197   5.201   0.527  -3.531  -0.000   0.000
    9    8    6    7        3      21.439   0.000  -21.439  -0.000  -0.000   0.000
    9    8    6    5        3      31.206  -9.768  -21.439  -0.000  -0.000   0.000
   18   17   15   16        3       1.715   2.845   1.046  -5.607  -0.000   0.000
   18   17   15   13        3       1.715   2.845   1.046  -5.607  -0.000   0.000
   39   14   13   15        3       0.628   1.883   0.000  -2.510  -0.000   0.000
   23    2    3    4        3       0.628   1.883   0.000  -2.510  -0.000   0.000
   28    9   11   12        3       0.628   1.883   0.000  -2.510  -0.000   0.000
   24    3    2    1        3       0.628   1.883   0.000  -2.510  -0.000   0.000
   32   11   12   13        3       0.628   1.883   0.000  -2.510  -0.000   0.000
   36   13   15   16        3       0.628   1.883   0.000  -2.510  -0.000   0.000
   39   14   13   12        3       0.628   1.883   0.000  -2.510  -0.000   0.000
   27    4    3    2        3       0.628   1.883   0.000  -2.510  -0.000   0.000
   26    4    3    2        3       0.628   1.883   0.000  -2.510  -0.000   0.000
   30   10    9   11        3       0.628   1.883   0.000  -2.510  -0.000   0.000
   35   12   13   14        3       0.628   1.883   0.000  -2.510  -0.000   0.000
   34   12   11    9        3       0.628   1.883   0.000  -2.510  -0.000   0.000
   31   10    9   11        3       0.628   1.883   0.000  -2.510  -0.000   0.000
   20    1    2    3        3       0.628   1.883   0.000  -2.510  -0.000   0.000
   35   12   11    9        3       0.628   1.883   0.000  -2.510  -0.000   0.000
   42   16   15   13        3       0.628   1.883   0.000  -2.510  -0.000   0.000
   40   15   13   14        3       0.628   1.883   0.000  -2.510  -0.000   0.000
   38   14   13   15        3       0.628   1.883   0.000  -2.510  -0.000   0.000
   21    1    2    3        3       0.628   1.883   0.000  -2.510  -0.000   0.000
   29   10    9   11        3       0.628   1.883   0.000  -2.510  -0.000   0.000
   36   13   12   11        3       0.628   1.883   0.000  -2.510  -0.000   0.000
   37   14   13   15        3       0.628   1.883   0.000  -2.510  -0.000   0.000
   32   11    9   10        3       0.628   1.883   0.000  -2.510  -0.000   0.000
   34   12   13   14        3       0.628   1.883   0.000  -2.510  -0.000   0.000
   25    4    3    2        3       0.628   1.883   0.000  -2.510  -0.000   0.000
   22    2    3    4        3       0.628   1.883   0.000  -2.510  -0.000   0.000
   34   12   13   15        3       0.628   1.883   0.000  -2.510  -0.000   0.000
   33   11   12   13        3       0.628   1.883   0.000  -2.510  -0.000   0.000
   43   16   15   13        3       0.628   1.883   0.000  -2.510  -0.000   0.000
   19    1    2    3        3       0.628   1.883   0.000  -2.510  -0.000   0.000
   40   15   13   12        3       0.628   1.883   0.000  -2.510  -0.000   0.000
   37   14   13   12        3       0.628   1.883   0.000  -2.510  -0.000   0.000
   38   14   13   12        3       0.628   1.883   0.000  -2.510  -0.000   0.000
   35   12   13   15        3       0.628   1.883   0.000  -2.510  -0.000   0.000
   41   16   15   13        3       0.628   1.883   0.000  -2.510  -0.000   0.000
   33   11    9   10        3       0.628   1.883   0.000  -2.510  -0.000   0.000
   36   13   12   34        3       0.628   1.883   0.000  -2.510  -0.000   0.000
   33   11    9   28        3       0.628   1.883   0.000  -2.510  -0.000   0.000
   22    2    1   21        3       0.628   1.883   0.000  -2.510  -0.000   0.000
   37   14   13   36        3       0.628   1.883   0.000  -2.510  -0.000   0.000
   27    4    3   24        3       0.628   1.883   0.000  -2.510  -0.000   0.000
   42   16   15   40        3       0.628   1.883   0.000  -2.510  -0.000   0.000
   23    2    1   20        3       0.628   1.883   0.000  -2.510  -0.000   0.000
   31   10    9   28        3       0.628   1.883   0.000  -2.510  -0.000   0.000
   29   10    9   28        3       0.628   1.883   0.000  -2.510  -0.000   0.000
   38   14   13   36        3       0.628   1.883   0.000  -2.510  -0.000   0.000
   24    3    2   23        3       0.628   1.883   0.000  -2.510  -0.000   0.000
   39   14   13   36        3       0.628   1.883   0.000  -2.510  -0.000   0.000
   22    2    1   19        3       0.628   1.883   0.000  -2.510  -0.000   0.000
   43   16   15   40        3       0.628   1.883   0.000  -2.510  -0.000   0.000
   32   11    9   28        3       0.628   1.883   0.000  -2.510  -0.000   0.000
   34   12   11   33        3       0.628   1.883   0.000  -2.510  -0.000   0.000
   41   16   15   40        3       0.628   1.883   0.000  -2.510  -0.000   0.000
   24    3    2   22        3       0.628   1.883   0.000  -2.510  -0.000   0.000
   30   10    9   28        3       0.628   1.883   0.000  -2.510  -0.000   0.000
   35   12   11   33        3       0.628   1.883   0.000  -2.510  -0.000   0.000
   23    2    1   19        3       0.628   1.883   0.000  -2.510  -0.000   0.000
   35   12   11   32        3       0.628   1.883   0.000  -2.510  -0.000   0.000
   26    4    3   24        3       0.628   1.883   0.000  -2.510  -0.000   0.000
   36   13   12   35        3       0.628   1.883   0.000  -2.510  -0.000   0.000
   34   12   11   32        3       0.628   1.883   0.000  -2.510  -0.000   0.000
   40   15   13   36        3       0.628   1.883   0.000  -2.510  -0.000   0.000
   25    4    3   24        3       0.628   1.883   0.000  -2.510  -0.000   0.000
   22    2    1   20        3       0.628   1.883   0.000  -2.510  -0.000   0.000
   23    2    1   21        3       0.628   1.883   0.000  -2.510  -0.000   0.000
   31   10    9    8        3       0.979   2.937   0.000  -3.916  -0.000   0.000
   30   10    9    8        3       0.979   2.937   0.000  -3.916  -0.000   0.000
   29   10    9    8        3       0.979   2.937   0.000  -3.916  -0.000   0.000
   27    4    3    5        3       0.979   2.937   0.000  -3.916  -0.000   0.000
   23    2    3    5        3       0.979   2.937   0.000  -3.916  -0.000   0.000
   26    4    3    5        3       0.979   2.937   0.000  -3.916  -0.000   0.000
   41   16   15   17        3       0.979   2.937   0.000  -3.916  -0.000   0.000
   43   16   15   17        3       0.979   2.937   0.000  -3.916  -0.000   0.000
   33   11    9    8        3       0.979   2.937   0.000  -3.916  -0.000   0.000
   42   16   15   17        3       0.979   2.937   0.000  -3.916  -0.000   0.000
   22    2    3    5        3       0.979   2.937   0.000  -3.916  -0.000   0.000
   32   11    9    8        3       0.979   2.937   0.000  -3.916  -0.000   0.000
   36   13   15   17        3       0.979   2.937   0.000  -3.916  -0.000   0.000
   25    4    3    5        3       0.979   2.937   0.000  -3.916  -0.000   0.000
   28    9    8    6        3       0.414   1.243   0.000  -1.657  -0.000   0.000
   24    3    5    6        3       0.414   1.243   0.000  -1.657  -0.000   0.000
   44   18   17   15        3       1.590   4.770   0.000  -6.360  -0.000   0.000
   46   18   17   15        3       1.590   4.770   0.000  -6.360  -0.000   0.000
   40   15   17   18        3       1.590   4.770   0.000  -6.360  -0.000   0.000
   45   18   17   15        3       1.590   4.770   0.000  -6.360  -0.000   0.000
    7    6    5    3        3      21.439   0.000  -21.439  -0.000  -0.000   0.000
    8    6    5    3        3      31.206  -9.768  -21.439  -0.000  -0.000   0.000
   17   15   13   14        3       2.874   0.582   2.092  -5.548  -0.000   0.000
   17   15   13   12        3       2.874   0.582   2.092  -5.548  -0.000   0.000
    5    3    2    1        3       2.874   0.582   2.092  -5.548  -0.000   0.000

[ pairs ]
     1     4    1
     1     5    1
     2     6    1
     4     6    1
     3     7    1
     3     8    1
     5     9    1
     7     9    1
     6    10    1
     6    11    1
     8    12    1
    10    12    1
     9    13    1
     3    19    1
     3    20    1
     3    21    1
    11    14    1
     1    24    1
    11    15    1
     4    22    1
     5    22    1
     4    23    1
     2    25    1
    12    16    1
     5    23    1
     2    26    1
    12    17    1
     2    27    1
    14    16    1
     6    24    1
     5    25    1
    14    17    1
    13    18    1
     5    26    1
     5    27    1
    16    18    1
     6    28    1
     8    29    1
     8    30    1
     8    31    1
    12    28    1
    11    29    1
     8    32    1
    19    22    1
    11    30    1
     8    33    1
    20    22    1
    19    23    1
    11    31    1
    10    32    1
    21    22    1
    20    23    1
    10    33    1
     9    34    1
    21    23    1
     9    35    1
    13    32    1
    22    24    1
    13    33    1
    23    24    1
    11    36    1
    14    34    1
    24    25    1
    15    34    1
    14    35    1
    12    37    1
    24    26    1
    15    35    1
    12    38    1
    24    27    1
    12    39    1
    16    36    1
    15    37    1
    12    40    1
    17    36    1
    15    38    1
    15    39    1
    14    40    1
    13    41    1
    13    42    1
    13    43    1
    28    29    1
    28    30    1
    18    40    1
    17    41    1
    28    31    1
    17    42    1
    15    44    1
    28    32    1
    17    43    1
    15    45    1
    28    33    1
    15    46    1
    32    34    1
    33    34    1
    32    35    1
    33    35    1
    34    36    1
    35    36    1
    36    37    1
    36    38    1
    36    39    1
    36    40    1
    40    41    1
    40    42    1
    40    43    1

