LIGPARGEN GENERATED GRO FILE
   46
    1UNK    C00    1   0.100   0.100   0.000
    1UNK    C01    2  -0.052   0.100   0.000
    1UNK    C02    3  -0.114   0.100   0.141
    1UNK    C03    4  -0.078   0.226   0.220
    1UNK    O04    5  -0.258   0.097   0.130
    1UNK    C05    6  -0.312  -0.026   0.110
    1UNK    O06    7  -0.249  -0.131   0.101
    1UNK    O07    8  -0.447  -0.013   0.102
    1UNK    C08    9  -0.520  -0.135   0.081
    1UNK    C09   10  -0.536  -0.207   0.215
    1UNK    C0A   11  -0.657  -0.100   0.022
    1UNK    C0B   12  -0.643  -0.030  -0.114
    1UNK    C0C   13  -0.777   0.009  -0.182
    1UNK    C0D   14  -0.862   0.101  -0.094
    1UNK    C0E   15  -0.753   0.071  -0.323
    1UNK    C0F   16  -0.672   0.201  -0.319
    1UNK    O0G   17  -0.688  -0.029  -0.403
    1UNK    C0H   18  -0.667   0.008  -0.538
    1UNK    H0I   19   0.138   0.090  -0.102
    1UNK    H0J   20   0.139   0.017   0.059
    1UNK    H0K   21   0.140   0.193   0.040
    1UNK    H0M   22  -0.087   0.012  -0.055
    1UNK    H0N   23  -0.089   0.186  -0.057
    1UNK    H0O   24  -0.079   0.013   0.198
    1UNK    H0P   25  -0.108   0.316   0.165
    1UNK    H0Q   26   0.029   0.231   0.241
    1UNK    H0R   27  -0.132   0.227   0.315
    1UNK    H0S   28  -0.466  -0.200   0.011
    1UNK    H0T   29  -0.592  -0.145   0.286
    1UNK    H0U   30  -0.438  -0.227   0.262
    1UNK    H0V   31  -0.588  -0.302   0.203
    1UNK    H0W   32  -0.710  -0.035   0.092
    1UNK    H0X   33  -0.717  -0.192   0.010
    1UNK    H0Y   34  -0.587  -0.097  -0.181
    1UNK    H0Z   35  -0.582   0.060  -0.101
    1UNK    H10   36  -0.833  -0.085  -0.196
    1UNK    H11   37  -0.807   0.191  -0.064
    1UNK    H12   38  -0.894   0.050  -0.002
    1UNK    H13   39  -0.953   0.132  -0.147
    1UNK    H14   40  -0.852   0.091  -0.367
    1UNK    H15   41  -0.569   0.182  -0.288
    1UNK    H16   42  -0.718   0.275  -0.253
    1UNK    H17   43  -0.667   0.246  -0.418
    1UNK    H18   44  -0.639  -0.082  -0.594
    1UNK    H19   45  -0.584   0.078  -0.545
    1UNK    H1A   46  -0.757   0.051  -0.582
   1.00000   1.00000   1.00000

