LIGPARGEN GENERATED GRO FILE
   58
    1UNK    C00    1   0.100   0.100   0.000
    1UNK    C01    2  -0.053   0.100   0.000
    1UNK    C02    3  -0.107   0.100   0.143
    1UNK    C03    4  -0.260   0.100   0.150
    1UNK    C04    5  -0.304   0.115   0.297
    1UNK    C05    6  -0.456   0.100   0.319
    1UNK    C06    7  -0.518   0.113   0.466
    1UNK    C07    8  -0.476  -0.014   0.553
    1UNK    C08    9  -0.331  -0.062   0.564
    1UNK    C09   10  -0.482   0.254   0.545
    1UNK    C0A   11  -0.335   0.258   0.594
    1UNK    C0B   12  -0.532   0.400   0.489
    1UNK    C0C   13  -0.466   0.514   0.572
    1UNK    C0D   14  -0.494   0.422   0.343
    1UNK    C0E   15  -0.687   0.419   0.505
    1UNK    C0F   16  -0.745   0.555   0.466
    1UNK    N0G   17  -0.671   0.106   0.451
    1UNK    C0H   18  -0.725  -0.004   0.368
    1UNK    C0I   19  -0.748   0.104   0.577
    1UNK    H0J   20   0.138   0.100  -0.102
    1UNK    H0K   21   0.140   0.012   0.051
    1UNK    H0M   22   0.139   0.189   0.051
    1UNK    H0N   23  -0.089   0.012  -0.054
    1UNK    H0O   24  -0.088   0.189  -0.053
    1UNK    H0P   25  -0.068   0.188   0.196
    1UNK    H0Q   26  -0.069   0.012   0.196
    1UNK    H0R   27  -0.299   0.007   0.106
    1UNK    H0S   28  -0.301   0.183   0.091
    1UNK    H0T   29  -0.269   0.212   0.328
    1UNK    H0U   30  -0.250   0.039   0.353
    1UNK    H0V   31  -0.480   0.001   0.281
    1UNK    H0W   32  -0.506   0.171   0.252
    1UNK    H0X   33  -0.530  -0.102   0.515
    1UNK    H0Y   34  -0.511   0.001   0.655
    1UNK    H0Z   35  -0.303  -0.124   0.479
    1UNK    H10   36  -0.323  -0.126   0.653
    1UNK    H11   37  -0.257   0.017   0.576
    1UNK    H12   38  -0.535   0.245   0.641
    1UNK    H13   39  -0.261   0.243   0.515
    1UNK    H14   40  -0.319   0.184   0.672
    1UNK    H15   41  -0.306   0.351   0.643
    1UNK    H16   42  -0.360   0.524   0.550
    1UNK    H17   43  -0.480   0.497   0.680
    1UNK    H18   44  -0.509   0.612   0.550
    1UNK    H19   45  -0.393   0.387   0.321
    1UNK    H1A   46  -0.493   0.529   0.318
    1UNK    H1B   47  -0.565   0.375   0.275
    1UNK    H1C   48  -0.714   0.403   0.610
    1UNK    H1D   49  -0.739   0.346   0.444
    1UNK    H1E   50  -0.722   0.632   0.541
    1UNK    H1F   51  -0.854   0.548   0.462
    1UNK    H1G   52  -0.710   0.589   0.369
    1UNK    H1H   53  -0.680  -0.011   0.269
    1UNK    H1I   54  -0.831   0.014   0.349
    1UNK    H1J   55  -0.717  -0.101   0.417
    1UNK    H1K   56  -0.742   0.199   0.631
    1UNK    H1M   57  -0.718   0.025   0.646
    1UNK    H1N   58  -0.855   0.091   0.557
   1.00000   1.00000   1.00000

