LIGPARGEN GENERATED GRO FILE
   27
    1UNK    C00    1   0.100   0.100   0.000
    1UNK    C01    2  -0.051   0.100   0.000
    1UNK    O02    3  -0.114   0.100   0.105
    1UNK    C03    4  -0.117   0.100  -0.136
    1UNK    C04    5  -0.270   0.100  -0.128
    1UNK    C05    6  -0.335   0.100  -0.266
    1UNK    C06    7  -0.303  -0.022  -0.351
    1UNK    C07    8  -0.421  -0.026  -0.445
    1UNK    C08    9  -0.535   0.017  -0.354
    1UNK    C09   10  -0.644   0.092  -0.427
    1UNK    O0A   11  -0.478   0.101  -0.252
    1UNK    H0B   12   0.137   0.100   0.103
    1UNK    H0C   13   0.137   0.190  -0.051
    1UNK    H0D   14   0.137   0.010  -0.051
    1UNK    H0E   15  -0.082   0.011  -0.189
    1UNK    H0F   16  -0.083   0.189  -0.191
    1UNK    H0G   17  -0.304   0.188  -0.072
    1UNK    H0H   18  -0.304   0.013  -0.070
    1UNK    H0I   19  -0.307   0.191  -0.320
    1UNK    H0J   20  -0.301  -0.113  -0.290
    1UNK    H0K   21  -0.207  -0.014  -0.403
    1UNK    H0M   22  -0.437  -0.124  -0.490
    1UNK    H0N   23  -0.405   0.047  -0.526
    1UNK    H0O   24  -0.578  -0.071  -0.303
    1UNK    H0P   25  -0.605   0.186  -0.470
    1UNK    H0Q   26  -0.724   0.121  -0.358
    1UNK    H0R   27  -0.686   0.032  -0.508
   1.00000   1.00000   1.00000

