LIGPARGEN GENERATED GRO FILE
   37
    1UNK    C00    1   0.100   0.100   0.000
    1UNK    C01    2  -0.052   0.100   0.000
    1UNK    C02    3  -0.114   0.100   0.141
    1UNK    C03    4  -0.072   0.223   0.222
    1UNK    C04    5  -0.268   0.096   0.134
    1UNK    C05    6  -0.323  -0.032   0.076
    1UNK    C06    7  -0.472  -0.043   0.066
    1UNK    C07    8  -0.390  -0.036  -0.060
    1UNK    C08    9  -0.384  -0.160  -0.147
    1UNK    C09   10  -0.521  -0.200  -0.200
    1UNK    C0A   11  -0.488  -0.292  -0.316
    1UNK    C0B   12  -0.369  -0.224  -0.383
    1UNK    C0C   13  -0.300  -0.141  -0.274
    1UNK    H0D   14   0.137   0.089  -0.102
    1UNK    H0E   15   0.139   0.017   0.060
    1UNK    H0F   16   0.140   0.194   0.039
    1UNK    H0G   17  -0.086   0.011  -0.054
    1UNK    H0H   18  -0.088   0.187  -0.057
    1UNK    H0I   19  -0.079   0.011   0.194
    1UNK    H0J   20  -0.100   0.316   0.171
    1UNK    H0K   21   0.036   0.225   0.240
    1UNK    H0M   22  -0.120   0.223   0.321
    1UNK    H0N   23  -0.306   0.183   0.079
    1UNK    H0O   24  -0.308   0.104   0.236
    1UNK    H0P   25  -0.270  -0.120   0.111
    1UNK    H0Q   26  -0.533   0.044   0.089
    1UNK    H0R   27  -0.517  -0.137   0.095
    1UNK    H0S   28  -0.397   0.055  -0.118
    1UNK    H0T   29  -0.342  -0.244  -0.090
    1UNK    H0U   30  -0.577  -0.113  -0.235
    1UNK    H0V   31  -0.582  -0.251  -0.124
    1UNK    H0W   32  -0.572  -0.305  -0.385
    1UNK    H0X   33  -0.459  -0.391  -0.279
    1UNK    H0Y   34  -0.403  -0.159  -0.464
    1UNK    H0Z   35  -0.301  -0.298  -0.427
    1UNK    H10   36  -0.296  -0.036  -0.306
    1UNK    H11   37  -0.197  -0.174  -0.259
   1.00000   1.00000   1.00000

