LIGPARGEN GENERATED GRO FILE
   55
    1UNK    C00    1   0.100   0.100   0.000
    1UNK    C01    2  -0.052   0.100   0.000
    1UNK    C02    3  -0.108   0.100   0.142
    1UNK    C03    4  -0.262   0.109   0.145
    1UNK    C04    5  -0.330  -0.014   0.082
    1UNK    C05    6  -0.326  -0.137   0.172
    1UNK    C06    7  -0.382  -0.113   0.312
    1UNK    C07    8  -0.538  -0.122   0.327
    1UNK    C08    9  -0.620  -0.017   0.251
    1UNK    C09   10  -0.595  -0.261   0.288
    1UNK    C0A   11  -0.542  -0.375   0.375
    1UNK    C0B   12  -0.590  -0.515   0.331
    1UNK    C0C   13  -0.547  -0.553   0.189
    1UNK    C0D   14  -0.396  -0.570   0.175
    1UNK    C0E   15  -0.339  -0.669   0.277
    1UNK    Cl0   16  -0.382  -0.837   0.231
    1UNK    C0G   17  -0.387  -0.641   0.420
    1UNK    C0H   18  -0.538  -0.621   0.430
    1UNK    C0I   19  -0.318   0.012   0.376
    1UNK    C0J   20  -0.314   0.136   0.287
    1UNK    H0K   21   0.138   0.109  -0.103
    1UNK    H0M   22   0.139   0.006   0.042
    1UNK    H0N   23   0.140   0.183   0.059
    1UNK    H0O   24  -0.085   0.012  -0.055
    1UNK    H0P   25  -0.088   0.188  -0.054
    1UNK    H0Q   26  -0.067   0.187   0.196
    1UNK    H0R   27  -0.074   0.011   0.196
    1UNK    H0S   28  -0.290   0.197   0.084
    1UNK    H0T   29  -0.285  -0.039  -0.014
    1UNK    H0U   30  -0.433   0.012   0.058
    1UNK    H0V   31  -0.222  -0.169   0.181
    1UNK    H0W   32  -0.377  -0.220   0.122
    1UNK    H0X   33  -0.343  -0.195   0.374
    1UNK    H0Y   34  -0.560  -0.108   0.434
    1UNK    H0Z   35  -0.612  -0.030   0.143
    1UNK    H10   36  -0.592   0.085   0.278
    1UNK    H11   37  -0.726  -0.027   0.276
    1UNK    H12   38  -0.573  -0.279   0.182
    1UNK    H13   39  -0.704  -0.259   0.297
    1UNK    H14   40  -0.575  -0.357   0.478
    1UNK    H15   41  -0.433  -0.373   0.376
    1UNK    H16   42  -0.700  -0.515   0.335
    1UNK    H17   43  -0.583  -0.479   0.116
    1UNK    H18   44  -0.597  -0.647   0.161
    1UNK    H19   45  -0.348  -0.473   0.189
    1UNK    H1A   46  -0.371  -0.602   0.073
    1UNK    H1B   47  -0.229  -0.665   0.274
    1UNK    H1C   48  -0.336  -0.551   0.457
    1UNK    H1D   49  -0.356  -0.721   0.488
    1UNK    H1E   50  -0.564  -0.592   0.533
    1UNK    H1F   51  -0.589  -0.716   0.411
    1UNK    H1G   52  -0.215  -0.013   0.402
    1UNK    H1H   53  -0.368   0.036   0.471
    1UNK    H1I   54  -0.253   0.212   0.336
    1UNK    H1J   55  -0.414   0.179   0.280
   1.00000   1.00000   1.00000

