
;
; GENERATED BY LigParGen Server
; Jorgensen Lab @ Yale University 
;
[ atomtypes ]
  opls_814  C814    12.0110     0.000    A    3.50000E-01   2.76144E-01
  opls_824  H824     1.0080     0.000    A    2.50000E-01   1.25520E-01
  opls_804  C804    12.0110     0.000    A    3.50000E-01   2.76144E-01
  opls_818  C818    12.0110     0.000    A    3.50000E-01   2.76144E-01
  opls_848  H848     1.0080     0.000    A    2.50000E-01   1.25520E-01
  opls_843  H843     1.0080     0.000    A    2.50000E-01   1.25520E-01
  opls_836  H836     1.0080     0.000    A    2.50000E-01   1.25520E-01
  opls_834  H834     1.0080     0.000    A    2.50000E-01   1.25520E-01
  opls_810  C810    12.0110     0.000    A    3.50000E-01   2.76144E-01
  opls_828  H828     1.0080     0.000    A    2.50000E-01   1.25520E-01
  opls_851  H851     1.0080     0.000    A    2.50000E-01   1.25520E-01
  opls_812  C812    12.0110     0.000    A    3.50000E-01   2.76144E-01
  opls_802  C802    12.0110     0.000    A    3.50000E-01   2.76144E-01
  opls_827  H827     1.0080     0.000    A    2.50000E-01   1.25520E-01
  opls_809  C809    12.0110     0.000    A    3.50000E-01   2.76144E-01
  opls_806  C806    12.0110     0.000    A    3.50000E-01   2.76144E-01
  opls_822  H822     1.0080     0.000    A    2.50000E-01   1.25520E-01
  opls_803  C803    12.0110     0.000    A    3.50000E-01   2.76144E-01
  opls_838  H838     1.0080     0.000    A    2.50000E-01   1.25520E-01
  opls_830  H830     1.0080     0.000    A    2.50000E-01   1.25520E-01
  opls_821  H821     1.0080     0.000    A    2.50000E-01   1.25520E-01
  opls_842  H842     1.0080     0.000    A    2.50000E-01   1.25520E-01
  opls_820  H820     1.0080     0.000    A    2.50000E-01   1.25520E-01
  opls_837  H837     1.0080     0.000    A    2.50000E-01   1.25520E-01
  opls_829  H829     1.0080     0.000    A    2.50000E-01   1.25520E-01
  opls_831  H831     1.0080     0.000    A    2.50000E-01   1.25520E-01
  opls_853  H853     1.0080     0.000    A    2.50000E-01   1.25520E-01
  opls_832  H832     1.0080     0.000    A    2.50000E-01   1.25520E-01
  opls_800  C800    12.0110     0.000    A    3.50000E-01   2.76144E-01
  opls_805  C805    12.0110     0.000    A    3.50000E-01   2.76144E-01
  opls_846  H846     1.0080     0.000    A    2.50000E-01   1.25520E-01
  opls_811  C811    12.0110     0.000    A    3.50000E-01   2.76144E-01
  opls_823  H823     1.0080     0.000    A    2.50000E-01   1.25520E-01
  opls_819  C819    12.0110     0.000    A    3.50000E-01   2.76144E-01
  opls_826  H826     1.0080     0.000    A    2.50000E-01   1.25520E-01
  opls_835  H835     1.0080     0.000    A    2.50000E-01   1.25520E-01
  opls_841  H841     1.0080     0.000    A    2.50000E-01   1.25520E-01
  opls_847  H847     1.0080     0.000    A    2.50000E-01   1.25520E-01
  opls_825  H825     1.0080     0.000    A    2.50000E-01   1.25520E-01
  opls_816  C816    12.0110     0.000    A    3.50000E-01   2.76144E-01
  opls_833  H833     1.0080     0.000    A    2.50000E-01   1.25520E-01
  opls_839  H839     1.0080     0.000    A    2.50000E-01   1.25520E-01
  opls_817  C817    12.0110     0.000    A    3.50000E-01   2.76144E-01
  opls_852  H852     1.0080     0.000    A    2.50000E-01   1.25520E-01
  opls_801  C801    12.0110     0.000    A    3.50000E-01   2.76144E-01
  opls_808  C808    12.0110     0.000    A    3.50000E-01   2.76144E-01
  opls_850  H850     1.0080     0.000    A    2.50000E-01   1.25520E-01
  opls_840  H840     1.0080     0.000    A    2.50000E-01   1.25520E-01
  opls_849  H849     1.0080     0.000    A    2.50000E-01   1.25520E-01
  opls_813  C813    12.0110     0.000    A    3.50000E-01   2.76144E-01
  opls_815 Cl815    35.4500     0.000    A    3.40000E-01   1.25520E+00
  opls_844  H844     1.0080     0.000    A    2.50000E-01   1.25520E-01
  opls_845  H845     1.0080     0.000    A    2.50000E-01   1.25520E-01
  opls_854  H854     1.0080     0.000    A    2.50000E-01   1.25520E-01
  opls_807  C807    12.0110     0.000    A    3.50000E-01   2.76144E-01
[ moleculetype ]
; Name               nrexcl
UNK                   3
[ atoms ]
;   nr       type  resnr residue  atom   cgnr     charge       mass  
     1   opls_800      1    UNK   C00      1    -0.2396    12.0110 
     2   opls_801      1    UNK   C01      1    -0.1804    12.0110 
     3   opls_802      1    UNK   C02      1    -0.1725    12.0110 
     4   opls_803      1    UNK   C03      1    -0.1058    12.0110 
     5   opls_804      1    UNK   C04      1     -0.168    12.0110 
     6   opls_805      1    UNK   C05      1    -0.1635    12.0110 
     7   opls_806      1    UNK   C06      1    -0.0976    12.0110 
     8   opls_807      1    UNK   C07      1    -0.1003    12.0110 
     9   opls_808      1    UNK   C08      1    -0.2328    12.0110 
    10   opls_809      1    UNK   C09      1     -0.178    12.0110 
    11   opls_810      1    UNK   C0A      1    -0.1776    12.0110 
    12   opls_811      1    UNK   C0B      1    -0.1112    12.0110 
    13   opls_812      1    UNK   C0C      1    -0.1715    12.0110 
    14   opls_813      1    UNK   C0D      1    -0.1805    12.0110 
    15   opls_814      1    UNK   C0E      1      0.094    12.0110 
    16   opls_815      1    UNK   Cl0      1    -0.3042    35.4500 
    17   opls_816      1    UNK   C0G      1    -0.1794    12.0110 
    18   opls_817      1    UNK   C0H      1    -0.1734    12.0110 
    19   opls_818      1    UNK   C0I      1    -0.1654    12.0110 
    20   opls_819      1    UNK   C0J      1    -0.1679    12.0110 
    21   opls_820      1    UNK   H0K      1     0.0804     1.0080 
    22   opls_821      1    UNK   H0M      1     0.0804     1.0080 
    23   opls_822      1    UNK   H0N      1     0.0804     1.0080 
    24   opls_823      1    UNK   H0O      1      0.088     1.0080 
    25   opls_824      1    UNK   H0P      1      0.088     1.0080 
    26   opls_825      1    UNK   H0Q      1     0.0892     1.0080 
    27   opls_826      1    UNK   H0R      1     0.0892     1.0080 
    28   opls_827      1    UNK   H0S      1     0.0919     1.0080 
    29   opls_828      1    UNK   H0T      1     0.0874     1.0080 
    30   opls_829      1    UNK   H0U      1     0.0874     1.0080 
    31   opls_830      1    UNK   H0V      1     0.0859     1.0080 
    32   opls_831      1    UNK   H0W      1     0.0859     1.0080 
    33   opls_832      1    UNK   H0X      2     0.0839     1.0080 
    34   opls_833      1    UNK   H0Y      2      0.091     1.0080 
    35   opls_834      1    UNK   H0Z      2     0.0811     1.0080 
    36   opls_835      1    UNK   H10      2     0.0811     1.0080 
    37   opls_836      1    UNK   H11      2     0.0811     1.0080 
    38   opls_837      1    UNK   H12      2     0.0902     1.0080 
    39   opls_838      1    UNK   H13      2     0.0902     1.0080 
    40   opls_839      1    UNK   H14      2     0.0885     1.0080 
    41   opls_840      1    UNK   H15      2     0.0885     1.0080 
    42   opls_841      1    UNK   H16      2     0.1006     1.0080 
    43   opls_842      1    UNK   H17      2     0.0978     1.0080 
    44   opls_843      1    UNK   H18      2     0.0978     1.0080 
    45   opls_844      1    UNK   H19      2     0.1035     1.0080 
    46   opls_845      1    UNK   H1A      2     0.1035     1.0080 
    47   opls_846      1    UNK   H1B      2     0.1206     1.0080 
    48   opls_847      1    UNK   H1C      2     0.1021     1.0080 
    49   opls_848      1    UNK   H1D      2     0.1021     1.0080 
    50   opls_849      1    UNK   H1E      2     0.0974     1.0080 
    51   opls_850      1    UNK   H1F      2     0.0974     1.0080 
    52   opls_851      1    UNK   H1G      2     0.0854     1.0080 
    53   opls_852      1    UNK   H1H      2     0.0854     1.0080 
    54   opls_853      1    UNK   H1I      2      0.086     1.0080 
    55   opls_854      1    UNK   H1J      2      0.086     1.0080 
[ bonds ]
    2     1     1      0.1529 224262.400
    3     2     1      0.1529 224262.400
    4     3     1      0.1529 224262.400
    5     4     1      0.1529 224262.400
    6     5     1      0.1529 224262.400
    7     6     1      0.1529 224262.400
    8     7     1      0.1529 224262.400
    9     8     1      0.1529 224262.400
   10     8     1      0.1529 224262.400
   11    10     1      0.1529 224262.400
   12    11     1      0.1529 224262.400
   13    12     1      0.1529 224262.400
   14    13     1      0.1529 224262.400
   15    14     1      0.1529 224262.400
   16    15     1      0.1781 205016.000
   17    15     1      0.1529 224262.400
   18    12     1      0.1529 224262.400
   19     7     1      0.1529 224262.400
   20     4     1      0.1529 224262.400
   21     1     1      0.1090 284512.000
   22     1     1      0.1090 284512.000
   23     1     1      0.1090 284512.000
   24     2     1      0.1090 284512.000
   25     2     1      0.1090 284512.000
   26     3     1      0.1090 284512.000
   27     3     1      0.1090 284512.000
   28     4     1      0.1090 284512.000
   29     5     1      0.1090 284512.000
   30     5     1      0.1090 284512.000
   31     6     1      0.1090 284512.000
   32     6     1      0.1090 284512.000
   33     7     1      0.1090 284512.000
   34     8     1      0.1090 284512.000
   35     9     1      0.1090 284512.000
   36     9     1      0.1090 284512.000
   37     9     1      0.1090 284512.000
   38    10     1      0.1090 284512.000
   39    10     1      0.1090 284512.000
   40    11     1      0.1090 284512.000
   41    11     1      0.1090 284512.000
   42    12     1      0.1090 284512.000
   43    13     1      0.1090 284512.000
   44    13     1      0.1090 284512.000
   45    14     1      0.1090 284512.000
   46    14     1      0.1090 284512.000
   47    15     1      0.1090 284512.000
   48    17     1      0.1090 284512.000
   49    17     1      0.1090 284512.000
   50    18     1      0.1090 284512.000
   51    18     1      0.1090 284512.000
   52    19     1      0.1090 284512.000
   53    19     1      0.1090 284512.000
   54    20     1      0.1090 284512.000
   55    20     1      0.1090 284512.000
   18    17     1      0.1529 224262.400
   20    19     1      0.1529 224262.400

[ angles ]
;  ai    aj    ak funct            c0            c1            c2            c3 
    1     2     3     1    112.700    488.273
    2     3     4     1    112.700    488.273
    3     4     5     1    112.700    488.273
    4     5     6     1    112.700    488.273
    5     6     7     1    112.700    488.273
    6     7     8     1    112.700    488.273
    7     8     9     1    112.700    488.273
    7     8    10     1    112.700    488.273
    8    10    11     1    112.700    488.273
   10    11    12     1    112.700    488.273
   11    12    13     1    112.700    488.273
   12    13    14     1    112.700    488.273
   13    14    15     1    112.700    488.273
   14    15    16     1    109.800    577.392
   14    15    17     1    112.700    488.273
   11    12    18     1    112.700    488.273
    6     7    19     1    112.700    488.273
    3     4    20     1    112.700    488.273
    2     1    21     1    110.700    313.800
    2     1    22     1    110.700    313.800
    2     1    23     1    110.700    313.800
    1     2    24     1    110.700    313.800
    1     2    25     1    110.700    313.800
    2     3    26     1    110.700    313.800
    2     3    27     1    110.700    313.800
    3     4    28     1    110.700    313.800
    4     5    29     1    110.700    313.800
    4     5    30     1    110.700    313.800
    5     6    31     1    110.700    313.800
    5     6    32     1    110.700    313.800
    6     7    33     1    110.700    313.800
    7     8    34     1    110.700    313.800
    8     9    35     1    110.700    313.800
    8     9    36     1    110.700    313.800
    8     9    37     1    110.700    313.800
    8    10    38     1    110.700    313.800
    8    10    39     1    110.700    313.800
   10    11    40     1    110.700    313.800
   10    11    41     1    110.700    313.800
   11    12    42     1    110.700    313.800
   12    13    43     1    110.700    313.800
   12    13    44     1    110.700    313.800
   13    14    45     1    110.700    313.800
   13    14    46     1    110.700    313.800
   14    15    47     1    110.700    313.800
   15    17    48     1    110.700    313.800
   15    17    49     1    110.700    313.800
   12    18    50     1    110.700    313.800
   12    18    51     1    110.700    313.800
    7    19    52     1    110.700    313.800
    7    19    53     1    110.700    313.800
    4    20    54     1    110.700    313.800
    4    20    55     1    110.700    313.800
   11    10    38     1    110.700    313.800
   19    20    54     1    110.700    313.800
   35     9    37     1    107.800    276.144
   16    15    17     1    109.800    577.392
   18    17    48     1    110.700    313.800
    7     6    32     1    110.700    313.800
   31     6    32     1    107.800    276.144
   48    17    49     1    107.800    276.144
    7     6    31     1    110.700    313.800
    6     5    30     1    110.700    313.800
    3     2    25     1    110.700    313.800
   52    19    53     1    107.800    276.144
    5     4    28     1    110.700    313.800
   20     4    28     1    110.700    313.800
   35     9    36     1    107.800    276.144
   18    12    42     1    110.700    313.800
    9     8    34     1    110.700    313.800
    8     7    19     1    112.700    488.273
   15    14    46     1    110.700    313.800
   17    18    50     1    110.700    313.800
    8     7    33     1    110.700    313.800
   45    14    46     1    107.800    276.144
   38    10    39     1    107.800    276.144
    9     8    10     1    112.700    488.273
   13    12    42     1    110.700    313.800
   18    17    49     1    110.700    313.800
    7    19    20     1    112.700    488.273
   19     7    33     1    110.700    313.800
   10     8    34     1    110.700    313.800
   29     5    30     1    107.800    276.144
   50    18    51     1    107.800    276.144
   17    18    51     1    110.700    313.800
   19    20    55     1    110.700    313.800
   54    20    55     1    107.800    276.144
   16    15    47     1    107.600    426.768
   17    15    47     1    110.700    313.800
    4     3    27     1    110.700    313.800
   21     1    23     1    107.800    276.144
   43    13    44     1    107.800    276.144
   12    18    17     1    112.700    488.273
    4    20    19     1    112.700    488.273
   20    19    52     1    110.700    313.800
    5     4    20     1    112.700    488.273
    4     3    26     1    110.700    313.800
   36     9    37     1    107.800    276.144
   15    14    45     1    110.700    313.800
   14    13    43     1    110.700    313.800
   26     3    27     1    107.800    276.144
   11    10    39     1    110.700    313.800
   22     1    23     1    107.800    276.144
   24     2    25     1    107.800    276.144
   12    11    40     1    110.700    313.800
   40    11    41     1    107.800    276.144
   15    17    18     1    112.700    488.273
   21     1    22     1    107.800    276.144
    3     2    24     1    110.700    313.800
    6     5    29     1    110.700    313.800
   20    19    53     1    110.700    313.800
   13    12    18     1    112.700    488.273
   12    11    41     1    110.700    313.800
   14    13    44     1    110.700    313.800

[ dihedrals ]
; IMPROPER DIHEDRAL ANGLES 
;  ai    aj    ak    al funct            c0            c1            c2            c3            c4            c5

[ dihedrals ]
; PROPER DIHEDRAL ANGLES
;  ai    aj    ak    al funct            c0            c1            c2            c3            c4            c5
    4    3    2    1        3       2.301  -1.464   0.837  -1.674  -0.000   0.000
   19   20    4    3        3       2.301  -1.464   0.837  -1.674  -0.000   0.000
   15   17   18   12        3       2.301  -1.464   0.837  -1.674  -0.000   0.000
   19    7    8   10        3       2.301  -1.464   0.837  -1.674  -0.000   0.000
   17   18   12   11        3       2.301  -1.464   0.837  -1.674  -0.000   0.000
   20   19    7    8        3       2.301  -1.464   0.837  -1.674  -0.000   0.000
   20    4    3    2        3       2.301  -1.464   0.837  -1.674  -0.000   0.000
   18   12   11   10        3       2.301  -1.464   0.837  -1.674  -0.000   0.000
   19    7    6    5        3       2.301  -1.464   0.837  -1.674  -0.000   0.000
   11   10    8    9        3       2.301  -1.464   0.837  -1.674  -0.000   0.000
   10    8    7    6        3       2.301  -1.464   0.837  -1.674  -0.000   0.000
   20    4    5    6        3       2.301  -1.464   0.837  -1.674  -0.000   0.000
   18   17   15   14        3       2.301  -1.464   0.837  -1.674  -0.000   0.000
   17   18   12   13        3       2.301  -1.464   0.837  -1.674  -0.000   0.000
   20   19    7    6        3       2.301  -1.464   0.837  -1.674  -0.000   0.000
    7   19   20    4        3       2.301  -1.464   0.837  -1.674  -0.000   0.000
   18   12   13   14        3       2.301  -1.464   0.837  -1.674  -0.000   0.000
   19    7    8    9        3       2.301  -1.464   0.837  -1.674  -0.000   0.000
   17   15   14   13        3       2.301  -1.464   0.837  -1.674  -0.000   0.000
   12   11   10    8        3       2.301  -1.464   0.837  -1.674  -0.000   0.000
   13   12   11   10        3       2.301  -1.464   0.837  -1.674  -0.000   0.000
   14   13   12   11        3       2.301  -1.464   0.837  -1.674  -0.000   0.000
   19   20    4    5        3       2.301  -1.464   0.837  -1.674  -0.000   0.000
   15   14   13   12        3       2.301  -1.464   0.837  -1.674  -0.000   0.000
    9    8    7    6        3       2.301  -1.464   0.837  -1.674  -0.000   0.000
   11   10    8    7        3       2.301  -1.464   0.837  -1.674  -0.000   0.000
    8    7    6    5        3       2.301  -1.464   0.837  -1.674  -0.000   0.000
    7    6    5    4        3       2.301  -1.464   0.837  -1.674  -0.000   0.000
    6    5    4    3        3       2.301  -1.464   0.837  -1.674  -0.000   0.000
    5    4    3    2        3       2.301  -1.464   0.837  -1.674  -0.000   0.000
   18   17   15   16        3       0.837   2.510   0.000  -3.347  -0.000   0.000
   16   15   14   13        3       0.837   2.510   0.000  -3.347  -0.000   0.000
   31    6    7   19        3       0.628   1.883   0.000  -2.510  -0.000   0.000
   44   13   12   18        3       0.628   1.883   0.000  -2.510  -0.000   0.000
   29    5    4   20        3       0.628   1.883   0.000  -2.510  -0.000   0.000
   26    3    4    5        3       0.628   1.883   0.000  -2.510  -0.000   0.000
   41   11   10    8        3       0.628   1.883   0.000  -2.510  -0.000   0.000
   38   10    8    7        3       0.628   1.883   0.000  -2.510  -0.000   0.000
   40   11   12   13        3       0.628   1.883   0.000  -2.510  -0.000   0.000
   33    7    6    5        3       0.628   1.883   0.000  -2.510  -0.000   0.000
   49   17   18   12        3       0.628   1.883   0.000  -2.510  -0.000   0.000
   38   10    8    9        3       0.628   1.883   0.000  -2.510  -0.000   0.000
   46   14   15   17        3       0.628   1.883   0.000  -2.510  -0.000   0.000
   44   13   12   11        3       0.628   1.883   0.000  -2.510  -0.000   0.000
   31    6    5    4        3       0.628   1.883   0.000  -2.510  -0.000   0.000
   30    5    4    3        3       0.628   1.883   0.000  -2.510  -0.000   0.000
   52   19    7    8        3       0.628   1.883   0.000  -2.510  -0.000   0.000
   36    9    8   10        3       0.628   1.883   0.000  -2.510  -0.000   0.000
   30    5    4   20        3       0.628   1.883   0.000  -2.510  -0.000   0.000
   26    3    4   20        3       0.628   1.883   0.000  -2.510  -0.000   0.000
   24    2    3    4        3       0.628   1.883   0.000  -2.510  -0.000   0.000
   55   20    4    5        3       0.628   1.883   0.000  -2.510  -0.000   0.000
   53   19   20    4        3       0.628   1.883   0.000  -2.510  -0.000   0.000
   43   13   12   11        3       0.628   1.883   0.000  -2.510  -0.000   0.000
   42   12   11   10        3       0.628   1.883   0.000  -2.510  -0.000   0.000
   28    4   20   19        3       0.628   1.883   0.000  -2.510  -0.000   0.000
   33    7    8    9        3       0.628   1.883   0.000  -2.510  -0.000   0.000
   37    9    8    7        3       0.628   1.883   0.000  -2.510  -0.000   0.000
   50   18   17   15        3       0.628   1.883   0.000  -2.510  -0.000   0.000
   47   15   17   18        3       0.628   1.883   0.000  -2.510  -0.000   0.000
   39   10    8    9        3       0.628   1.883   0.000  -2.510  -0.000   0.000
   48   17   15   14        3       0.628   1.883   0.000  -2.510  -0.000   0.000
   29    5    6    7        3       0.628   1.883   0.000  -2.510  -0.000   0.000
   32    6    5    4        3       0.628   1.883   0.000  -2.510  -0.000   0.000
   31    6    7    8        3       0.628   1.883   0.000  -2.510  -0.000   0.000
   42   12   13   14        3       0.628   1.883   0.000  -2.510  -0.000   0.000
   51   18   12   13        3       0.628   1.883   0.000  -2.510  -0.000   0.000
   53   19    7    6        3       0.628   1.883   0.000  -2.510  -0.000   0.000
   22    1    2    3        3       0.628   1.883   0.000  -2.510  -0.000   0.000
   45   14   15   17        3       0.628   1.883   0.000  -2.510  -0.000   0.000
   30    5    6    7        3       0.628   1.883   0.000  -2.510  -0.000   0.000
   53   19    7    8        3       0.628   1.883   0.000  -2.510  -0.000   0.000
   34    8    7   19        3       0.628   1.883   0.000  -2.510  -0.000   0.000
   28    4    5    6        3       0.628   1.883   0.000  -2.510  -0.000   0.000
   42   12   18   17        3       0.628   1.883   0.000  -2.510  -0.000   0.000
   27    3    2    1        3       0.628   1.883   0.000  -2.510  -0.000   0.000
   51   18   17   15        3       0.628   1.883   0.000  -2.510  -0.000   0.000
   33    7   19   20        3       0.628   1.883   0.000  -2.510  -0.000   0.000
   40   11   10    8        3       0.628   1.883   0.000  -2.510  -0.000   0.000
   41   11   12   18        3       0.628   1.883   0.000  -2.510  -0.000   0.000
   29    5    4    3        3       0.628   1.883   0.000  -2.510  -0.000   0.000
   55   20    4    3        3       0.628   1.883   0.000  -2.510  -0.000   0.000
   25    2    3    4        3       0.628   1.883   0.000  -2.510  -0.000   0.000
   36    9    8    7        3       0.628   1.883   0.000  -2.510  -0.000   0.000
   48   17   18   12        3       0.628   1.883   0.000  -2.510  -0.000   0.000
   50   18   12   11        3       0.628   1.883   0.000  -2.510  -0.000   0.000
   21    1    2    3        3       0.628   1.883   0.000  -2.510  -0.000   0.000
   52   19    7    6        3       0.628   1.883   0.000  -2.510  -0.000   0.000
   41   11   12   13        3       0.628   1.883   0.000  -2.510  -0.000   0.000
   35    9    8    7        3       0.628   1.883   0.000  -2.510  -0.000   0.000
   34    8    7    6        3       0.628   1.883   0.000  -2.510  -0.000   0.000
   27    3    4    5        3       0.628   1.883   0.000  -2.510  -0.000   0.000
   40   11   12   18        3       0.628   1.883   0.000  -2.510  -0.000   0.000
   27    3    4   20        3       0.628   1.883   0.000  -2.510  -0.000   0.000
   33    7    8   10        3       0.628   1.883   0.000  -2.510  -0.000   0.000
   45   14   13   12        3       0.628   1.883   0.000  -2.510  -0.000   0.000
   54   20   19    7        3       0.628   1.883   0.000  -2.510  -0.000   0.000
   34    8   10   11        3       0.628   1.883   0.000  -2.510  -0.000   0.000
   52   19   20    4        3       0.628   1.883   0.000  -2.510  -0.000   0.000
   39   10    8    7        3       0.628   1.883   0.000  -2.510  -0.000   0.000
   51   18   12   11        3       0.628   1.883   0.000  -2.510  -0.000   0.000
   54   20    4    3        3       0.628   1.883   0.000  -2.510  -0.000   0.000
   37    9    8   10        3       0.628   1.883   0.000  -2.510  -0.000   0.000
   43   13   14   15        3       0.628   1.883   0.000  -2.510  -0.000   0.000
   50   18   12   13        3       0.628   1.883   0.000  -2.510  -0.000   0.000
   28    4    3    2        3       0.628   1.883   0.000  -2.510  -0.000   0.000
   54   20    4    5        3       0.628   1.883   0.000  -2.510  -0.000   0.000
   46   14   13   12        3       0.628   1.883   0.000  -2.510  -0.000   0.000
   32    6    7    8        3       0.628   1.883   0.000  -2.510  -0.000   0.000
   35    9    8   10        3       0.628   1.883   0.000  -2.510  -0.000   0.000
   43   13   12   18        3       0.628   1.883   0.000  -2.510  -0.000   0.000
   47   15   14   13        3       0.628   1.883   0.000  -2.510  -0.000   0.000
   44   13   14   15        3       0.628   1.883   0.000  -2.510  -0.000   0.000
   49   17   15   14        3       0.628   1.883   0.000  -2.510  -0.000   0.000
   55   20   19    7        3       0.628   1.883   0.000  -2.510  -0.000   0.000
   32    6    7   19        3       0.628   1.883   0.000  -2.510  -0.000   0.000
   38   10   11   12        3       0.628   1.883   0.000  -2.510  -0.000   0.000
   39   10   11   12        3       0.628   1.883   0.000  -2.510  -0.000   0.000
   26    3    2    1        3       0.628   1.883   0.000  -2.510  -0.000   0.000
   23    1    2    3        3       0.628   1.883   0.000  -2.510  -0.000   0.000
   49   17   15   16        3       0.837   2.510   0.000  -3.347  -0.000   0.000
   48   17   15   16        3       0.837   2.510   0.000  -3.347  -0.000   0.000
   45   14   15   16        3       0.837   2.510   0.000  -3.347  -0.000   0.000
   46   14   15   16        3       0.837   2.510   0.000  -3.347  -0.000   0.000
   28    4    3   26        3       0.628   1.883   0.000  -2.510  -0.000   0.000
   47   15   14   46        3       0.628   1.883   0.000  -2.510  -0.000   0.000
   37    9    8   34        3       0.628   1.883   0.000  -2.510  -0.000   0.000
   46   14   13   44        3       0.628   1.883   0.000  -2.510  -0.000   0.000
   27    3    2   25        3       0.628   1.883   0.000  -2.510  -0.000   0.000
   38   10    8   34        3       0.628   1.883   0.000  -2.510  -0.000   0.000
   51   18   12   42        3       0.628   1.883   0.000  -2.510  -0.000   0.000
   30    5    4   28        3       0.628   1.883   0.000  -2.510  -0.000   0.000
   52   19    7   33        3       0.628   1.883   0.000  -2.510  -0.000   0.000
   44   13   12   42        3       0.628   1.883   0.000  -2.510  -0.000   0.000
   50   18   17   49        3       0.628   1.883   0.000  -2.510  -0.000   0.000
   53   19    7   33        3       0.628   1.883   0.000  -2.510  -0.000   0.000
   46   14   13   43        3       0.628   1.883   0.000  -2.510  -0.000   0.000
   35    9    8   34        3       0.628   1.883   0.000  -2.510  -0.000   0.000
   24    2    1   22        3       0.628   1.883   0.000  -2.510  -0.000   0.000
   50   18   17   48        3       0.628   1.883   0.000  -2.510  -0.000   0.000
   54   20   19   53        3       0.628   1.883   0.000  -2.510  -0.000   0.000
   55   20   19   52        3       0.628   1.883   0.000  -2.510  -0.000   0.000
   27    3    2   24        3       0.628   1.883   0.000  -2.510  -0.000   0.000
   26    3    2   25        3       0.628   1.883   0.000  -2.510  -0.000   0.000
   54   20    4   28        3       0.628   1.883   0.000  -2.510  -0.000   0.000
   25    2    1   23        3       0.628   1.883   0.000  -2.510  -0.000   0.000
   50   18   12   42        3       0.628   1.883   0.000  -2.510  -0.000   0.000
   43   13   12   42        3       0.628   1.883   0.000  -2.510  -0.000   0.000
   42   12   11   41        3       0.628   1.883   0.000  -2.510  -0.000   0.000
   31    6    5   30        3       0.628   1.883   0.000  -2.510  -0.000   0.000
   29    5    4   28        3       0.628   1.883   0.000  -2.510  -0.000   0.000
   33    7    6   31        3       0.628   1.883   0.000  -2.510  -0.000   0.000
   47   15   14   45        3       0.628   1.883   0.000  -2.510  -0.000   0.000
   28    4    3   27        3       0.628   1.883   0.000  -2.510  -0.000   0.000
   32    6    5   30        3       0.628   1.883   0.000  -2.510  -0.000   0.000
   24    2    1   23        3       0.628   1.883   0.000  -2.510  -0.000   0.000
   25    2    1   21        3       0.628   1.883   0.000  -2.510  -0.000   0.000
   40   11   10   39        3       0.628   1.883   0.000  -2.510  -0.000   0.000
   55   20    4   28        3       0.628   1.883   0.000  -2.510  -0.000   0.000
   31    6    5   29        3       0.628   1.883   0.000  -2.510  -0.000   0.000
   26    3    2   24        3       0.628   1.883   0.000  -2.510  -0.000   0.000
   49   17   15   47        3       0.628   1.883   0.000  -2.510  -0.000   0.000
   36    9    8   34        3       0.628   1.883   0.000  -2.510  -0.000   0.000
   51   18   17   48        3       0.628   1.883   0.000  -2.510  -0.000   0.000
   24    2    1   21        3       0.628   1.883   0.000  -2.510  -0.000   0.000
   45   14   13   43        3       0.628   1.883   0.000  -2.510  -0.000   0.000
   25    2    1   22        3       0.628   1.883   0.000  -2.510  -0.000   0.000
   34    8    7   33        3       0.628   1.883   0.000  -2.510  -0.000   0.000
   41   11   10   39        3       0.628   1.883   0.000  -2.510  -0.000   0.000
   42   12   11   40        3       0.628   1.883   0.000  -2.510  -0.000   0.000
   51   18   17   49        3       0.628   1.883   0.000  -2.510  -0.000   0.000
   39   10    8   34        3       0.628   1.883   0.000  -2.510  -0.000   0.000
   48   17   15   47        3       0.628   1.883   0.000  -2.510  -0.000   0.000
   40   11   10   38        3       0.628   1.883   0.000  -2.510  -0.000   0.000
   54   20   19   52        3       0.628   1.883   0.000  -2.510  -0.000   0.000
   45   14   13   44        3       0.628   1.883   0.000  -2.510  -0.000   0.000
   33    7    6   32        3       0.628   1.883   0.000  -2.510  -0.000   0.000
   41   11   10   38        3       0.628   1.883   0.000  -2.510  -0.000   0.000
   32    6    5   29        3       0.628   1.883   0.000  -2.510  -0.000   0.000
   55   20   19   53        3       0.628   1.883   0.000  -2.510  -0.000   0.000

[ pairs ]
     1     4    1
     2     5    1
     3     6    1
     4     7    1
     5     8    1
     6     9    1
     6    10    1
     7    11    1
     9    11    1
     8    12    1
     3    19    1
     2    20    1
    10    13    1
     5    19    1
     3    21    1
    11    14    1
     3    22    1
     6    20    1
     3    23    1
    12    15    1
     1    26    1
    11    17    1
    10    18    1
     9    19    1
     8    20    1
     4    24    1
     1    27    1
    13    16    1
    10    19    1
     4    25    1
    13    17    1
     2    28    1
     5    26    1
    14    18    1
     5    27    1
     3    29    1
     3    30    1
    16    18    1
     6    28    1
     4    31    1
     7    29    1
     4    32    1
     7    30    1
     5    33    1
     8    31    1
     8    32    1
     6    34    1
     9    33    1
     7    35    1
    10    33    1
     7    36    1
     7    37    1
    21    24    1
    11    34    1
    10    35    1
     7    38    1
    22    24    1
    21    25    1
    20    26    1
    10    36    1
     7    39    1
    23    24    1
    22    25    1
    20    27    1
    19    28    1
    10    37    1
     9    38    1
    23    25    1
     9    39    1
     8    40    1
    20    29    1
     8    41    1
    24    26    1
    20    30    1
    19    31    1
    12    38    1
    25    26    1
    24    27    1
    19    32    1
    12    39    1
    25    27    1
    10    42    1
    20    33    1
    19    34    1
    13    40    1
    26    28    1
    13    41    1
    11    43    1
    27    28    1
    11    44    1
    14    42    1
     4    52    1
    28    29    1
    12    45    1
     4    53    1
     3    54    1
    28    30    1
    18    40    1
    15    43    1
    12    46    1
     6    52    1
     3    55    1
    18    41    1
    17    42    1
    15    44    1
     6    53    1
     5    54    1
    29    31    1
    13    47    1
    12    48    1
     8    52    1
     5    55    1
    30    31    1
    29    32    1
    18    43    1
    16    45    1
    12    49    1
    11    50    1
     8    53    1
     7    54    1
    30    32    1
    18    44    1
    17    45    1
    16    46    1
    14    48    1
    11    51    1
     7    55    1
    17    46    1
    14    49    1
    13    50    1
    31    33    1
    16    48    1
    13    51    1
    32    33    1
    18    47    1
    16    49    1
    15    50    1
    15    51    1
    33    34    1
    34    35    1
    34    36    1
    34    37    1
    34    38    1
    34    39    1
    38    40    1
    39    40    1
    38    41    1
    39    41    1
    40    42    1
    28    54    1
    41    42    1
    28    55    1
    42    43    1
    33    52    1
    42    44    1
    33    53    1
    43    45    1
    44    45    1
    43    46    1
    44    46    1
    45    47    1
    42    50    1
    46    47    1
    42    51    1
    47    48    1
    47    49    1
    48    50    1
    49    50    1
    48    51    1
    49    51    1
    52    54    1
    53    54    1
    52    55    1
    53    55    1

