
;
; GENERATED BY LigParGen Server
; Jorgensen Lab @ Yale University 
;
[ atomtypes ]
  opls_814  C814    12.0110     0.000    A    3.50000E-01   2.76144E-01
  opls_824  H824     1.0080     0.000    A    2.50000E-01   1.25520E-01
  opls_805  O805    15.9990     0.000    A    2.96000E-01   8.78640E-01
  opls_818  C818    12.0110     0.000    A    3.50000E-01   2.76144E-01
  opls_843  H843     1.0080     0.000    A    2.50000E-01   1.25520E-01
  opls_836  H836     1.0080     0.000    A    2.50000E-01   1.25520E-01
  opls_834  H834     1.0080     0.000    A    2.50000E-01   1.25520E-01
  opls_828  H828     1.0080     0.000    A    2.50000E-01   1.25520E-01
  opls_851  H851     1.0080     0.000    A    2.50000E-01   1.25520E-01
  opls_806  O806    15.9990     0.000    A    2.90000E-01   5.85760E-01
  opls_815  C815    12.0110     0.000    A    3.50000E-01   2.76144E-01
  opls_827  H827     1.0080     0.000    A    2.50000E-01   1.25520E-01
  opls_801  C801    12.0110     0.000    A    3.50000E-01   2.76144E-01
  opls_838  H838     1.0080     0.000    A    2.50000E-01   1.25520E-01
  opls_822  H822     1.0080     0.000    A    2.50000E-01   1.25520E-01
  opls_803  C803    12.0110     0.000    A    3.50000E-01   2.76144E-01
  opls_830  H830     1.0080     0.000    A    2.50000E-01   1.25520E-01
  opls_810  O810    15.9990     0.000    A    2.96000E-01   8.78640E-01
  opls_821  H821     1.0080     0.000    A    2.50000E-01   1.25520E-01
  opls_842  H842     1.0080     0.000    A    2.50000E-01   1.25520E-01
  opls_826  H826     1.0080     0.000    A    2.50000E-01   1.25520E-01
  opls_809  C809    12.0110     0.000    A    3.55000E-01   2.92880E-01
  opls_837  H837     1.0080     0.000    A    2.50000E-01   1.25520E-01
  opls_829  H829     1.0080     0.000    A    2.50000E-01   1.25520E-01
  opls_831  H831     1.0080     0.000    A    2.50000E-01   1.25520E-01
  opls_804  C804    12.0110     0.000    A    3.55000E-01   2.92880E-01
  opls_832  H832     1.0080     0.000    A    2.50000E-01   1.25520E-01
  opls_800  C800    12.0110     0.000    A    3.50000E-01   2.76144E-01
  opls_846  H846     1.0080     0.000    A    2.50000E-01   1.25520E-01
  opls_848  H848     1.0080     0.000    A    2.50000E-01   1.25520E-01
  opls_802  C802    12.0110     0.000    A    3.50000E-01   2.76144E-01
  opls_823  H823     1.0080     0.000    A    2.50000E-01   1.25520E-01
  opls_819  C819    12.0110     0.000    A    3.50000E-01   2.76144E-01
  opls_820  C820    12.0110     0.000    A    3.50000E-01   2.76144E-01
  opls_835  H835     1.0080     0.000    A    2.50000E-01   1.25520E-01
  opls_841  H841     1.0080     0.000    A    2.50000E-01   1.25520E-01
  opls_825  H825     1.0080     0.000    A    2.50000E-01   1.25520E-01
  opls_816  C816    12.0110     0.000    A    3.50000E-01   2.76144E-01
  opls_833  H833     1.0080     0.000    A    2.50000E-01   1.25520E-01
  opls_811  O811    15.9990     0.000    A    2.90000E-01   5.85760E-01
  opls_839  H839     1.0080     0.000    A    2.50000E-01   1.25520E-01
  opls_817  C817    12.0110     0.000    A    3.50000E-01   2.76144E-01
  opls_852  H852     1.0080     0.000    A    2.50000E-01   1.25520E-01
  opls_812  C812    12.0110     0.000    A    3.50000E-01   2.76144E-01
  opls_808  C808    12.0110     0.000    A    3.50000E-01   2.76144E-01
  opls_850  H850     1.0080     0.000    A    2.50000E-01   1.25520E-01
  opls_840  H840     1.0080     0.000    A    2.50000E-01   1.25520E-01
  opls_849  H849     1.0080     0.000    A    2.50000E-01   1.25520E-01
  opls_813  C813    12.0110     0.000    A    3.50000E-01   2.76144E-01
  opls_847  H847     1.0080     0.000    A    2.50000E-01   1.25520E-01
  opls_844  H844     1.0080     0.000    A    2.50000E-01   1.25520E-01
  opls_845  H845     1.0080     0.000    A    2.50000E-01   1.25520E-01
  opls_807  C807    12.0110     0.000    A    3.50000E-01   2.76144E-01
[ moleculetype ]
; Name               nrexcl
UNK                   3
[ atoms ]
;   nr       type  resnr residue  atom   cgnr     charge       mass  
     1   opls_800      1    UNK   C00      1    -0.2388    12.0110 
     2   opls_801      1    UNK   C01      1    -0.1824    12.0110 
     3   opls_802      1    UNK   C02      1      -0.17    12.0110 
     4   opls_803      1    UNK   C03      1    -0.1897    12.0110 
     5   opls_804      1    UNK   C04      1     0.4385    12.0110 
     6   opls_805      1    UNK   O05      1    -0.4503    15.9990 
     7   opls_806      1    UNK   O06      1    -0.3524    15.9990 
     8   opls_807      1    UNK   C07      1     0.0068    12.0110 
     9   opls_808      1    UNK   C08      1    -0.2238    12.0110 
    10   opls_809      1    UNK   C09      1     0.4587    12.0110 
    11   opls_810      1    UNK   O0A      1    -0.4637    15.9990 
    12   opls_811      1    UNK   O0B      1    -0.3695    15.9990 
    13   opls_812      1    UNK   C0C      1     0.1555    12.0110 
    14   opls_813      1    UNK   C0D      1    -0.2734    12.0110 
    15   opls_814      1    UNK   C0E      1    -0.2049    12.0110 
    16   opls_815      1    UNK   C0F      1    -0.1685    12.0110 
    17   opls_816      1    UNK   C0G      1    -0.2405    12.0110 
    18   opls_817      1    UNK   C0H      1    -0.1641    12.0110 
    19   opls_818      1    UNK   C0I      1    -0.1127    12.0110 
    20   opls_819      1    UNK   C0J      1    -0.2285    12.0110 
    21   opls_820      1    UNK   C0K      1    -0.2394    12.0110 
    22   opls_821      1    UNK   H0M      1     0.0835     1.0080 
    23   opls_822      1    UNK   H0N      1     0.0835     1.0080 
    24   opls_823      1    UNK   H0O      1     0.0835     1.0080 
    25   opls_824      1    UNK   H0P      1     0.0925     1.0080 
    26   opls_825      1    UNK   H0Q      1     0.0925     1.0080 
    27   opls_826      1    UNK   H0R      1     0.1039     1.0080 
    28   opls_827      1    UNK   H0S      1     0.1039     1.0080 
    29   opls_828      1    UNK   H0T      1     0.1298     1.0080 
    30   opls_829      1    UNK   H0U      1     0.1298     1.0080 
    31   opls_830      1    UNK   H0V      1     0.1327     1.0080 
    32   opls_831      1    UNK   H0W      1     0.1327     1.0080 
    33   opls_832      1    UNK   H0X      2     0.1456     1.0080 
    34   opls_833      1    UNK   H0Y      2     0.1456     1.0080 
    35   opls_834      1    UNK   H0Z      2     0.1024     1.0080 
    36   opls_835      1    UNK   H10      2     0.1024     1.0080 
    37   opls_836      1    UNK   H11      2     0.1024     1.0080 
    38   opls_837      1    UNK   H12      2     0.1086     1.0080 
    39   opls_838      1    UNK   H13      2     0.1086     1.0080 
    40   opls_839      1    UNK   H14      2     0.0907     1.0080 
    41   opls_840      1    UNK   H15      2     0.0907     1.0080 
    42   opls_841      1    UNK   H16      2     0.0836     1.0080 
    43   opls_842      1    UNK   H17      2     0.0836     1.0080 
    44   opls_843      1    UNK   H18      2     0.0836     1.0080 
    45   opls_844      1    UNK   H19      2     0.1012     1.0080 
    46   opls_845      1    UNK   H1A      2     0.1012     1.0080 
    47   opls_846      1    UNK   H1B      2      0.098     1.0080 
    48   opls_847      1    UNK   H1C      2     0.0842     1.0080 
    49   opls_848      1    UNK   H1D      2     0.0842     1.0080 
    50   opls_849      1    UNK   H1E      2     0.0842     1.0080 
    51   opls_850      1    UNK   H1F      2     0.0812     1.0080 
    52   opls_851      1    UNK   H1G      2     0.0812     1.0080 
    53   opls_852      1    UNK   H1H      2     0.0812     1.0080 
[ bonds ]
    2     1     1      0.1529 224262.400
    3     2     1      0.1529 224262.400
    4     3     1      0.1529 224262.400
    5     4     1      0.1522 265265.600
    6     5     1      0.1229 476976.000
    7     5     1      0.1327 179075.200
    8     7     1      0.1410 267776.000
    9     8     1      0.1529 224262.400
   10     9     1      0.1522 265265.600
   11    10     1      0.1229 476976.000
   12    10     1      0.1327 179075.200
   13    12     1      0.1410 267776.000
   14    13     1      0.1529 224262.400
   15    13     1      0.1529 224262.400
   16    15     1      0.1529 224262.400
   17    16     1      0.1529 224262.400
   18    13     1      0.1529 224262.400
   19    18     1      0.1529 224262.400
   20    19     1      0.1529 224262.400
   21    19     1      0.1529 224262.400
   22     1     1      0.1090 284512.000
   23     1     1      0.1090 284512.000
   24     1     1      0.1090 284512.000
   25     2     1      0.1090 284512.000
   26     2     1      0.1090 284512.000
   27     3     1      0.1090 284512.000
   28     3     1      0.1090 284512.000
   29     4     1      0.1090 284512.000
   30     4     1      0.1090 284512.000
   31     8     1      0.1090 284512.000
   32     8     1      0.1090 284512.000
   33     9     1      0.1090 284512.000
   34     9     1      0.1090 284512.000
   35    14     1      0.1090 284512.000
   36    14     1      0.1090 284512.000
   37    14     1      0.1090 284512.000
   38    15     1      0.1090 284512.000
   39    15     1      0.1090 284512.000
   40    16     1      0.1090 284512.000
   41    16     1      0.1090 284512.000
   42    17     1      0.1090 284512.000
   43    17     1      0.1090 284512.000
   44    17     1      0.1090 284512.000
   45    18     1      0.1090 284512.000
   46    18     1      0.1090 284512.000
   47    19     1      0.1090 284512.000
   48    20     1      0.1090 284512.000
   49    20     1      0.1090 284512.000
   50    20     1      0.1090 284512.000
   51    21     1      0.1090 284512.000
   52    21     1      0.1090 284512.000
   53    21     1      0.1090 284512.000

[ angles ]
;  ai    aj    ak funct            c0            c1            c2            c3 
    1     2     3     1    112.700    488.273
    2     3     4     1    112.700    488.273
    3     4     5     1    111.100    527.184
    4     5     6     1    120.400    669.440
    4     5     7     1    111.400    677.808
    5     7     8     1    116.900    694.544
    7     8     9     1    109.500    418.400
    8     9    10     1    111.100    527.184
    9    10    11     1    120.400    669.440
    9    10    12     1    111.400    677.808
   10    12    13     1    116.900    694.544
   12    13    14     1    109.500    418.400
   12    13    15     1    109.500    418.400
   13    15    16     1    112.700    488.273
   15    16    17     1    112.700    488.273
   12    13    18     1    109.500    418.400
   13    18    19     1    112.700    488.273
   18    19    20     1    112.700    488.273
   18    19    21     1    112.700    488.273
    2     1    22     1    110.700    313.800
    2     1    23     1    110.700    313.800
    2     1    24     1    110.700    313.800
    1     2    25     1    110.700    313.800
    1     2    26     1    110.700    313.800
    2     3    27     1    110.700    313.800
    2     3    28     1    110.700    313.800
    3     4    29     1    110.700    313.800
    3     4    30     1    110.700    313.800
    7     8    31     1    109.500    292.880
    7     8    32     1    109.500    292.880
    8     9    33     1    110.700    313.800
    8     9    34     1    110.700    313.800
   13    14    35     1    110.700    313.800
   13    14    36     1    110.700    313.800
   13    14    37     1    110.700    313.800
   13    15    38     1    110.700    313.800
   13    15    39     1    110.700    313.800
   15    16    40     1    110.700    313.800
   15    16    41     1    110.700    313.800
   16    17    42     1    110.700    313.800
   16    17    43     1    110.700    313.800
   16    17    44     1    110.700    313.800
   13    18    45     1    110.700    313.800
   13    18    46     1    110.700    313.800
   18    19    47     1    110.700    313.800
   19    20    48     1    110.700    313.800
   19    20    49     1    110.700    313.800
   19    20    50     1    110.700    313.800
   19    21    51     1    110.700    313.800
   19    21    52     1    110.700    313.800
   19    21    53     1    110.700    313.800
   20    19    21     1    112.700    488.273
   29     4    30     1    107.800    276.144
    3     2    26     1    110.700    313.800
   31     8    32     1    107.800    276.144
    9     8    31     1    110.700    313.800
   27     3    28     1    107.800    276.144
   14    13    15     1    112.700    488.273
   35    14    37     1    107.800    276.144
   16    15    39     1    110.700    313.800
   22     1    24     1    107.800    276.144
   10     9    33     1    109.500    292.880
   49    20    50     1    107.800    276.144
   21    19    47     1    110.700    313.800
   51    21    53     1    107.800    276.144
   16    15    38     1    110.700    313.800
   35    14    36     1    107.800    276.144
   42    17    43     1    107.800    276.144
   11    10    12     1    123.400    694.544
   17    16    40     1    110.700    313.800
    3     2    25     1    110.700    313.800
   19    18    45     1    110.700    313.800
   42    17    44     1    107.800    276.144
   45    18    46     1    107.800    276.144
   23     1    24     1    107.800    276.144
   40    16    41     1    107.800    276.144
    6     5     7     1    123.400    694.544
    4     3    28     1    110.700    313.800
   48    20    50     1    107.800    276.144
   51    21    52     1    107.800    276.144
   14    13    18     1    112.700    488.273
   43    17    44     1    107.800    276.144
   52    21    53     1    107.800    276.144
   17    16    41     1    110.700    313.800
   25     2    26     1    107.800    276.144
   20    19    47     1    110.700    313.800
   48    20    49     1    107.800    276.144
    4     3    27     1    110.700    313.800
   15    13    18     1    112.700    488.273
    9     8    32     1    110.700    313.800
    5     4    29     1    109.500    292.880
   33     9    34     1    107.800    276.144
    5     4    30     1    109.500    292.880
   10     9    34     1    109.500    292.880
   22     1    23     1    107.800    276.144
   19    18    46     1    110.700    313.800
   36    14    37     1    107.800    276.144
   38    15    39     1    107.800    276.144

[ dihedrals ]
; IMPROPER DIHEDRAL ANGLES 
;  ai    aj    ak    al funct            c0            c1            c2            c3            c4            c5
    12    10     9    11    4        180.000     43.932     2  
     7     5     4     6    4        180.000     43.932     2  

[ dihedrals ]
; PROPER DIHEDRAL ANGLES
;  ai    aj    ak    al funct            c0            c1            c2            c3            c4            c5
    5    4    3    2        3      -4.960   6.286   1.310  -2.636  -0.000   0.000
   10    9    8    7        3      -12.929  12.929   0.000  -0.000  -0.000   0.000
    4    3    2    1        3       2.301  -1.464   0.837  -1.674  -0.000   0.000
   21   19   18   13        3       2.301  -1.464   0.837  -1.674  -0.000   0.000
   19   18   13   15        3       2.301  -1.464   0.837  -1.674  -0.000   0.000
   16   15   13   14        3       2.301  -1.464   0.837  -1.674  -0.000   0.000
   19   18   13   14        3       2.301  -1.464   0.837  -1.674  -0.000   0.000
   20   19   18   13        3       2.301  -1.464   0.837  -1.674  -0.000   0.000
   17   16   15   13        3       2.301  -1.464   0.837  -1.674  -0.000   0.000
   18   13   15   16        3       2.301  -1.464   0.837  -1.674  -0.000   0.000
   16   15   13   12        3       2.874   0.582   2.092  -5.548  -0.000   0.000
   19   18   13   12        3       2.874   0.582   2.092  -5.548  -0.000   0.000
    9    8    7    5        3      -2.197   5.201   0.527  -3.531  -0.000   0.000
   14   13   12   10        3      -2.197   5.201   0.527  -3.531  -0.000   0.000
   15   13   12   10        3      -2.197   5.201   0.527  -3.531  -0.000   0.000
   18   13   12   10        3      -2.197   5.201   0.527  -3.531  -0.000   0.000
   13   12   10    9        3      31.206  -9.768  -21.439  -0.000  -0.000   0.000
    8    7    5    4        3      31.206  -9.768  -21.439  -0.000  -0.000   0.000
    8    7    5    6        3      21.439   0.000  -21.439  -0.000  -0.000   0.000
   13   12   10   11        3      21.439   0.000  -21.439  -0.000  -0.000   0.000
   33    9   10   11        3       0.000   0.000   0.000  -0.000  -0.000   0.000
   29    4    5    6        3       0.000   0.000   0.000  -0.000  -0.000   0.000
   30    4    5    6        3       0.000   0.000   0.000  -0.000  -0.000   0.000
   34    9   10   11        3       0.000   0.000   0.000  -0.000  -0.000   0.000
   34    9   10   12        3       0.276   0.828   0.000  -1.105  -0.000   0.000
   29    4    5    7        3       0.276   0.828   0.000  -1.105  -0.000   0.000
   33    9   10   12        3       0.276   0.828   0.000  -1.105  -0.000   0.000
   30    4    5    7        3       0.276   0.828   0.000  -1.105  -0.000   0.000
   32    8    9   10        3      -0.209  -0.628   0.000   0.837  -0.000   0.000
   31    8    9   10        3      -0.209  -0.628   0.000   0.837  -0.000   0.000
   27    3    4    5        3      -0.209  -0.628   0.000   0.837  -0.000   0.000
   28    3    4    5        3      -0.209  -0.628   0.000   0.837  -0.000   0.000
   52   21   19   18        3       0.628   1.883   0.000  -2.510  -0.000   0.000
   25    2    3    4        3       0.628   1.883   0.000  -2.510  -0.000   0.000
   38   15   16   17        3       0.628   1.883   0.000  -2.510  -0.000   0.000
   51   21   19   20        3       0.628   1.883   0.000  -2.510  -0.000   0.000
   28    3    2    1        3       0.628   1.883   0.000  -2.510  -0.000   0.000
   39   15   13   18        3       0.628   1.883   0.000  -2.510  -0.000   0.000
   52   21   19   20        3       0.628   1.883   0.000  -2.510  -0.000   0.000
   49   20   19   21        3       0.628   1.883   0.000  -2.510  -0.000   0.000
   26    2    3    4        3       0.628   1.883   0.000  -2.510  -0.000   0.000
   41   16   15   13        3       0.628   1.883   0.000  -2.510  -0.000   0.000
   48   20   19   21        3       0.628   1.883   0.000  -2.510  -0.000   0.000
   40   16   15   13        3       0.628   1.883   0.000  -2.510  -0.000   0.000
   44   17   16   15        3       0.628   1.883   0.000  -2.510  -0.000   0.000
   35   14   13   18        3       0.628   1.883   0.000  -2.510  -0.000   0.000
   39   15   13   14        3       0.628   1.883   0.000  -2.510  -0.000   0.000
   39   15   16   17        3       0.628   1.883   0.000  -2.510  -0.000   0.000
   46   18   13   15        3       0.628   1.883   0.000  -2.510  -0.000   0.000
   53   21   19   18        3       0.628   1.883   0.000  -2.510  -0.000   0.000
   35   14   13   15        3       0.628   1.883   0.000  -2.510  -0.000   0.000
   37   14   13   15        3       0.628   1.883   0.000  -2.510  -0.000   0.000
   50   20   19   21        3       0.628   1.883   0.000  -2.510  -0.000   0.000
   38   15   13   14        3       0.628   1.883   0.000  -2.510  -0.000   0.000
   36   14   13   15        3       0.628   1.883   0.000  -2.510  -0.000   0.000
   45   18   13   14        3       0.628   1.883   0.000  -2.510  -0.000   0.000
   36   14   13   18        3       0.628   1.883   0.000  -2.510  -0.000   0.000
   27    3    2    1        3       0.628   1.883   0.000  -2.510  -0.000   0.000
   46   18   19   21        3       0.628   1.883   0.000  -2.510  -0.000   0.000
   45   18   19   20        3       0.628   1.883   0.000  -2.510  -0.000   0.000
   24    1    2    3        3       0.628   1.883   0.000  -2.510  -0.000   0.000
   29    4    3    2        3       0.628   1.883   0.000  -2.510  -0.000   0.000
   47   19   18   13        3       0.628   1.883   0.000  -2.510  -0.000   0.000
   37   14   13   18        3       0.628   1.883   0.000  -2.510  -0.000   0.000
   43   17   16   15        3       0.628   1.883   0.000  -2.510  -0.000   0.000
   46   18   19   20        3       0.628   1.883   0.000  -2.510  -0.000   0.000
   45   18   19   21        3       0.628   1.883   0.000  -2.510  -0.000   0.000
   30    4    3    2        3       0.628   1.883   0.000  -2.510  -0.000   0.000
   45   18   13   15        3       0.628   1.883   0.000  -2.510  -0.000   0.000
   51   21   19   18        3       0.628   1.883   0.000  -2.510  -0.000   0.000
   48   20   19   18        3       0.628   1.883   0.000  -2.510  -0.000   0.000
   22    1    2    3        3       0.628   1.883   0.000  -2.510  -0.000   0.000
   42   17   16   15        3       0.628   1.883   0.000  -2.510  -0.000   0.000
   46   18   13   14        3       0.628   1.883   0.000  -2.510  -0.000   0.000
   38   15   13   18        3       0.628   1.883   0.000  -2.510  -0.000   0.000
   53   21   19   20        3       0.628   1.883   0.000  -2.510  -0.000   0.000
   50   20   19   18        3       0.628   1.883   0.000  -2.510  -0.000   0.000
   49   20   19   18        3       0.628   1.883   0.000  -2.510  -0.000   0.000
   23    1    2    3        3       0.628   1.883   0.000  -2.510  -0.000   0.000
   43   17   16   40        3       0.628   1.883   0.000  -2.510  -0.000   0.000
   29    4    3   27        3       0.628   1.883   0.000  -2.510  -0.000   0.000
   48   20   19   47        3       0.628   1.883   0.000  -2.510  -0.000   0.000
   33    9    8   31        3       0.628   1.883   0.000  -2.510  -0.000   0.000
   42   17   16   40        3       0.628   1.883   0.000  -2.510  -0.000   0.000
   47   19   18   46        3       0.628   1.883   0.000  -2.510  -0.000   0.000
   28    3    2   26        3       0.628   1.883   0.000  -2.510  -0.000   0.000
   25    2    1   23        3       0.628   1.883   0.000  -2.510  -0.000   0.000
   30    4    3   28        3       0.628   1.883   0.000  -2.510  -0.000   0.000
   40   16   15   38        3       0.628   1.883   0.000  -2.510  -0.000   0.000
   25    2    1   22        3       0.628   1.883   0.000  -2.510  -0.000   0.000
   41   16   15   38        3       0.628   1.883   0.000  -2.510  -0.000   0.000
   26    2    1   22        3       0.628   1.883   0.000  -2.510  -0.000   0.000
   34    9    8   31        3       0.628   1.883   0.000  -2.510  -0.000   0.000
   40   16   15   39        3       0.628   1.883   0.000  -2.510  -0.000   0.000
   47   19   18   45        3       0.628   1.883   0.000  -2.510  -0.000   0.000
   30    4    3   27        3       0.628   1.883   0.000  -2.510  -0.000   0.000
   34    9    8   32        3       0.628   1.883   0.000  -2.510  -0.000   0.000
   29    4    3   28        3       0.628   1.883   0.000  -2.510  -0.000   0.000
   26    2    1   24        3       0.628   1.883   0.000  -2.510  -0.000   0.000
   33    9    8   32        3       0.628   1.883   0.000  -2.510  -0.000   0.000
   44   17   16   41        3       0.628   1.883   0.000  -2.510  -0.000   0.000
   53   21   19   47        3       0.628   1.883   0.000  -2.510  -0.000   0.000
   27    3    2   25        3       0.628   1.883   0.000  -2.510  -0.000   0.000
   25    2    1   24        3       0.628   1.883   0.000  -2.510  -0.000   0.000
   50   20   19   47        3       0.628   1.883   0.000  -2.510  -0.000   0.000
   26    2    1   23        3       0.628   1.883   0.000  -2.510  -0.000   0.000
   27    3    2   26        3       0.628   1.883   0.000  -2.510  -0.000   0.000
   49   20   19   47        3       0.628   1.883   0.000  -2.510  -0.000   0.000
   42   17   16   41        3       0.628   1.883   0.000  -2.510  -0.000   0.000
   44   17   16   40        3       0.628   1.883   0.000  -2.510  -0.000   0.000
   51   21   19   47        3       0.628   1.883   0.000  -2.510  -0.000   0.000
   52   21   19   47        3       0.628   1.883   0.000  -2.510  -0.000   0.000
   41   16   15   39        3       0.628   1.883   0.000  -2.510  -0.000   0.000
   43   17   16   41        3       0.628   1.883   0.000  -2.510  -0.000   0.000
   28    3    2   25        3       0.628   1.883   0.000  -2.510  -0.000   0.000
   33    9    8    7        3       0.979   2.937   0.000  -3.916  -0.000   0.000
   37   14   13   12        3       0.979   2.937   0.000  -3.916  -0.000   0.000
   35   14   13   12        3       0.979   2.937   0.000  -3.916  -0.000   0.000
   38   15   13   12        3       0.979   2.937   0.000  -3.916  -0.000   0.000
   34    9    8    7        3       0.979   2.937   0.000  -3.916  -0.000   0.000
   46   18   13   12        3       0.979   2.937   0.000  -3.916  -0.000   0.000
   45   18   13   12        3       0.979   2.937   0.000  -3.916  -0.000   0.000
   39   15   13   12        3       0.979   2.937   0.000  -3.916  -0.000   0.000
   36   14   13   12        3       0.979   2.937   0.000  -3.916  -0.000   0.000
   31    8    7    5        3       0.414   1.243   0.000  -1.657  -0.000   0.000
   32    8    7    5        3       0.414   1.243   0.000  -1.657  -0.000   0.000
    6    5    4    3        3       0.000   0.000   0.000  -0.000  -0.000   0.000
   11   10    9    8        3       0.000   0.000   0.000  -0.000  -0.000   0.000
    7    5    4    3        3      -1.157  -3.471   0.000   4.628  -0.000   0.000
   12   10    9    8        3      -1.157  -3.471   0.000   4.628  -0.000   0.000

[ pairs ]
     1     4    1
     2     5    1
     3     6    1
     3     7    1
     4     8    1
     6     8    1
     5     9    1
     7    10    1
     8    11    1
     8    12    1
     9    13    1
    11    13    1
    10    14    1
    10    15    1
     3    22    1
     3    23    1
     3    24    1
    12    16    1
    10    18    1
     1    27    1
     4    25    1
     1    28    1
    14    16    1
    13    17    1
     4    26    1
    12    19    1
     2    29    1
     5    27    1
     2    30    1
    14    19    1
    13    20    1
     5    28    1
    16    18    1
    15    19    1
    13    21    1
     6    29    1
     7    29    1
     6    30    1
     5    31    1
     7    30    1
     5    32    1
     7    33    1
    10    31    1
     7    34    1
    10    32    1
    11    33    1
    12    33    1
    11    34    1
    12    34    1
    22    25    1
    12    35    1
    23    25    1
    22    26    1
    12    36    1
    24    25    1
    23    26    1
    12    37    1
    24    26    1
    15    35    1
    12    38    1
    15    36    1
    12    39    1
    25    27    1
    15    37    1
    14    38    1
    26    27    1
    25    28    1
    18    35    1
    14    39    1
    13    40    1
    26    28    1
    18    36    1
    13    41    1
    18    37    1
    17    38    1
    27    29    1
    18    38    1
    17    39    1
    28    29    1
    27    30    1
    18    39    1
    15    42    1
    12    45    1
    28    30    1
    15    43    1
    12    46    1
    15    44    1
    14    45    1
    15    45    1
    14    46    1
    13    47    1
    15    46    1
    31    33    1
    32    33    1
    31    34    1
    20    45    1
    32    34    1
    21    45    1
    20    46    1
    18    48    1
    21    46    1
    18    49    1
    18    50    1
    21    48    1
    18    51    1
    21    49    1
    18    52    1
    21    50    1
    20    51    1
    18    53    1
    20    52    1
    20    53    1
    38    40    1
    39    40    1
    38    41    1
    39    41    1
    40    42    1
    41    42    1
    40    43    1
    41    43    1
    40    44    1
    41    44    1
    45    47    1
    46    47    1
    47    48    1
    47    49    1
    47    50    1
    47    51    1
    47    52    1
    47    53    1

