LIGPARGEN GENERATED GRO FILE
   53
    1UNK    C00    1   0.100   0.100   0.000
    1UNK    C01    2  -0.052   0.100   0.000
    1UNK    C02    3  -0.108   0.100   0.143
    1UNK    C03    4  -0.261   0.100   0.145
    1UNK    C04    5  -0.321  -0.020   0.077
    1UNK    O05    6  -0.405  -0.013  -0.011
    1UNK    O06    7  -0.270  -0.135   0.129
    1UNK    C07    8  -0.325  -0.257   0.075
    1UNK    C08    9  -0.253  -0.298  -0.052
    1UNK    C09   10  -0.314  -0.425  -0.103
    1UNK    O0A   11  -0.363  -0.510  -0.030
    1UNK    O0B   12  -0.307  -0.432  -0.240
    1UNK    C0C   13  -0.375  -0.539  -0.312
    1UNK    C0D   14  -0.316  -0.675  -0.268
    1UNK    C0E   15  -0.527  -0.528  -0.286
    1UNK    C0F   16  -0.615  -0.634  -0.354
    1UNK    C0G   17  -0.762  -0.611  -0.321
    1UNK    C0H   18  -0.339  -0.523  -0.463
    1UNK    C0I   19  -0.391  -0.398  -0.538
    1UNK    C0J   20  -0.338  -0.267  -0.482
    1UNK    C0K   21  -0.354  -0.409  -0.686
    1UNK    H0M   22   0.138   0.100  -0.103
    1UNK    H0N   23   0.139   0.011   0.051
    1UNK    H0O   24   0.139   0.189   0.051
    1UNK    H0P   25  -0.087   0.012  -0.055
    1UNK    H0Q   26  -0.088   0.188  -0.054
    1UNK    H0R   27  -0.072   0.189   0.196
    1UNK    H0S   28  -0.069   0.013   0.197
    1UNK    H0T   29  -0.298   0.190   0.096
    1UNK    H0U   30  -0.297   0.103   0.249
    1UNK    H0V   31  -0.434  -0.247   0.059
    1UNK    H0W   32  -0.313  -0.333   0.153
    1UNK    H0X   33  -0.147  -0.315  -0.033
    1UNK    H0Y   34  -0.261  -0.219  -0.127
    1UNK    H0Z   35  -0.343  -0.701  -0.165
    1UNK    H10   36  -0.207  -0.673  -0.273
    1UNK    H11   37  -0.351  -0.757  -0.332
    1UNK    H12   38  -0.561  -0.428  -0.315
    1UNK    H13   39  -0.548  -0.533  -0.179
    1UNK    H14   40  -0.587  -0.734  -0.320
    1UNK    H15   41  -0.602  -0.631  -0.463
    1UNK    H16   42  -0.779  -0.618  -0.213
    1UNK    H17   43  -0.824  -0.686  -0.370
    1UNK    H18   44  -0.794  -0.512  -0.354
    1UNK    H19   45  -0.374  -0.611  -0.517
    1UNK    H1A   46  -0.229  -0.523  -0.472
    1UNK    H1B   47  -0.501  -0.396  -0.533
    1UNK    H1C   48  -0.230  -0.272  -0.463
    1UNK    H1D   49  -0.387  -0.241  -0.388
    1UNK    H1E   50  -0.355  -0.184  -0.551
    1UNK    H1F   51  -0.245  -0.411  -0.700
    1UNK    H1G   52  -0.393  -0.324  -0.743
    1UNK    H1H   53  -0.395  -0.501  -0.730
   1.00000   1.00000   1.00000

