LIGPARGEN GENERATED GRO FILE
   26
    1UNK    C00    1   0.100   0.100   0.000
    1UNK    C01    2  -0.052   0.100   0.000
    1UNK    C02    3  -0.107   0.100   0.143
    1UNK    C03    4  -0.261   0.100   0.151
    1UNK    C04    5  -0.324  -0.024   0.086
    1UNK    C05    6  -0.476  -0.022   0.088
    1UNK    O06    7  -0.296   0.095   0.292
    1UNK    C07    8  -0.298   0.212   0.360
    1UNK    C08    9  -0.325   0.188   0.505
    1UNK    O09   10  -0.274   0.322   0.312
    1UNK    H0A   11   0.138   0.095  -0.103
    1UNK    H0B   12   0.139   0.013   0.054
    1UNK    H0C   13   0.139   0.191   0.047
    1UNK    H0D   14  -0.086   0.011  -0.054
    1UNK    H0E   15  -0.089   0.188  -0.054
    1UNK    H0F   16  -0.069   0.188   0.196
    1UNK    H0G   17  -0.068   0.013   0.198
    1UNK    H0H   18  -0.302   0.191   0.105
    1UNK    H0I   19  -0.290  -0.113   0.139
    1UNK    H0J   20  -0.292  -0.033  -0.019
    1UNK    H0K   21  -0.516   0.016   0.182
    1UNK    H0M   22  -0.515  -0.123   0.073
    1UNK    H0N   23  -0.515   0.041   0.007
    1UNK    H0O   24  -0.384   0.097   0.518
    1UNK    H0P   25  -0.383   0.271   0.546
    1UNK    H0Q   26  -0.230   0.177   0.559
   1.00000   1.00000   1.00000

