LIGPARGEN GENERATED GRO FILE
   42
    1UNK    C00    1   0.100   0.100   0.000
    1UNK    C01    2  -0.052   0.100   0.000
    1UNK    C02    3  -0.111   0.100   0.142
    1UNK    C03    4  -0.266   0.100   0.144
    1UNK    C04    5  -0.329  -0.023   0.077
    1UNK    C05    6  -0.298  -0.151   0.153
    1UNK    C06    7  -0.346  -0.148   0.300
    1UNK    C07    8  -0.283  -0.269   0.375
    1UNK    C08    9  -0.318  -0.284   0.523
    1UNK    C09   10  -0.259  -0.414   0.578
    1UNK    O0A   11  -0.492  -0.150   0.307
    1UNK    C0B   12  -0.562  -0.257   0.261
    1UNK    C0C   13  -0.710  -0.236   0.278
    1UNK    O0D   14  -0.516  -0.358   0.211
    1UNK    C0E   15  -0.301  -0.016   0.369
    1UNK    C0F   16  -0.322   0.110   0.286
    1UNK    H0G   17   0.137   0.095  -0.103
    1UNK    H0H   18   0.139   0.013   0.054
    1UNK    H0I   19   0.140   0.191   0.046
    1UNK    H0J   20  -0.085   0.011  -0.055
    1UNK    H0K   21  -0.088   0.188  -0.055
    1UNK    H0M   22  -0.075   0.190   0.195
    1UNK    H0N   23  -0.071   0.014   0.197
    1UNK    H0O   24  -0.298   0.189   0.088
    1UNK    H0P   25  -0.295  -0.032  -0.027
    1UNK    H0Q   26  -0.438  -0.009   0.071
    1UNK    H0R   27  -0.190  -0.170   0.149
    1UNK    H0S   28  -0.344  -0.234   0.098
    1UNK    H0T   29  -0.173  -0.262   0.366
    1UNK    H0U   30  -0.310  -0.362   0.324
    1UNK    H0V   31  -0.426  -0.285   0.537
    1UNK    H0W   32  -0.277  -0.200   0.580
    1UNK    H0X   33  -0.302  -0.501   0.527
    1UNK    H0Y   34  -0.279  -0.423   0.684
    1UNK    H0Z   35  -0.150  -0.417   0.563
    1UNK    H10   36  -0.731  -0.145   0.334
    1UNK    H11   37  -0.751  -0.320   0.334
    1UNK    H12   38  -0.757  -0.228   0.180
    1UNK    H13   39  -0.196  -0.022   0.397
    1UNK    H14   40  -0.358  -0.003   0.463
    1UNK    H15   41  -0.277   0.196   0.338
    1UNK    H16   42  -0.430   0.131   0.280
   1.00000   1.00000   1.00000

