
;
; GENERATED BY LigParGen Server
; Jorgensen Lab @ Yale University 
;
[ atomtypes ]
  opls_814  N814    14.0070     0.000    A    3.20000E-01   7.11280E-01
  opls_818  H818     1.0080     0.000    A    2.50000E-01   1.25520E-01
  opls_804  C804    12.0110     0.000    A    3.45000E-01   3.47272E-01
  opls_824  H824     1.0080     0.000    A    2.50000E-01   1.25520E-01
  opls_808  O808    15.9990     0.000    A    2.96000E-01   8.78640E-01
  opls_803  C803    12.0110     0.000    A    3.45000E-01   3.47272E-01
  opls_815  H815     1.0080     0.000    A    2.50000E-01   1.25520E-01
  opls_809  C809    12.0110     0.000    A    3.50000E-01   2.76144E-01
  opls_802  O802    15.9990     0.000    A    2.96000E-01   8.78640E-01
  opls_822  H822     1.0080     0.000    A    2.50000E-01   1.25520E-01
  opls_825  H825     1.0080     0.000    A    2.50000E-01   1.25520E-01
  opls_826  H826     1.0080     0.000    A    2.50000E-01   1.25520E-01
  opls_821  H821     1.0080     0.000    A    2.50000E-01   1.25520E-01
  opls_820  H820     1.0080     0.000    A    2.50000E-01   1.25520E-01
  opls_801  C801    12.0110     0.000    A    3.55000E-01   2.92880E-01
  opls_812  O812    15.9990     0.000    A    2.96000E-01   8.78640E-01
  opls_816  H816     1.0080     0.000    A    2.50000E-01   1.25520E-01
  opls_800  C800    12.0110     0.000    A    3.50000E-01   2.76144E-01
  opls_805  C805    12.0110     0.000    A    3.50000E-01   2.76144E-01
  opls_823  H823     1.0080     0.000    A    2.50000E-01   1.25520E-01
  opls_811  C811    12.0110     0.000    A    3.55000E-01   2.92880E-01
  opls_806  C806    12.0110     0.000    A    3.45000E-01   3.47272E-01
  opls_819  H819     1.0080     0.000    A    2.50000E-01   1.25520E-01
  opls_810  C810    12.0110     0.000    A    3.50000E-01   2.76144E-01
  opls_827  H827     1.0080     0.000    A    2.50000E-01   1.25520E-01
  opls_807  C807    12.0110     0.000    A    3.55000E-01   2.92880E-01
  opls_817  H817     1.0080     0.000    A    2.50000E-01   1.25520E-01
  opls_813  C813    12.0110     0.000    A    3.30000E-01   2.76144E-01
[ moleculetype ]
; Name               nrexcl
UNK                   3
[ atoms ]
;   nr       type  resnr residue  atom   cgnr     charge       mass  
     1   opls_800      1    UNK   C00      1    -0.2972    12.0110 
     2   opls_801      1    UNK   C01      1     0.4056    12.0110 
     3   opls_802      1    UNK   O02      1     -0.447    15.9990 
     4   opls_803      1    UNK   C03      1    -0.2356    12.0110 
     5   opls_804      1    UNK   C04      1    -0.0987    12.0110 
     6   opls_805      1    UNK   C05      1    -0.2316    12.0110 
     7   opls_806      1    UNK   C06      1    -0.2551    12.0110 
     8   opls_807      1    UNK   C07      1     0.4072    12.0110 
     9   opls_808      1    UNK   O08      1    -0.4237    15.9990 
    10   opls_809      1    UNK   C09      1     -0.203    12.0110 
    11   opls_810      1    UNK   C0A      1    -0.2313    12.0110 
    12   opls_811      1    UNK   C0B      1      0.505    12.0110 
    13   opls_812      1    UNK   O0C      1    -0.3721    15.9990 
    14   opls_813      1    UNK   C0D      1     0.0857    12.0110 
    15   opls_814      1    UNK   N0E      1    -0.2813    14.0070 
    16   opls_815      1    UNK   H0F      1     0.1217     1.0080 
    17   opls_816      1    UNK   H0G      1     0.1217     1.0080 
    18   opls_817      1    UNK   H0H      1     0.1217     1.0080 
    19   opls_818      1    UNK   H0I      1     0.1701     1.0080 
    20   opls_819      1    UNK   H0J      1     0.1521     1.0080 
    21   opls_820      1    UNK   H0K      1     0.1037     1.0080 
    22   opls_821      1    UNK   H0M      1     0.1037     1.0080 
    23   opls_822      1    UNK   H0N      1     0.1037     1.0080 
    24   opls_823      1    UNK   H0O      1     0.1763     1.0080 
    25   opls_824      1    UNK   H0P      1     0.1695     1.0080 
    26   opls_825      1    UNK   H0Q      1     0.1095     1.0080 
    27   opls_826      1    UNK   H0R      1     0.1095     1.0080 
    28   opls_827      1    UNK   H0S      1     0.1095     1.0080 
[ bonds ]
    2     1     1      0.1522 265265.600
    3     2     1      0.1229 476976.000
    4     2     1      0.1522 265265.600
    5     4     1      0.1520 217568.000
    6     5     1      0.1510 234304.000
    7     4     1      0.1520 217568.000
    8     7     1      0.1522 265265.600
    9     8     1      0.1229 476976.000
   10     8     1      0.1522 265265.600
   11    10     1      0.1529 224262.400
   12    10     1      0.1522 265265.600
   13    12     1      0.1229 476976.000
   14    12     1      0.1444 334720.000
   15    14     1      0.1157 543920.000
   16     1     1      0.1090 284512.000
   17     1     1      0.1090 284512.000
   18     1     1      0.1090 284512.000
   19     4     1      0.1088 284512.000
   20     5     1      0.1088 284512.000
   21     6     1      0.1090 284512.000
   22     6     1      0.1090 284512.000
   23     6     1      0.1090 284512.000
   24     7     1      0.1088 284512.000
   25    10     1      0.1090 284512.000
   26    11     1      0.1090 284512.000
   27    11     1      0.1090 284512.000
   28    11     1      0.1090 284512.000
    7     5     1      0.1520 217568.000

[ angles ]
;  ai    aj    ak funct            c0            c1            c2            c3 
    1     2     3     1    120.400    669.440
    1     2     4     1    116.000    585.760
    2     4     5     1    111.100    527.184
    4     5     6     1    117.200    313.800
    2     4     7     1    111.100    527.184
    4     7     8     1    111.100    527.184
    7     8     9     1    120.400    669.440
    7     8    10     1    116.000    585.760
    8    10    11     1    111.100    527.184
    8    10    12     1    111.100    527.184
   10    12    13     1    120.400    669.440
   10    12    14     1    118.180    584.923
   12    14    15     1    156.000    924.413
    2     1    16     1    109.500    292.880
    2     1    17     1    109.500    292.880
    2     1    18     1    109.500    292.880
    2     4    19     1    109.500    292.880
    4     5    20     1    117.200    313.800
    5     6    21     1    110.700    313.800
    5     6    22     1    110.700    313.800
    5     6    23     1    110.700    313.800
    4     7    24     1    117.200    313.800
    8    10    25     1    109.500    292.880
   10    11    26     1    110.700    313.800
   10    11    27     1    110.700    313.800
   10    11    28     1    110.700    313.800
   16     1    17     1    107.800    276.144
    5     7     8     1    111.100    527.184
   13    12    14     1    118.180    584.923
    5     4     7     1     83.000    251.040
   21     6    22     1    107.800    276.144
   27    11    28     1    107.800    276.144
    5     7    24     1    117.200    313.800
   16     1    18     1    107.800    276.144
    9     8    10     1    120.400    669.440
    4     5     7     1     83.000    251.040
   22     6    23     1    107.800    276.144
    6     5    20     1    114.300    292.880
    6     5     7     1    117.200    313.800
    3     2     4     1    120.400    669.440
    5     4    19     1    117.200    313.800
   11    10    25     1    110.700    313.800
    7     5    20     1    117.200    313.800
   17     1    18     1    107.800    276.144
    7     4    19     1    117.200    313.800
   26    11    27     1    107.800    276.144
    4     7     5     1     83.000    251.040
    8     7    24     1    109.500    292.880
   21     6    23     1    107.800    276.144
   11    10    12     1    111.100    527.184
   26    11    28     1    107.800    276.144
   12    10    25     1    109.500    292.880

[ dihedrals ]
; IMPROPER DIHEDRAL ANGLES 
;  ai    aj    ak    al funct            c0            c1            c2            c3            c4            c5
    10     8     7     9    4        180.000     43.932     2  
     4     2     1     3    4        180.000     43.932     2  
    14    12    10    13    4        180.000     43.932     2  

[ dihedrals ]
; PROPER DIHEDRAL ANGLES
;  ai    aj    ak    al funct            c0            c1            c2            c3            c4            c5
   12   10    8    7        3       0.000   0.000   0.000  -0.000  -0.000   0.000
   12   10    8    9        3       0.000   0.000   0.000  -0.000  -0.000   0.000
    8    7    4    2        3       0.000   0.000   0.000  -0.000  -0.000   0.000
    8    7    5    6        3       0.000   0.000   0.000  -0.000  -0.000   0.000
    8    7    5    4        3       0.000   0.000   0.000  -0.000  -0.000   0.000
    8    7    4    5        3       0.000   0.000   0.000  -0.000  -0.000   0.000
   10    8    7    4        3       0.000   0.000   0.000  -0.000  -0.000   0.000
   10    8    7    5        3       0.000   0.000   0.000  -0.000  -0.000   0.000
   11   10    8    7        3       0.000   0.000   0.000  -0.000  -0.000   0.000
   11   10    8    9        3       0.000   0.000   0.000  -0.000  -0.000   0.000
    6    5    4    2        3       0.000   0.000   0.000  -0.000  -0.000   0.000
    6    5    7    4        3       0.000   0.000   0.000  -0.000  -0.000   0.000
    5    4    2    1        3       0.000   0.000   0.000  -0.000  -0.000   0.000
    7    4    2    1        3       0.000   0.000   0.000  -0.000  -0.000   0.000
    7    4    2    5        3       0.000   0.000   0.000  -0.000  -0.000   0.000
    5    4    2    3        3       0.000   0.000   0.000  -0.000  -0.000   0.000
    7    4    2    3        3       0.000   0.000   0.000  -0.000  -0.000   0.000
   14   12   10    8        3       0.000   0.000   0.000  -0.000  -0.000   0.000
   14   12   10   11        3       0.000   0.000   0.000  -0.000  -0.000   0.000
   25   10    8    7        3       0.575   1.726   0.000  -2.301  -0.000   0.000
   17    1    2    4        3       0.575   1.726   0.000  -2.301  -0.000   0.000
   16    1    2    4        3       0.575   1.726   0.000  -2.301  -0.000   0.000
   18    1    2    4        3       0.575   1.726   0.000  -2.301  -0.000   0.000
   25   10   12   14        3       0.575   1.726   0.000  -2.301  -0.000   0.000
   25   10    8    9        3       0.000   0.000   0.000  -0.000  -0.000   0.000
   17    1    2    3        3       0.000   0.000   0.000  -0.000  -0.000   0.000
   18    1    2    3        3       0.000   0.000   0.000  -0.000  -0.000   0.000
   25   10   12   13        3       0.000   0.000   0.000  -0.000  -0.000   0.000
   16    1    2    3        3       0.000   0.000   0.000  -0.000  -0.000   0.000
   27   11   10    8        3      -0.209  -0.628   0.000   0.837  -0.000   0.000
   27   11   10   12        3      -0.209  -0.628   0.000   0.837  -0.000   0.000
   28   11   10    8        3      -0.209  -0.628   0.000   0.837  -0.000   0.000
   26   11   10   12        3      -0.209  -0.628   0.000   0.837  -0.000   0.000
   26   11   10    8        3      -0.209  -0.628   0.000   0.837  -0.000   0.000
   28   11   10   12        3      -0.209  -0.628   0.000   0.837  -0.000   0.000
   26   11   10   25        3       0.628   1.883   0.000  -2.510  -0.000   0.000
   27   11   10   25        3       0.628   1.883   0.000  -2.510  -0.000   0.000
   28   11   10   25        3       0.628   1.883   0.000  -2.510  -0.000   0.000
   23    6    5    7        3       0.628   1.883   0.000  -2.510  -0.000   0.000
   22    6    5    7        3       0.628   1.883   0.000  -2.510  -0.000   0.000
   21    6    5    7        3       0.628   1.883   0.000  -2.510  -0.000   0.000
   23    6    5    4        3       0.628   1.883   0.000  -2.510  -0.000   0.000
   21    6    5    4        3       0.628   1.883   0.000  -2.510  -0.000   0.000
   22    6    5    4        3       0.628   1.883   0.000  -2.510  -0.000   0.000
   22    6    5   20        3       0.628   1.883   0.000  -2.510  -0.000   0.000
   23    6    5   20        3       0.628   1.883   0.000  -2.510  -0.000   0.000
   21    6    5   20        3       0.628   1.883   0.000  -2.510  -0.000   0.000
   19    4    2    1        3       0.575   1.726   0.000  -2.301  -0.000   0.000
   24    7    8   10        3       0.575   1.726   0.000  -2.301  -0.000   0.000
   19    4    2    3        3       0.000   0.000   0.000  -0.000  -0.000   0.000
   24    7    8    9        3       0.000   0.000   0.000  -0.000  -0.000   0.000
   20    5    7    8        3       0.000   0.000   0.000  -0.000  -0.000   0.000
   19    4    7    8        3       0.000   0.000   0.000  -0.000  -0.000   0.000
   20    5    4    2        3       0.000   0.000   0.000  -0.000  -0.000   0.000
   24    7    4    2        3       0.000   0.000   0.000  -0.000  -0.000   0.000
   19    4    5    6        3       0.000   0.000   0.000  -0.000  -0.000   0.000
   24    7    5    6        3       0.000   0.000   0.000  -0.000  -0.000   0.000
   19    4    7    5        3       0.000   0.000   0.000  -0.000  -0.000   0.000
   20    5    4    7        3       0.000   0.000   0.000  -0.000  -0.000   0.000
   20    5    7    4        3       0.000   0.000   0.000  -0.000  -0.000   0.000
   19    4    5    7        3       0.000   0.000   0.000  -0.000  -0.000   0.000
   24    7    4    5        3       0.000   0.000   0.000  -0.000  -0.000   0.000
   24    7    5    4        3       0.000   0.000   0.000  -0.000  -0.000   0.000
   20    5    4   19        3       0.000   0.000   0.000  -0.000  -0.000   0.000
   24    7    4   19        3       0.000   0.000   0.000  -0.000  -0.000   0.000
   24    7    5   20        3       0.000   0.000   0.000  -0.000  -0.000   0.000
   15   14   12   10        3      -0.209   1.046  -0.837  -0.000  -0.000   0.000
   15   14   12   13        3       0.000   0.000   0.000  -0.000  -0.000   0.000
   13   12   10    8        3       0.000   0.000   0.000  -0.000  -0.000   0.000
   13   12   10   11        3       0.000   0.000   0.000  -0.000  -0.000   0.000
    9    8    7    4        3       0.000   0.000   0.000  -0.000  -0.000   0.000
    9    8    7    5        3       0.000   0.000   0.000  -0.000  -0.000   0.000

[ pairs ]
     1     5    1
     3     5    1
     2     6    1
     1     7    1
     3     7    1
     2     8    1
     4     9    1
     6     8    1
     5     9    1
     4    10    1
     5    10    1
     7    11    1
     7    12    1
     3    16    1
     9    11    1
     4    16    1
     3    17    1
     1    19    1
     9    12    1
     8    13    1
     4    17    1
     3    18    1
     8    14    1
     4    18    1
     3    19    1
     2    20    1
    11    13    1
    11    14    1
    10    15    1
     6    19    1
     4    21    1
     4    22    1
     2    24    1
     8    19    1
     4    23    1
    13    15    1
     8    20    1
     7    21    1
     7    22    1
     7    23    1
     6    24    1
     7    25    1
     9    24    1
    10    24    1
     9    25    1
     8    26    1
     8    27    1
     8    28    1
    13    25    1
    12    26    1
    19    20    1
    14    25    1
    12    27    1
    12    28    1
    20    21    1
    20    22    1
    20    23    1
    19    24    1
    20    24    1
    25    26    1
    25    27    1
    25    28    1

