LIGPARGEN GENERATED GRO FILE
   28
    1UNK    C00    1   0.100   0.100   0.000
    1UNK    C01    2  -0.050   0.100   0.000
    1UNK    O02    3  -0.117   0.100   0.102
    1UNK    C03    4  -0.114   0.100  -0.135
    1UNK    C04    5  -0.211  -0.007  -0.179
    1UNK    C05    6  -0.245  -0.124  -0.093
    1UNK    C06    7  -0.263   0.131  -0.147
    1UNK    C07    8  -0.308   0.219  -0.259
    1UNK    O08    9  -0.234   0.240  -0.354
    1UNK    C09   10  -0.447   0.278  -0.247
    1UNK    C0A   11  -0.480   0.365  -0.368
    1UNK    C0B   12  -0.556   0.176  -0.230
    1UNK    O0C   13  -0.658   0.198  -0.165
    1UNK    C0D   14  -0.542   0.049  -0.301
    1UNK    N0E   15  -0.525  -0.051  -0.356
    1UNK    H0F   16   0.137   0.089   0.102
    1UNK    H0G   17   0.136   0.195  -0.041
    1UNK    H0H   18   0.137   0.017  -0.060
    1UNK    H0I   19  -0.049   0.139  -0.213
    1UNK    H0J   20  -0.206  -0.037  -0.284
    1UNK    H0K   21  -0.253  -0.099   0.013
    1UNK    H0M   22  -0.168  -0.202  -0.104
    1UNK    H0N   23  -0.340  -0.167  -0.125
    1UNK    H0O   24  -0.318   0.143  -0.054
    1UNK    H0P   25  -0.447   0.342  -0.158
    1UNK    H0Q   26  -0.478   0.307  -0.461
    1UNK    H0R   27  -0.408   0.447  -0.379
    1UNK    H0S   28  -0.580   0.410  -0.359
   1.00000   1.00000   1.00000

