LIGPARGEN GENERATED GRO FILE
   40
    1UNK    C00    1   0.100   0.100   0.000
    1UNK    C01    2  -0.053   0.100   0.000
    1UNK    C02    3  -0.114   0.100   0.140
    1UNK    C03    4  -0.053   0.200   0.236
    1UNK    C04    5  -0.100   0.343   0.220
    1UNK    C05    6  -0.094   0.417   0.086
    1UNK    C06    7  -0.069   0.354  -0.054
    1UNK    C07    8  -0.111   0.212  -0.087
    1UNK    C08    9  -0.138   0.452  -0.155
    1UNK    C09   10  -0.171   0.576  -0.071
    1UNK    C0A   11  -0.265   0.675  -0.136
    1UNK    C0B   12  -0.215   0.514   0.064
    1UNK    C0C   13  -0.228   0.621   0.173
    1UNK    C0D   14  -0.348   0.436   0.057
    1UNK    H0E   15   0.138   0.019   0.063
    1UNK    H0F   16   0.142   0.194   0.037
    1UNK    H0G   17   0.138   0.085  -0.101
    1UNK    H0H   18  -0.084   0.006  -0.047
    1UNK    H0I   19  -0.101  -0.000   0.182
    1UNK    H0J   20  -0.223   0.115   0.134
    1UNK    H0K   21   0.056   0.194   0.237
    1UNK    H0M   22  -0.083   0.169   0.338
    1UNK    H0N   23  -0.039   0.402   0.290
    1UNK    H0O   24  -0.201   0.348   0.262
    1UNK    H0P   25  -0.006   0.483   0.099
    1UNK    H0Q   26   0.039   0.361  -0.074
    1UNK    H0R   27  -0.081   0.191  -0.191
    1UNK    H0S   28  -0.220   0.202  -0.087
    1UNK    H0T   29  -0.230   0.409  -0.197
    1UNK    H0U   30  -0.071   0.476  -0.238
    1UNK    H0V   31  -0.076   0.630  -0.056
    1UNK    H0W   32  -0.366   0.637  -0.150
    1UNK    H0X   33  -0.226   0.706  -0.235
    1UNK    H0Y   34  -0.271   0.767  -0.075
    1UNK    H0Z   35  -0.138   0.683   0.179
    1UNK    H10   36  -0.246   0.577   0.271
    1UNK    H11   37  -0.313   0.687   0.152
    1UNK    H12   38  -0.335   0.333   0.024
    1UNK    H13   39  -0.420   0.482  -0.011
    1UNK    H14   40  -0.396   0.429   0.155
   1.00000   1.00000   1.00000

