LIGPARGEN GENERATED GRO FILE
   35
    1UNK    C00    1   0.100   0.100   0.000
    1UNK    C01    2  -0.053   0.100   0.000
    1UNK    C02    3  -0.104   0.100   0.144
    1UNK    C03    4  -0.104   0.219  -0.083
    1UNK    S04    5  -0.286   0.219  -0.096
    1UNK    C05    6  -0.313   0.361  -0.208
    1UNK    C06    7  -0.255   0.345  -0.348
    1UNK    C07    8  -0.364   0.286  -0.438
    1UNK    C08    9  -0.349   0.137  -0.470
    1UNK    C09   10  -0.434   0.062  -0.369
    1UNK    C0A   11  -0.547   0.157  -0.335
    1UNK    C0B   12  -0.496   0.299  -0.360
    1UNK    C0C   13  -0.463   0.381  -0.235
    1UNK    H0D   14   0.139   0.013   0.054
    1UNK    H0E   15   0.140   0.190   0.048
    1UNK    H0F   16   0.139   0.096  -0.102
    1UNK    H0G   17  -0.086   0.007  -0.048
    1UNK    H0H   18  -0.077   0.193   0.196
    1UNK    H0I   19  -0.061   0.016   0.200
    1UNK    H0J   20  -0.213   0.089   0.149
    1UNK    H0K   21  -0.061   0.213  -0.183
    1UNK    H0M   22  -0.072   0.314  -0.038
    1UNK    H0N   23  -0.272   0.449  -0.158
    1UNK    H0O   24  -0.161   0.289  -0.353
    1UNK    H0P   25  -0.232   0.445  -0.386
    1UNK    H0Q   26  -0.367   0.342  -0.531
    1UNK    H0R   27  -0.244   0.103  -0.469
    1UNK    H0S   28  -0.388   0.118  -0.571
    1UNK    H0T   29  -0.375   0.036  -0.281
    1UNK    H0U   30  -0.472  -0.032  -0.411
    1UNK    H0V   31  -0.583   0.142  -0.232
    1UNK    H0W   32  -0.631   0.138  -0.402
    1UNK    H0X   33  -0.571   0.353  -0.419
    1UNK    H0Y   34  -0.527   0.357  -0.150
    1UNK    H0Z   35  -0.479   0.487  -0.258
   1.00000   1.00000   1.00000

