
;
; GENERATED BY LigParGen Server
; Jorgensen Lab @ Yale University 
;
[ atomtypes ]
  opls_818  H818     1.0080     0.000    A    2.50000E-01   1.25520E-01
  opls_824  H824     1.0080     0.000    A    2.50000E-01   1.25520E-01
  opls_805  C805    12.0110     0.000    A    3.50000E-01   2.76144E-01
  opls_833  H833     1.0080     0.000    A    2.50000E-01   1.25520E-01
  opls_828  H828     1.0080     0.000    A    2.50000E-01   1.25520E-01
  opls_813  H813     1.0080     0.000    A    2.50000E-01   1.25520E-01
  opls_812  C812    12.0110     0.000    A    3.50000E-01   2.76144E-01
  opls_802  C802    12.0110     0.000    A    3.50000E-01   2.76144E-01
  opls_815  H815     1.0080     0.000    A    2.50000E-01   1.25520E-01
  opls_809  C809    12.0110     0.000    A    3.50000E-01   2.76144E-01
  opls_806  C806    12.0110     0.000    A    3.50000E-01   2.76144E-01
  opls_822  H822     1.0080     0.000    A    2.50000E-01   1.25520E-01
  opls_803  C803    12.0110     0.000    A    3.50000E-01   2.76144E-01
  opls_825  H825     1.0080     0.000    A    2.50000E-01   1.25520E-01
  opls_814  H814     1.0080     0.000    A    2.50000E-01   1.25520E-01
  opls_821  H821     1.0080     0.000    A    2.50000E-01   1.25520E-01
  opls_820  H820     1.0080     0.000    A    2.50000E-01   1.25520E-01
  opls_829  H829     1.0080     0.000    A    2.50000E-01   1.25520E-01
  opls_834  H834     1.0080     0.000    A    2.50000E-01   1.25520E-01
  opls_831  H831     1.0080     0.000    A    2.50000E-01   1.25520E-01
  opls_832  H832     1.0080     0.000    A    2.50000E-01   1.25520E-01
  opls_816  H816     1.0080     0.000    A    2.50000E-01   1.25520E-01
  opls_800  C800    12.0110     0.000    A    3.50000E-01   2.76144E-01
  opls_811  C811    12.0110     0.000    A    3.50000E-01   2.76144E-01
  opls_823  H823     1.0080     0.000    A    2.50000E-01   1.25520E-01
  opls_826  H826     1.0080     0.000    A    2.50000E-01   1.25520E-01
  opls_819  H819     1.0080     0.000    A    2.50000E-01   1.25520E-01
  opls_810  C810    12.0110     0.000    A    3.50000E-01   2.76144E-01
  opls_827  H827     1.0080     0.000    A    2.50000E-01   1.25520E-01
  opls_801  C801    12.0110     0.000    A    3.50000E-01   2.76144E-01
  opls_808  C808    12.0110     0.000    A    3.50000E-01   2.76144E-01
  opls_817  H817     1.0080     0.000    A    2.50000E-01   1.25520E-01
  opls_830  H830     1.0080     0.000    A    2.50000E-01   1.25520E-01
  opls_804  S804    32.0600     0.000    A    3.60000E-01   1.48532E+00
  opls_807  C807    12.0110     0.000    A    3.50000E-01   2.76144E-01
[ moleculetype ]
; Name               nrexcl
UNK                   3
[ atoms ]
;   nr       type  resnr residue  atom   cgnr     charge       mass  
     1   opls_800      1    UNK   C00      1    -0.2375    12.0110 
     2   opls_801      1    UNK   C01      1    -0.1011    12.0110 
     3   opls_802      1    UNK   C02      1    -0.2358    12.0110 
     4   opls_803      1    UNK   C03      1    -0.0796    12.0110 
     5   opls_804      1    UNK   S04      1    -0.3785    32.0600 
     6   opls_805      1    UNK   C05      1    -0.0165    12.0110 
     7   opls_806      1    UNK   C06      1    -0.1676    12.0110 
     8   opls_807      1    UNK   C07      1    -0.1144    12.0110 
     9   opls_808      1    UNK   C08      1    -0.1683    12.0110 
    10   opls_809      1    UNK   C09      1    -0.1854    12.0110 
    11   opls_810      1    UNK   C0A      1    -0.1665    12.0110 
    12   opls_811      1    UNK   C0B      1    -0.1166    12.0110 
    13   opls_812      1    UNK   C0C      1    -0.1541    12.0110 
    14   opls_813      1    UNK   H0D      1     0.0836     1.0080 
    15   opls_814      1    UNK   H0E      1     0.0836     1.0080 
    16   opls_815      1    UNK   H0F      1     0.0836     1.0080 
    17   opls_816      1    UNK   H0G      1     0.1102     1.0080 
    18   opls_817      1    UNK   H0H      1     0.0878     1.0080 
    19   opls_818      1    UNK   H0I      1     0.0878     1.0080 
    20   opls_819      1    UNK   H0J      1     0.0878     1.0080 
    21   opls_820      1    UNK   H0K      1     0.1082     1.0080 
    22   opls_821      1    UNK   H0M      1     0.1082     1.0080 
    23   opls_822      1    UNK   H0N      1     0.1175     1.0080 
    24   opls_823      1    UNK   H0O      1      0.096     1.0080 
    25   opls_824      1    UNK   H0P      1      0.096     1.0080 
    26   opls_825      1    UNK   H0Q      1     0.0988     1.0080 
    27   opls_826      1    UNK   H0R      1     0.0891     1.0080 
    28   opls_827      1    UNK   H0S      1     0.0891     1.0080 
    29   opls_828      1    UNK   H0T      1      0.101     1.0080 
    30   opls_829      1    UNK   H0U      1      0.101     1.0080 
    31   opls_830      1    UNK   H0V      1     0.0914     1.0080 
    32   opls_831      1    UNK   H0W      1     0.0914     1.0080 
    33   opls_832      1    UNK   H0X      2     0.1002     1.0080 
    34   opls_833      1    UNK   H0Y      2     0.1048     1.0080 
    35   opls_834      1    UNK   H0Z      2     0.1048     1.0080 
[ bonds ]
    2     1     1      0.1529 224262.400
    3     2     1      0.1529 224262.400
    4     2     1      0.1529 224262.400
    5     4     1      0.1810 185769.600
    6     5     1      0.1810 185769.600
    7     6     1      0.1529 224262.400
    8     7     1      0.1529 224262.400
    9     8     1      0.1529 224262.400
   10     9     1      0.1529 224262.400
   11    10     1      0.1529 224262.400
   12     8     1      0.1529 224262.400
   13     6     1      0.1529 224262.400
   14     1     1      0.1090 284512.000
   15     1     1      0.1090 284512.000
   16     1     1      0.1090 284512.000
   17     2     1      0.1090 284512.000
   18     3     1      0.1090 284512.000
   19     3     1      0.1090 284512.000
   20     3     1      0.1090 284512.000
   21     4     1      0.1090 284512.000
   22     4     1      0.1090 284512.000
   23     6     1      0.1090 284512.000
   24     7     1      0.1090 284512.000
   25     7     1      0.1090 284512.000
   26     8     1      0.1090 284512.000
   27     9     1      0.1090 284512.000
   28     9     1      0.1090 284512.000
   29    10     1      0.1090 284512.000
   30    10     1      0.1090 284512.000
   31    11     1      0.1090 284512.000
   32    11     1      0.1090 284512.000
   33    12     1      0.1090 284512.000
   34    13     1      0.1090 284512.000
   35    13     1      0.1090 284512.000
   12    11     1      0.1529 224262.400
   13    12     1      0.1529 224262.400

[ angles ]
;  ai    aj    ak funct            c0            c1            c2            c3 
    1     2     3     1    112.700    488.273
    1     2     4     1    112.700    488.273
    2     4     5     1    114.700    418.400
    4     5     6     1     98.900    518.816
    5     6     7     1    114.700    418.400
    6     7     8     1    112.700    488.273
    7     8     9     1    112.700    488.273
    8     9    10     1    112.700    488.273
    9    10    11     1    112.700    488.273
    7     8    12     1    112.700    488.273
    5     6    13     1    114.700    418.400
    2     1    14     1    110.700    313.800
    2     1    15     1    110.700    313.800
    2     1    16     1    110.700    313.800
    1     2    17     1    110.700    313.800
    2     3    18     1    110.700    313.800
    2     3    19     1    110.700    313.800
    2     3    20     1    110.700    313.800
    2     4    21     1    110.700    313.800
    2     4    22     1    110.700    313.800
    5     6    23     1    109.500    292.880
    6     7    24     1    110.700    313.800
    6     7    25     1    110.700    313.800
    7     8    26     1    110.700    313.800
    8     9    27     1    110.700    313.800
    8     9    28     1    110.700    313.800
    9    10    29     1    110.700    313.800
    9    10    30     1    110.700    313.800
   10    11    31     1    110.700    313.800
   10    11    32     1    110.700    313.800
    8    12    33     1    110.700    313.800
    6    13    34     1    110.700    313.800
    6    13    35     1    110.700    313.800
   12    13    34     1    110.700    313.800
   12    11    31     1    110.700    313.800
    6    13    12     1    112.700    488.273
   12    13    35     1    110.700    313.800
   13    12    33     1    110.700    313.800
   21     4    22     1    107.800    276.144
   11    12    13     1    112.700    488.273
   10     9    28     1    110.700    313.800
    9     8    12     1    112.700    488.273
   11    12    33     1    110.700    313.800
   29    10    30     1    107.800    276.144
    3     2    17     1    110.700    313.800
    8    12    11     1    112.700    488.273
   11    10    29     1    110.700    313.800
   18     3    20     1    107.800    276.144
   13     6    23     1    110.700    313.800
    7     6    23     1    110.700    313.800
   34    13    35     1    107.800    276.144
   12    11    32     1    110.700    313.800
   31    11    32     1    107.800    276.144
   14     1    15     1    107.800    276.144
    5     4    22     1    109.500    292.880
   10    11    12     1    112.700    488.273
    8     7    25     1    110.700    313.800
   15     1    16     1    107.800    276.144
    3     2     4     1    112.700    488.273
   18     3    19     1    107.800    276.144
    4     2    17     1    110.700    313.800
    7     6    13     1    112.700    488.273
    5     4    21     1    109.500    292.880
   12     8    26     1    110.700    313.800
   19     3    20     1    107.800    276.144
    9     8    26     1    110.700    313.800
    8    12    13     1    112.700    488.273
    8     7    24     1    110.700    313.800
   27     9    28     1    107.800    276.144
   24     7    25     1    107.800    276.144
   14     1    16     1    107.800    276.144
   10     9    27     1    110.700    313.800
   11    10    30     1    110.700    313.800

[ dihedrals ]
; IMPROPER DIHEDRAL ANGLES 
;  ai    aj    ak    al funct            c0            c1            c2            c3            c4            c5

[ dihedrals ]
; PROPER DIHEDRAL ANGLES
;  ai    aj    ak    al funct            c0            c1            c2            c3            c4            c5
   12    8    7    6        3       2.301  -1.464   0.837  -1.674  -0.000   0.000
   12   13    6    7        3       2.301  -1.464   0.837  -1.674  -0.000   0.000
   10   11   12    8        3       2.301  -1.464   0.837  -1.674  -0.000   0.000
   13    6    7    8        3       2.301  -1.464   0.837  -1.674  -0.000   0.000
   11   12    8    7        3       2.301  -1.464   0.837  -1.674  -0.000   0.000
   12   11   10    9        3       2.301  -1.464   0.837  -1.674  -0.000   0.000
   13   12    8    7        3       2.301  -1.464   0.837  -1.674  -0.000   0.000
   11   12    8    9        3       2.301  -1.464   0.837  -1.674  -0.000   0.000
    8   12   13    6        3       2.301  -1.464   0.837  -1.674  -0.000   0.000
   13   12    8    9        3       2.301  -1.464   0.837  -1.674  -0.000   0.000
   11   12   13    6        3       2.301  -1.464   0.837  -1.674  -0.000   0.000
   13   12   11   10        3       2.301  -1.464   0.837  -1.674  -0.000   0.000
   12    8    9   10        3       2.301  -1.464   0.837  -1.674  -0.000   0.000
    9    8    7    6        3       2.301  -1.464   0.837  -1.674  -0.000   0.000
   11   10    9    8        3       2.301  -1.464   0.837  -1.674  -0.000   0.000
   10    9    8    7        3       2.301  -1.464   0.837  -1.674  -0.000   0.000
    8    7    6    5        3       3.425  -3.860   2.594  -2.159  -0.000   0.000
   12   13    6    5        3       3.425  -3.860   2.594  -2.159  -0.000   0.000
    7    6    5    4        3       0.941   2.314   2.410  -5.665  -0.000   0.000
   13    6    5    4        3       0.941   2.314   2.410  -5.665  -0.000   0.000
    6    5    4    2        3       0.941   2.314   2.410  -5.665  -0.000   0.000
   22    4    2    3        3       0.628   1.883   0.000  -2.510  -0.000   0.000
   27    9    8   12        3       0.628   1.883   0.000  -2.510  -0.000   0.000
   31   11   12   13        3       0.628   1.883   0.000  -2.510  -0.000   0.000
   32   11   10    9        3       0.628   1.883   0.000  -2.510  -0.000   0.000
   34   13   12    8        3       0.628   1.883   0.000  -2.510  -0.000   0.000
   35   13    6    7        3       0.628   1.883   0.000  -2.510  -0.000   0.000
   24    7    8    9        3       0.628   1.883   0.000  -2.510  -0.000   0.000
   28    9   10   11        3       0.628   1.883   0.000  -2.510  -0.000   0.000
   22    4    2    1        3       0.628   1.883   0.000  -2.510  -0.000   0.000
   25    7    6   13        3       0.628   1.883   0.000  -2.510  -0.000   0.000
   29   10    9    8        3       0.628   1.883   0.000  -2.510  -0.000   0.000
   34   13   12   11        3       0.628   1.883   0.000  -2.510  -0.000   0.000
   30   10    9    8        3       0.628   1.883   0.000  -2.510  -0.000   0.000
   31   11   12    8        3       0.628   1.883   0.000  -2.510  -0.000   0.000
   26    8   12   13        3       0.628   1.883   0.000  -2.510  -0.000   0.000
   27    9    8    7        3       0.628   1.883   0.000  -2.510  -0.000   0.000
   19    3    2    4        3       0.628   1.883   0.000  -2.510  -0.000   0.000
   35   13   12   11        3       0.628   1.883   0.000  -2.510  -0.000   0.000
   26    8    7    6        3       0.628   1.883   0.000  -2.510  -0.000   0.000
   33   12   13    6        3       0.628   1.883   0.000  -2.510  -0.000   0.000
   24    7    6   13        3       0.628   1.883   0.000  -2.510  -0.000   0.000
   27    9   10   11        3       0.628   1.883   0.000  -2.510  -0.000   0.000
   16    1    2    4        3       0.628   1.883   0.000  -2.510  -0.000   0.000
   23    6   13   12        3       0.628   1.883   0.000  -2.510  -0.000   0.000
   32   11   12    8        3       0.628   1.883   0.000  -2.510  -0.000   0.000
   14    1    2    4        3       0.628   1.883   0.000  -2.510  -0.000   0.000
   30   10   11   12        3       0.628   1.883   0.000  -2.510  -0.000   0.000
   26    8   12   11        3       0.628   1.883   0.000  -2.510  -0.000   0.000
   15    1    2    4        3       0.628   1.883   0.000  -2.510  -0.000   0.000
   21    4    2    1        3       0.628   1.883   0.000  -2.510  -0.000   0.000
   25    7    8    9        3       0.628   1.883   0.000  -2.510  -0.000   0.000
   20    3    2    4        3       0.628   1.883   0.000  -2.510  -0.000   0.000
   31   11   10    9        3       0.628   1.883   0.000  -2.510  -0.000   0.000
   28    9    8    7        3       0.628   1.883   0.000  -2.510  -0.000   0.000
   16    1    2    3        3       0.628   1.883   0.000  -2.510  -0.000   0.000
   15    1    2    3        3       0.628   1.883   0.000  -2.510  -0.000   0.000
   33   12   11   10        3       0.628   1.883   0.000  -2.510  -0.000   0.000
   29   10   11   12        3       0.628   1.883   0.000  -2.510  -0.000   0.000
   18    3    2    4        3       0.628   1.883   0.000  -2.510  -0.000   0.000
   33   12    8    7        3       0.628   1.883   0.000  -2.510  -0.000   0.000
   32   11   12   13        3       0.628   1.883   0.000  -2.510  -0.000   0.000
   23    6    7    8        3       0.628   1.883   0.000  -2.510  -0.000   0.000
   20    3    2    1        3       0.628   1.883   0.000  -2.510  -0.000   0.000
   18    3    2    1        3       0.628   1.883   0.000  -2.510  -0.000   0.000
   14    1    2    3        3       0.628   1.883   0.000  -2.510  -0.000   0.000
   28    9    8   12        3       0.628   1.883   0.000  -2.510  -0.000   0.000
   25    7    8   12        3       0.628   1.883   0.000  -2.510  -0.000   0.000
   34   13    6    7        3       0.628   1.883   0.000  -2.510  -0.000   0.000
   19    3    2    1        3       0.628   1.883   0.000  -2.510  -0.000   0.000
   33   12    8    9        3       0.628   1.883   0.000  -2.510  -0.000   0.000
   21    4    2    3        3       0.628   1.883   0.000  -2.510  -0.000   0.000
   35   13   12    8        3       0.628   1.883   0.000  -2.510  -0.000   0.000
   26    8    9   10        3       0.628   1.883   0.000  -2.510  -0.000   0.000
   24    7    8   12        3       0.628   1.883   0.000  -2.510  -0.000   0.000
   29   10    9   27        3       0.628   1.883   0.000  -2.510  -0.000   0.000
   31   11   10   30        3       0.628   1.883   0.000  -2.510  -0.000   0.000
   31   11   10   29        3       0.628   1.883   0.000  -2.510  -0.000   0.000
   21    4    2   17        3       0.628   1.883   0.000  -2.510  -0.000   0.000
   32   11   10   29        3       0.628   1.883   0.000  -2.510  -0.000   0.000
   20    3    2   17        3       0.628   1.883   0.000  -2.510  -0.000   0.000
   19    3    2   17        3       0.628   1.883   0.000  -2.510  -0.000   0.000
   34   13   12   33        3       0.628   1.883   0.000  -2.510  -0.000   0.000
   35   13   12   33        3       0.628   1.883   0.000  -2.510  -0.000   0.000
   33   12    8   26        3       0.628   1.883   0.000  -2.510  -0.000   0.000
   29   10    9   28        3       0.628   1.883   0.000  -2.510  -0.000   0.000
   17    2    1   14        3       0.628   1.883   0.000  -2.510  -0.000   0.000
   33   12   11   31        3       0.628   1.883   0.000  -2.510  -0.000   0.000
   17    2    1   15        3       0.628   1.883   0.000  -2.510  -0.000   0.000
   30   10    9   28        3       0.628   1.883   0.000  -2.510  -0.000   0.000
   22    4    2   17        3       0.628   1.883   0.000  -2.510  -0.000   0.000
   32   11   10   30        3       0.628   1.883   0.000  -2.510  -0.000   0.000
   33   12   11   32        3       0.628   1.883   0.000  -2.510  -0.000   0.000
   26    8    7   24        3       0.628   1.883   0.000  -2.510  -0.000   0.000
   24    7    6   23        3       0.628   1.883   0.000  -2.510  -0.000   0.000
   18    3    2   17        3       0.628   1.883   0.000  -2.510  -0.000   0.000
   34   13    6   23        3       0.628   1.883   0.000  -2.510  -0.000   0.000
   25    7    6   23        3       0.628   1.883   0.000  -2.510  -0.000   0.000
   35   13    6   23        3       0.628   1.883   0.000  -2.510  -0.000   0.000
   27    9    8   26        3       0.628   1.883   0.000  -2.510  -0.000   0.000
   17    2    1   16        3       0.628   1.883   0.000  -2.510  -0.000   0.000
   30   10    9   27        3       0.628   1.883   0.000  -2.510  -0.000   0.000
   28    9    8   26        3       0.628   1.883   0.000  -2.510  -0.000   0.000
   26    8    7   25        3       0.628   1.883   0.000  -2.510  -0.000   0.000
   35   13    6    5        3       0.946   2.837   0.000  -3.782  -0.000   0.000
   25    7    6    5        3       0.946   2.837   0.000  -3.782  -0.000   0.000
   17    2    4    5        3       0.946   2.837   0.000  -3.782  -0.000   0.000
   34   13    6    5        3       0.946   2.837   0.000  -3.782  -0.000   0.000
   24    7    6    5        3       0.946   2.837   0.000  -3.782  -0.000   0.000
   22    4    5    6        3       1.354   4.061   0.000  -5.414  -0.000   0.000
   21    4    5    6        3       1.354   4.061   0.000  -5.414  -0.000   0.000
   23    6    5    4        3       1.354   4.061   0.000  -5.414  -0.000   0.000
    5    4    2    3        3       3.425  -3.860   2.594  -2.159  -0.000   0.000
    5    4    2    1        3       3.425  -3.860   2.594  -2.159  -0.000   0.000

[ pairs ]
     1     5    1
     3     5    1
     2     6    1
     4     7    1
     5     8    1
     6     9    1
     7    10    1
     6    11    1
     5    12    1
     4    13    1
     3    14    1
     7    11    1
     4    14    1
     3    15    1
     4    15    1
     3    16    1
     1    18    1
     4    16    1
     1    19    1
     1    20    1
     9    13    1
     5    17    1
     4    18    1
     1    21    1
    10    13    1
     4    19    1
     1    22    1
     4    20    1
     3    21    1
     3    22    1
     6    21    1
     4    23    1
     6    22    1
     5    24    1
     5    25    1
    14    17    1
     8    23    1
    15    17    1
     6    26    1
    16    17    1
     9    24    1
     9    25    1
     7    27    1
    17    18    1
    12    23    1
     7    28    1
    17    19    1
    12    24    1
    10    26    1
    17    20    1
    13    24    1
    12    25    1
    11    26    1
     8    29    1
    17    21    1
    13    25    1
    11    27    1
     8    30    1
    17    22    1
    13    26    1
    12    27    1
    11    28    1
     8    31    1
     6    33    1
     5    34    1
    12    28    1
     9    31    1
     8    32    1
     7    33    1
     5    35    1
    12    29    1
     9    32    1
     7    34    1
    12    30    1
     9    33    1
     8    34    1
     7    35    1
    10    33    1
     8    35    1
    13    31    1
    13    32    1
    11    34    1
    11    35    1
    23    24    1
    23    25    1
    24    26    1
    25    26    1
    26    27    1
    26    28    1
    27    29    1
    28    29    1
    27    30    1
    23    34    1
    28    30    1
    23    35    1
    26    33    1
    29    31    1
    30    31    1
    29    32    1
    30    32    1
    31    33    1
    32    33    1
    33    34    1
    33    35    1

