LIGPARGEN GENERATED GRO FILE
   30
    1UNK    C00    1   0.100   0.100   0.000
    1UNK    C01    2  -0.052   0.100   0.000
    1UNK    C02    3  -0.105   0.100   0.143
    1UNK    O03    4  -0.249   0.106   0.146
    1UNK    C04    5  -0.313  -0.008   0.183
    1UNK    O05    6  -0.262  -0.120   0.181
    1UNK    C06    7  -0.454   0.022   0.234
    1UNK    C07    8  -0.514  -0.105   0.298
    1UNK    C08    9  -0.440   0.128   0.342
    1UNK    N09   10  -0.429   0.216   0.432
    1UNK    C0A   11  -0.542   0.075   0.119
    1UNK    C0B   12  -0.687   0.109   0.159
    1UNK    C0C   13  -0.767   0.161   0.040
    1UNK    H0D   14   0.139   0.100  -0.102
    1UNK    H0E   15   0.139   0.011   0.051
    1UNK    H0F   16   0.139   0.189   0.051
    1UNK    H0G   17  -0.090   0.012  -0.054
    1UNK    H0H   18  -0.089   0.188  -0.054
    1UNK    H0I   19  -0.070   0.190   0.195
    1UNK    H0J   20  -0.067   0.014   0.199
    1UNK    H0K   21  -0.447  -0.147   0.374
    1UNK    H0M   22  -0.530  -0.182   0.222
    1UNK    H0N   23  -0.609  -0.085   0.348
    1UNK    H0O   24  -0.544   0.001   0.038
    1UNK    H0P   25  -0.496   0.166   0.076
    1UNK    H0Q   26  -0.688   0.185   0.237
    1UNK    H0R   27  -0.737   0.020   0.198
    1UNK    H0S   28  -0.722   0.251  -0.001
    1UNK    H0T   29  -0.869   0.186   0.072
    1UNK    H0U   30  -0.774   0.086  -0.039
   1.00000   1.00000   1.00000

