LIGPARGEN GENERATED GRO FILE
   37
    1UNK    C00    1   0.100   0.100   0.000
    1UNK    C01    2  -0.053   0.100   0.000
    1UNK    C02    3  -0.101   0.100   0.146
    1UNK    C03    4  -0.116   0.220  -0.076
    1UNK    C04    5  -0.092   0.233  -0.230
    1UNK    C05    6  -0.173   0.354  -0.281
    1UNK    C06    7   0.051   0.263  -0.257
    1UNK    N07    8   0.163   0.287  -0.278
    1UNK    C08    9  -0.137   0.103  -0.304
    1UNK    C09   10  -0.112   0.104  -0.452
    1UNK    C0A   11  -0.161  -0.012  -0.536
    1UNK    C0B   12  -0.217   0.126  -0.560
    1UNK    C0C   13  -0.363   0.147  -0.526
    1UNK    C0D   14  -0.173   0.202  -0.683
    1UNK    H0E   15   0.139   0.023   0.067
    1UNK    H0F   16   0.140   0.196   0.033
    1UNK    H0G   17   0.140   0.077  -0.099
    1UNK    H0H   18  -0.087   0.006  -0.045
    1UNK    H0I   19  -0.081   0.196   0.195
    1UNK    H0J   20  -0.051   0.021   0.204
    1UNK    H0K   21  -0.209   0.082   0.151
    1UNK    H0M   22  -0.083   0.312  -0.027
    1UNK    H0N   23  -0.225   0.215  -0.060
    1UNK    H0O   24  -0.144   0.446  -0.228
    1UNK    H0P   25  -0.280   0.339  -0.267
    1UNK    H0Q   26  -0.155   0.372  -0.388
    1UNK    H0R   27  -0.243   0.086  -0.282
    1UNK    H0S   28  -0.083   0.017  -0.263
    1UNK    H0T   29  -0.010   0.134  -0.475
    1UNK    H0U   30  -0.224  -0.087  -0.489
    1UNK    H0V   31  -0.092  -0.053  -0.609
    1UNK    H0W   32  -0.396   0.084  -0.442
    1UNK    H0X   33  -0.425   0.121  -0.612
    1UNK    H0Y   34  -0.382   0.251  -0.500
    1UNK    H0Z   35  -0.067   0.183  -0.706
    1UNK    H10   36  -0.185   0.309  -0.667
    1UNK    H11   37  -0.232   0.172  -0.770
   1.00000   1.00000   1.00000

