LIGPARGEN GENERATED GRO FILE
   25
    1UNK    C00    1   0.100   0.100   0.000
    1UNK    C01    2  -0.052   0.100   0.000
    1UNK    O02    3  -0.097   0.100   0.136
    1UNK    C03    4  -0.108  -0.023   0.193
    1UNK    O04    5  -0.105  -0.129   0.133
    1UNK    O05    6  -0.114  -0.005   0.327
    1UNK    C06    7  -0.102  -0.126   0.401
    1UNK    O07    8   0.029  -0.183   0.396
    1UNK    C08    9   0.129  -0.098   0.451
    1UNK    C09   10   0.266  -0.166   0.442
    1UNK    C0A   11   0.306  -0.196   0.298
    1UNK    Cl0   12   0.390  -0.063   0.518
    1UNK    H0C   13   0.140   0.100  -0.102
    1UNK    H0D   14   0.139   0.012   0.053
    1UNK    H0E   15   0.138   0.188   0.053
    1UNK    H0F   16  -0.092   0.015  -0.057
    1UNK    H0G   17  -0.089   0.191  -0.047
    1UNK    H0H   18  -0.174  -0.201   0.366
    1UNK    H0I   19  -0.127  -0.104   0.505
    1UNK    H0J   20   0.104  -0.078   0.556
    1UNK    H0K   21   0.131  -0.003   0.397
    1UNK    H0M   22   0.263  -0.261   0.497
    1UNK    H0N   23   0.310  -0.104   0.238
    1UNK    H0O   24   0.235  -0.264   0.250
    1UNK    H0P   25   0.405  -0.243   0.293
   1.00000   1.00000   1.00000

