
;
; GENERATED BY LigParGen Server
; Jorgensen Lab @ Yale University 
;
[ atomtypes ]
  opls_818  H818     1.0080     0.000    A    2.50000E-01   1.25520E-01
  opls_824  H824     1.0080     0.000    A    2.50000E-01   1.25520E-01
  opls_804  O804    15.9990     0.000    A    2.96000E-01   8.78640E-01
  opls_813  H813     1.0080     0.000    A    2.50000E-01   1.25520E-01
  opls_806  C806    12.0110     0.000    A    3.50000E-01   2.76144E-01
  opls_815  H815     1.0080     0.000    A    2.50000E-01   1.25520E-01
  opls_801  C801    12.0110     0.000    A    3.50000E-01   2.76144E-01
  opls_822  H822     1.0080     0.000    A    2.50000E-01   1.25520E-01
  opls_814  H814     1.0080     0.000    A    2.50000E-01   1.25520E-01
  opls_821  H821     1.0080     0.000    A    2.50000E-01   1.25520E-01
  opls_820  H820     1.0080     0.000    A    2.50000E-01   1.25520E-01
  opls_809  C809    12.0110     0.000    A    3.50000E-01   2.76144E-01
  opls_816  H816     1.0080     0.000    A    2.50000E-01   1.25520E-01
  opls_800  C800    12.0110     0.000    A    3.50000E-01   2.76144E-01
  opls_823  H823     1.0080     0.000    A    2.50000E-01   1.25520E-01
  opls_805  O805    15.9990     0.000    A    2.90000E-01   5.85760E-01
  opls_811 Cl811    35.4500     0.000    A    3.40000E-01   1.25520E+00
  opls_819  H819     1.0080     0.000    A    2.50000E-01   1.25520E-01
  opls_810  C810    12.0110     0.000    A    3.50000E-01   2.76144E-01
  opls_802  O802    15.9990     0.000    A    2.90000E-01   5.85760E-01
  opls_803  C803    12.0110     0.000    A    3.55000E-01   2.92880E-01
  opls_808  C808    12.0110     0.000    A    3.50000E-01   2.76144E-01
  opls_807  O807    15.9990     0.000    A    2.90000E-01   5.85760E-01
  opls_817  H817     1.0080     0.000    A    2.50000E-01   1.25520E-01
  opls_812  H812     1.0080     0.000    A    2.50000E-01   1.25520E-01
[ moleculetype ]
; Name               nrexcl
UNK                   3
[ atoms ]
;   nr       type  resnr residue  atom   cgnr     charge       mass  
     1   opls_800      1    UNK   C00      1    -0.2809    12.0110 
     2   opls_801      1    UNK   C01      1     0.0165    12.0110 
     3   opls_802      1    UNK   O02      1     -0.329    15.9990 
     4   opls_803      1    UNK   C03      1     0.5745    12.0110 
     5   opls_804      1    UNK   O04      1    -0.4741    15.9990 
     6   opls_805      1    UNK   O05      1    -0.3402    15.9990 
     7   opls_806      1    UNK   C06      1      0.179    12.0110 
     8   opls_807      1    UNK   O07      1     -0.381    15.9990 
     9   opls_808      1    UNK   C08      1    -0.0065    12.0110 
    10   opls_809      1    UNK   C09      1     0.0808    12.0110 
    11   opls_810      1    UNK   C0A      1    -0.2477    12.0110 
    12   opls_811      1    UNK   Cl0      1    -0.2777    35.4500 
    13   opls_812      1    UNK   H0C      1     0.1013     1.0080 
    14   opls_813      1    UNK   H0D      1     0.1013     1.0080 
    15   opls_814      1    UNK   H0E      1     0.1013     1.0080 
    16   opls_815      1    UNK   H0F      1     0.1252     1.0080 
    17   opls_816      1    UNK   H0G      1     0.1252     1.0080 
    18   opls_817      1    UNK   H0H      1       0.14     1.0080 
    19   opls_818      1    UNK   H0I      1       0.14     1.0080 
    20   opls_819      1    UNK   H0J      1     0.1018     1.0080 
    21   opls_820      1    UNK   H0K      1     0.1018     1.0080 
    22   opls_821      1    UNK   H0M      1     0.1366     1.0080 
    23   opls_822      1    UNK   H0N      1      0.104     1.0080 
    24   opls_823      1    UNK   H0O      1      0.104     1.0080 
    25   opls_824      1    UNK   H0P      1      0.104     1.0080 
[ bonds ]
    2     1     1      0.1529 224262.400
    3     2     1      0.1410 267776.000
    4     3     1      0.1327 179075.200
    5     4     1      0.1229 476976.000
    6     4     1      0.1327 179075.200
    7     6     1      0.1380 267776.000
    8     7     1      0.1380 267776.000
    9     8     1      0.1410 267776.000
   10     9     1      0.1529 224262.400
   11    10     1      0.1529 224262.400
   12    10     1      0.1781 205016.000
   13     1     1      0.1090 284512.000
   14     1     1      0.1090 284512.000
   15     1     1      0.1090 284512.000
   16     2     1      0.1090 284512.000
   17     2     1      0.1090 284512.000
   18     7     1      0.1090 284512.000
   19     7     1      0.1090 284512.000
   20     9     1      0.1090 284512.000
   21     9     1      0.1090 284512.000
   22    10     1      0.1090 284512.000
   23    11     1      0.1090 284512.000
   24    11     1      0.1090 284512.000
   25    11     1      0.1090 284512.000

[ angles ]
;  ai    aj    ak funct            c0            c1            c2            c3 
    1     2     3     1    109.500    418.400
    2     3     4     1    116.900    694.544
    3     4     5     1    123.400    694.544
    3     4     6     1    118.180    584.923
    4     6     7     1    116.900    694.544
    6     7     8     1    111.550    774.877
    7     8     9     1    109.500    502.080
    8     9    10     1    109.500    418.400
    9    10    11     1    112.700    488.273
    9    10    12     1    109.800    577.392
    2     1    13     1    110.700    313.800
    2     1    14     1    110.700    313.800
    2     1    15     1    110.700    313.800
    1     2    16     1    110.700    313.800
    1     2    17     1    110.700    313.800
    6     7    18     1    109.500    292.880
    6     7    19     1    109.500    292.880
    8     9    20     1    109.500    292.880
    8     9    21     1    109.500    292.880
    9    10    22     1    110.700    313.800
   10    11    23     1    110.700    313.800
   10    11    24     1    110.700    313.800
   10    11    25     1    110.700    313.800
    5     4     6     1    123.400    694.544
    8     7    18     1    109.500    292.880
   12    10    22     1    107.600    426.768
   11    10    12     1    109.800    577.392
   24    11    25     1    107.800    276.144
    3     2    17     1    109.500    292.880
   23    11    24     1    107.800    276.144
   20     9    21     1    107.800    276.144
    3     2    16     1    109.500    292.880
   10     9    21     1    110.700    313.800
   14     1    15     1    107.800    276.144
   16     2    17     1    107.800    276.144
   13     1    14     1    107.800    276.144
    8     7    19     1    109.500    292.880
   11    10    22     1    110.700    313.800
   23    11    25     1    107.800    276.144
   13     1    15     1    107.800    276.144
   18     7    19     1    109.500    276.144
   10     9    20     1    110.700    313.800

[ dihedrals ]
; IMPROPER DIHEDRAL ANGLES 
;  ai    aj    ak    al funct            c0            c1            c2            c3            c4            c5
     6     4     3     5    4        180.000     43.932     2  

[ dihedrals ]
; PROPER DIHEDRAL ANGLES
;  ai    aj    ak    al funct            c0            c1            c2            c3            c4            c5
    4    3    2    1        3      -2.197   5.201   0.527  -3.531  -0.000   0.000
    7    6    4    5        3      21.439   0.000  -21.439  -0.000  -0.000   0.000
    7    6    4    3        3      31.206  -9.768  -21.439  -0.000  -0.000   0.000
   11   10    9    8        3       2.874   0.582   2.092  -5.548  -0.000   0.000
   10    9    8    7        3       1.715   2.845   1.046  -5.607  -0.000   0.000
    9    8    7    6        3      -6.458   0.810   5.682  -0.033  -0.000   0.000
   12   10    9    8        3       2.874   0.582   2.092  -5.548  -0.000   0.000
   18    7    6    4        3       1.590   4.770   0.000  -6.360  -0.000   0.000
   19    7    6    4        3       1.590   4.770   0.000  -6.360  -0.000   0.000
   19    7    8    9        3       1.590   4.770   0.000  -6.360  -0.000   0.000
   18    7    8    9        3       1.590   4.770   0.000  -6.360  -0.000   0.000
   25   11   10    9        3       0.628   1.883   0.000  -2.510  -0.000   0.000
   21    9   10   11        3       0.628   1.883   0.000  -2.510  -0.000   0.000
   24   11   10    9        3       0.628   1.883   0.000  -2.510  -0.000   0.000
   20    9   10   11        3       0.628   1.883   0.000  -2.510  -0.000   0.000
   23   11   10    9        3       0.628   1.883   0.000  -2.510  -0.000   0.000
   23   11   10   12        3       0.837   2.510   0.000  -3.347  -0.000   0.000
   20    9   10   12        3       0.837   2.510   0.000  -3.347  -0.000   0.000
   24   11   10   12        3       0.837   2.510   0.000  -3.347  -0.000   0.000
   25   11   10   12        3       0.837   2.510   0.000  -3.347  -0.000   0.000
   21    9   10   12        3       0.837   2.510   0.000  -3.347  -0.000   0.000
   25   11   10   22        3       0.628   1.883   0.000  -2.510  -0.000   0.000
   17    2    1   15        3       0.628   1.883   0.000  -2.510  -0.000   0.000
   16    2    1   13        3       0.628   1.883   0.000  -2.510  -0.000   0.000
   17    2    1   14        3       0.628   1.883   0.000  -2.510  -0.000   0.000
   16    2    1   14        3       0.628   1.883   0.000  -2.510  -0.000   0.000
   24   11   10   22        3       0.628   1.883   0.000  -2.510  -0.000   0.000
   22   10    9   20        3       0.628   1.883   0.000  -2.510  -0.000   0.000
   23   11   10   22        3       0.628   1.883   0.000  -2.510  -0.000   0.000
   22   10    9   21        3       0.628   1.883   0.000  -2.510  -0.000   0.000
   16    2    1   15        3       0.628   1.883   0.000  -2.510  -0.000   0.000
   17    2    1   13        3       0.628   1.883   0.000  -2.510  -0.000   0.000
   22   10    9    8        3       0.979   2.937   0.000  -3.916  -0.000   0.000
   14    1    2    3        3       0.979   2.937   0.000  -3.916  -0.000   0.000
   13    1    2    3        3       0.979   2.937   0.000  -3.916  -0.000   0.000
   15    1    2    3        3       0.979   2.937   0.000  -3.916  -0.000   0.000
   17    2    3    4        3       0.414   1.243   0.000  -1.657  -0.000   0.000
   16    2    3    4        3       0.414   1.243   0.000  -1.657  -0.000   0.000
   21    9    8    7        3       1.590   4.770   0.000  -6.360  -0.000   0.000
   20    9    8    7        3       1.590   4.770   0.000  -6.360  -0.000   0.000
    5    4    3    2        3      21.439   0.000  -21.439  -0.000  -0.000   0.000
    6    4    3    2        3      31.206  -9.768  -21.439  -0.000  -0.000   0.000
    8    7    6    4        3      -6.458   0.810   5.682  -0.033  -0.000   0.000

[ pairs ]
     1     4    1
     2     5    1
     2     6    1
     3     7    1
     5     7    1
     4     8    1
     6     9    1
     3    13    1
     7    10    1
     3    14    1
     3    15    1
     8    11    1
     8    12    1
     4    16    1
     4    17    1
     4    18    1
     4    19    1
     9    18    1
     7    20    1
     9    19    1
     7    21    1
    13    16    1
    14    16    1
    13    17    1
     8    22    1
    15    16    1
    14    17    1
    11    20    1
    15    17    1
    12    20    1
    11    21    1
     9    23    1
    12    21    1
     9    24    1
     9    25    1
    12    23    1
    12    24    1
    12    25    1
    20    22    1
    21    22    1
    22    23    1
    22    24    1
    22    25    1

