LIGPARGEN GENERATED GRO FILE
   40
    1UNK    C00    1   0.100   0.100   0.000
    1UNK    C01    2  -0.052   0.100   0.000
    1UNK    C02    3  -0.108   0.100   0.142
    1UNK    C03    4  -0.260   0.106   0.143
    1UNK    O04    5  -0.328   0.057   0.053
    1UNK    C05    6  -0.325   0.178   0.263
    1UNK    C06    7  -0.338   0.324   0.217
    1UNK    C07    8  -0.456   0.108   0.308
    1UNK    C08    9  -0.423  -0.038   0.350
    1UNK    C09   10  -0.541   0.176   0.423
    1UNK    C0A   11  -0.459   0.191   0.553
    1UNK    C0B   12  -0.615   0.309   0.386
    1UNK    C0C   13  -0.703   0.294   0.262
    1UNK    C0D   14  -0.702   0.363   0.500
    1UNK    H0E   15   0.138   0.100  -0.103
    1UNK    H0F   16   0.139   0.011   0.051
    1UNK    H0G   17   0.140   0.189   0.051
    1UNK    H0H   18  -0.088   0.012  -0.055
    1UNK    H0I   19  -0.088   0.188  -0.054
    1UNK    H0J   20  -0.069   0.187   0.196
    1UNK    H0K   21  -0.078   0.010   0.196
    1UNK    H0M   22  -0.252   0.174   0.345
    1UNK    H0N   23  -0.425   0.337   0.152
    1UNK    H0O   24  -0.251   0.357   0.161
    1UNK    H0P   25  -0.347   0.391   0.303
    1UNK    H0Q   26  -0.521   0.099   0.220
    1UNK    H0R   27  -0.377  -0.044   0.448
    1UNK    H0S   28  -0.354  -0.087   0.280
    1UNK    H0T   29  -0.514  -0.099   0.351
    1UNK    H0U   30  -0.621   0.105   0.447
    1UNK    H0V   31  -0.367   0.248   0.536
    1UNK    H0W   32  -0.432   0.093   0.594
    1UNK    H0X   33  -0.515   0.240   0.632
    1UNK    H0Y   34  -0.542   0.388   0.365
    1UNK    H0Z   35  -0.771   0.208   0.272
    1UNK    H10   36  -0.644   0.280   0.171
    1UNK    H11   37  -0.765   0.383   0.246
    1UNK    H12   38  -0.772   0.287   0.537
    1UNK    H13   39  -0.761   0.450   0.467
    1UNK    H14   40  -0.642   0.398   0.584
   1.00000   1.00000   1.00000

