
;
; GENERATED BY LigParGen Server
; Jorgensen Lab @ Yale University 
;
[ atomtypes ]
  opls_818  H818     1.0080     0.000    A    2.50000E-01   1.25520E-01
  opls_824  H824     1.0080     0.000    A    2.50000E-01   1.25520E-01
  opls_813  H813     1.0080     0.000    A    2.50000E-01   1.25520E-01
  opls_802  F802    18.9984     0.000    A    2.90000E-01   2.51040E-01
  opls_815  H815     1.0080     0.000    A    2.50000E-01   1.25520E-01
  opls_801  C801    12.0110     0.000    A    3.50000E-01   2.76144E-01
  opls_822  H822     1.0080     0.000    A    2.50000E-01   1.25520E-01
  opls_803  C803    12.0110     0.000    A    3.50000E-01   2.76144E-01
  opls_825  H825     1.0080     0.000    A    2.50000E-01   1.25520E-01
  opls_814  H814     1.0080     0.000    A    2.50000E-01   1.25520E-01
  opls_821  H821     1.0080     0.000    A    2.50000E-01   1.25520E-01
  opls_820  H820     1.0080     0.000    A    2.50000E-01   1.25520E-01
  opls_811  H811     1.0080     0.000    A    2.50000E-01   1.25520E-01
  opls_810  H810     1.0080     0.000    A    2.50000E-01   1.25520E-01
  opls_816  H816     1.0080     0.000    A    2.50000E-01   1.25520E-01
  opls_800  C800    12.0110     0.000    A    3.50000E-01   2.76144E-01
  opls_806  C806    12.0110     0.000    A    3.50000E-01   2.76144E-01
  opls_809  F809    18.9984     0.000    A    2.90000E-01   2.51040E-01
  opls_823  H823     1.0080     0.000    A    2.50000E-01   1.25520E-01
  opls_819  H819     1.0080     0.000    A    2.50000E-01   1.25520E-01
  opls_804  C804    12.0110     0.000    A    3.50000E-01   2.76144E-01
  opls_808  C808    12.0110     0.000    A    3.50000E-01   2.76144E-01
  opls_817  H817     1.0080     0.000    A    2.50000E-01   1.25520E-01
  opls_812  H812     1.0080     0.000    A    2.50000E-01   1.25520E-01
  opls_805  S805    32.0600     0.000    A    3.60000E-01   1.48532E+00
  opls_807  C807    12.0110     0.000    A    3.50000E-01   2.76144E-01
[ moleculetype ]
; Name               nrexcl
UNK                   3
[ atoms ]
;   nr       type  resnr residue  atom   cgnr     charge       mass  
     1   opls_800      1    UNK   C00      1    -0.2766    12.0110 
     2   opls_801      1    UNK   C01      1     0.1052    12.0110 
     3   opls_802      1    UNK   F02      1     -0.195    18.9984 
     4   opls_803      1    UNK   C03      1    -0.3375    12.0110 
     5   opls_804      1    UNK   C04      1    -0.2004    12.0110 
     6   opls_805      1    UNK   S05      1     0.2699    32.0600 
     7   opls_806      1    UNK   C06      1    -0.3979    12.0110 
     8   opls_807      1    UNK   C07      1    -0.3992    12.0110 
     9   opls_808      1    UNK   C08      1    -0.1722    12.0110 
    10   opls_809      1    UNK   F09      1    -0.1699    18.9984 
    11   opls_810      1    UNK   H0A      1     0.0972     1.0080 
    12   opls_811      1    UNK   H0B      1     0.0972     1.0080 
    13   opls_812      1    UNK   H0C      1     0.0972     1.0080 
    14   opls_813      1    UNK   H0D      1      0.094     1.0080 
    15   opls_814      1    UNK   H0E      1     0.1348     1.0080 
    16   opls_815      1    UNK   H0F      1      0.082     1.0080 
    17   opls_816      1    UNK   H0G      1      0.082     1.0080 
    18   opls_817      1    UNK   H0H      1      0.082     1.0080 
    19   opls_818      1    UNK   H0I      1     0.1271     1.0080 
    20   opls_819      1    UNK   H0J      1     0.1271     1.0080 
    21   opls_820      1    UNK   H0K      1     0.1271     1.0080 
    22   opls_821      1    UNK   H0M      1     0.1267     1.0080 
    23   opls_822      1    UNK   H0N      1     0.1267     1.0080 
    24   opls_823      1    UNK   H0O      1     0.1267     1.0080 
    25   opls_824      1    UNK   H0P      1     0.1228     1.0080 
    26   opls_825      1    UNK   H0Q      1     0.1228     1.0080 
[ bonds ]
    2     1     1      0.1529 224262.400
    3     2     1      0.1360 307105.600
    4     2     1      0.1529 224262.400
    5     4     1      0.1529 224262.400
    6     4     1      0.1810 185769.600
    7     6     1      0.1810 185769.600
    8     6     1      0.1810 185769.600
    9     6     1      0.1810 185769.600
   10     9     1      0.1360 307105.600
   11     1     1      0.1090 284512.000
   12     1     1      0.1090 284512.000
   13     1     1      0.1090 284512.000
   14     2     1      0.1090 284512.000
   15     4     1      0.1090 284512.000
   16     5     1      0.1090 284512.000
   17     5     1      0.1090 284512.000
   18     5     1      0.1090 284512.000
   19     7     1      0.1090 284512.000
   20     7     1      0.1090 284512.000
   21     7     1      0.1090 284512.000
   22     8     1      0.1090 284512.000
   23     8     1      0.1090 284512.000
   24     8     1      0.1090 284512.000
   25     9     1      0.1090 284512.000
   26     9     1      0.1090 284512.000

[ angles ]
;  ai    aj    ak funct            c0            c1            c2            c3 
    1     2     3     1    109.500    418.400
    1     2     4     1    112.700    488.273
    2     4     5     1    112.700    488.273
    2     4     6     1    114.700    418.400
    4     6     7     1     98.900    518.816
    4     6     8     1     98.900    518.816
    4     6     9     1     98.900    518.816
    6     9    10     1    110.580    432.207
    2     1    11     1    110.700    313.800
    2     1    12     1    110.700    313.800
    2     1    13     1    110.700    313.800
    1     2    14     1    110.700    313.800
    2     4    15     1    110.700    313.800
    4     5    16     1    110.700    313.800
    4     5    17     1    110.700    313.800
    4     5    18     1    110.700    313.800
    6     7    19     1    109.500    292.880
    6     7    20     1    109.500    292.880
    6     7    21     1    109.500    292.880
    6     8    22     1    109.500    292.880
    6     8    23     1    109.500    292.880
    6     8    24     1    109.500    292.880
    6     9    25     1    109.500    292.880
    6     9    26     1    109.500    292.880
    6     4    15     1    109.500    292.880
    5     4     6     1    114.700    418.400
   17     5    18     1    107.800    276.144
    3     2    14     1    107.000    334.720
    7     6     9     1     98.900    518.816
   11     1    13     1    107.800    276.144
   23     8    24     1    107.800    276.144
   25     9    26     1    107.800    276.144
   16     5    17     1    107.800    276.144
   20     7    21     1    107.800    276.144
   10     9    26     1    107.000    334.720
   22     8    24     1    107.800    276.144
    4     2    14     1    110.700    313.800
   22     8    23     1    107.800    276.144
   19     7    20     1    107.800    276.144
   11     1    12     1    107.800    276.144
   12     1    13     1    107.800    276.144
    3     2     4     1    109.500    418.400
    5     4    15     1    110.700    313.800
   10     9    25     1    107.000    334.720
    7     6     8     1     98.900    518.816
   16     5    18     1    107.800    276.144
    8     6     9     1     98.900    518.816
   19     7    21     1    107.800    276.144

[ dihedrals ]
; IMPROPER DIHEDRAL ANGLES 
;  ai    aj    ak    al funct            c0            c1            c2            c3            c4            c5

[ dihedrals ]
; PROPER DIHEDRAL ANGLES
;  ai    aj    ak    al funct            c0            c1            c2            c3            c4            c5
    5    4    2    1        3       2.301  -1.464   0.837  -1.674  -0.000   0.000
    5    4    2    3        3      -0.209   1.883   1.674  -3.347  -0.000   0.000
    8    6    4    5        3       0.941   2.314   2.410  -5.665  -0.000   0.000
    9    6    4    2        3       0.941   2.314   2.410  -5.665  -0.000   0.000
    8    6    4    2        3       0.941   2.314   2.410  -5.665  -0.000   0.000
    9    6    4    5        3       0.941   2.314   2.410  -5.665  -0.000   0.000
    7    6    4    5        3       0.941   2.314   2.410  -5.665  -0.000   0.000
    7    6    4    2        3       0.941   2.314   2.410  -5.665  -0.000   0.000
   10    9    6    7        3       1.354   4.061   0.000  -5.414  -0.000   0.000
   10    9    6    8        3       1.354   4.061   0.000  -5.414  -0.000   0.000
   10    9    6    4        3       1.354   4.061   0.000  -5.414  -0.000   0.000
   17    5    4    2        3       0.628   1.883   0.000  -2.510  -0.000   0.000
   15    4    2    1        3       0.628   1.883   0.000  -2.510  -0.000   0.000
   18    5    4    2        3       0.628   1.883   0.000  -2.510  -0.000   0.000
   13    1    2    4        3       0.628   1.883   0.000  -2.510  -0.000   0.000
   16    5    4    2        3       0.628   1.883   0.000  -2.510  -0.000   0.000
   11    1    2    4        3       0.628   1.883   0.000  -2.510  -0.000   0.000
   14    2    4    5        3       0.628   1.883   0.000  -2.510  -0.000   0.000
   12    1    2    4        3       0.628   1.883   0.000  -2.510  -0.000   0.000
   13    1    2    3        3       0.837   2.510   0.000  -3.347  -0.000   0.000
   15    4    2    3        3       0.837   2.510   0.000  -3.347  -0.000   0.000
   11    1    2    3        3       0.837   2.510   0.000  -3.347  -0.000   0.000
   12    1    2    3        3       0.837   2.510   0.000  -3.347  -0.000   0.000
   18    5    4   15        3       0.628   1.883   0.000  -2.510  -0.000   0.000
   14    2    1   13        3       0.628   1.883   0.000  -2.510  -0.000   0.000
   14    2    1   12        3       0.628   1.883   0.000  -2.510  -0.000   0.000
   17    5    4   15        3       0.628   1.883   0.000  -2.510  -0.000   0.000
   16    5    4   15        3       0.628   1.883   0.000  -2.510  -0.000   0.000
   15    4    2   14        3       0.628   1.883   0.000  -2.510  -0.000   0.000
   14    2    1   11        3       0.628   1.883   0.000  -2.510  -0.000   0.000
   14    2    4    6        3       0.946   2.837   0.000  -3.782  -0.000   0.000
   16    5    4    6        3       0.946   2.837   0.000  -3.782  -0.000   0.000
   18    5    4    6        3       0.946   2.837   0.000  -3.782  -0.000   0.000
   17    5    4    6        3       0.946   2.837   0.000  -3.782  -0.000   0.000
   21    7    6    4        3       1.354   4.061   0.000  -5.414  -0.000   0.000
   19    7    6    4        3       1.354   4.061   0.000  -5.414  -0.000   0.000
   25    9    6    8        3       1.354   4.061   0.000  -5.414  -0.000   0.000
   26    9    6    7        3       1.354   4.061   0.000  -5.414  -0.000   0.000
   22    8    6    4        3       1.354   4.061   0.000  -5.414  -0.000   0.000
   20    7    6    4        3       1.354   4.061   0.000  -5.414  -0.000   0.000
   15    4    6    9        3       1.354   4.061   0.000  -5.414  -0.000   0.000
   21    7    6    9        3       1.354   4.061   0.000  -5.414  -0.000   0.000
   23    8    6    9        3       1.354   4.061   0.000  -5.414  -0.000   0.000
   15    4    6    7        3       1.354   4.061   0.000  -5.414  -0.000   0.000
   20    7    6    8        3       1.354   4.061   0.000  -5.414  -0.000   0.000
   23    8    6    4        3       1.354   4.061   0.000  -5.414  -0.000   0.000
   25    9    6    4        3       1.354   4.061   0.000  -5.414  -0.000   0.000
   15    4    6    8        3       1.354   4.061   0.000  -5.414  -0.000   0.000
   19    7    6    9        3       1.354   4.061   0.000  -5.414  -0.000   0.000
   26    9    6    8        3       1.354   4.061   0.000  -5.414  -0.000   0.000
   20    7    6    9        3       1.354   4.061   0.000  -5.414  -0.000   0.000
   21    7    6    8        3       1.354   4.061   0.000  -5.414  -0.000   0.000
   26    9    6    4        3       1.354   4.061   0.000  -5.414  -0.000   0.000
   23    8    6    7        3       1.354   4.061   0.000  -5.414  -0.000   0.000
   22    8    6    7        3       1.354   4.061   0.000  -5.414  -0.000   0.000
   24    8    6    9        3       1.354   4.061   0.000  -5.414  -0.000   0.000
   24    8    6    7        3       1.354   4.061   0.000  -5.414  -0.000   0.000
   25    9    6    7        3       1.354   4.061   0.000  -5.414  -0.000   0.000
   19    7    6    8        3       1.354   4.061   0.000  -5.414  -0.000   0.000
   22    8    6    9        3       1.354   4.061   0.000  -5.414  -0.000   0.000
   24    8    6    4        3       1.354   4.061   0.000  -5.414  -0.000   0.000
    6    4    2    1        3       3.425  -3.860   2.594  -2.159  -0.000   0.000
    6    4    2    3        3      -4.707   6.799   0.000  -2.092  -0.000   0.000

[ pairs ]
     1     5    1
     1     6    1
     3     5    1
     3     6    1
     2     7    1
     2     8    1
     2     9    1
     5     7    1
     5     8    1
     5     9    1
     4    10    1
     3    11    1
     4    11    1
     3    12    1
     4    12    1
     3    13    1
     1    15    1
     7    10    1
     4    13    1
     8    10    1
     3    15    1
     2    16    1
     5    14    1
     2    17    1
     6    14    1
     2    18    1
     7    15    1
     6    16    1
     8    15    1
     6    17    1
     4    19    1
     9    15    1
     6    18    1
     4    20    1
    11    14    1
     4    21    1
    12    14    1
     4    22    1
    13    14    1
     8    19    1
     4    23    1
     9    19    1
     8    20    1
     4    24    1
    14    15    1
     9    20    1
     8    21    1
     7    22    1
     4    25    1
     9    21    1
     7    23    1
     4    26    1
    15    16    1
     9    22    1
     7    24    1
    15    17    1
     9    23    1
     7    25    1
    15    18    1
     9    24    1
     8    25    1
     7    26    1
     8    26    1

