LIGPARGEN GENERATED GRO FILE
   26
    1UNK    C00    1   0.100   0.100   0.000
    1UNK    C01    2  -0.052   0.100   0.000
    1UNK    F02    3  -0.091   0.100   0.131
    1UNK    C03    4  -0.115   0.222  -0.069
    1UNK    C04    5  -0.070   0.238  -0.214
    1UNK    S05    6  -0.296   0.215  -0.060
    1UNK    C06    7  -0.367   0.357  -0.140
    1UNK    C07    8  -0.360   0.069  -0.137
    1UNK    C08    9  -0.350   0.217   0.109
    1UNK    F09   10  -0.485   0.229   0.113
    1UNK    H0A   11   0.137   0.017   0.060
    1UNK    H0B   12   0.139   0.192   0.045
    1UNK    H0C   13   0.141   0.090  -0.101
    1UNK    H0D   14  -0.088   0.007  -0.045
    1UNK    H0E   15  -0.089   0.313  -0.012
    1UNK    H0F   16  -0.097   0.150  -0.273
    1UNK    H0G   17   0.038   0.253  -0.221
    1UNK    H0H   18  -0.117   0.325  -0.261
    1UNK    H0I   19  -0.345   0.353  -0.246
    1UNK    H0J   20  -0.325   0.447  -0.094
    1UNK    H0K   21  -0.475   0.354  -0.125
    1UNK    H0M   22  -0.335   0.072  -0.244
    1UNK    H0N   23  -0.468   0.068  -0.124
    1UNK    H0O   24  -0.316  -0.018  -0.090
    1UNK    H0P   25  -0.305   0.304   0.159
    1UNK    H0Q   26  -0.321   0.124   0.157
   1.00000   1.00000   1.00000

