LIGPARGEN GENERATED GRO FILE
   25
    1UNK    C00    1   0.100   0.100   0.000
    1UNK    C01    2  -0.053   0.100   0.000
    1UNK    C02    3  -0.117   0.100   0.140
    1UNK    C03    4  -0.269   0.100   0.143
    1UNK    O04    5  -0.328   0.018   0.041
    1UNK    C05    6  -0.366   0.086  -0.071
    1UNK    C06    7  -0.442  -0.003  -0.164
    1UNK    O07    8  -0.342   0.204  -0.093
    1UNK    O08    9  -0.304   0.046   0.271
    1UNK    C09   10  -0.201  -0.032   0.316
    1UNK    O0A   11  -0.208  -0.100   0.417
    1UNK    C0B   12  -0.085  -0.024   0.222
    1UNK    C0C   13   0.044  -0.003   0.299
    1UNK    N0D   14   0.152   0.015   0.363
    1UNK    H0E   15   0.137   0.085  -0.102
    1UNK    H0F   16   0.142   0.019   0.060
    1UNK    H0G   17   0.139   0.195   0.037
    1UNK    H0H   18  -0.086   0.013  -0.057
    1UNK    H0I   19  -0.085   0.189  -0.055
    1UNK    H0J   20  -0.083   0.190   0.194
    1UNK    H0K   21  -0.309   0.202   0.140
    1UNK    H0M   22  -0.446  -0.105  -0.127
    1UNK    H0N   23  -0.393  -0.004  -0.262
    1UNK    H0O   24  -0.545   0.035  -0.173
    1UNK    H0P   25  -0.082  -0.115   0.162
   1.00000   1.00000   1.00000

