LIGPARGEN GENERATED GRO FILE
   32
    1UNK    C00    1   0.100   0.100   0.000
    1UNK    C01    2  -0.052   0.100   0.000
    1UNK    C02    3  -0.108   0.100   0.141
    1UNK    O03    4  -0.053   0.160   0.233
    1UNK    C04    5  -0.242   0.026   0.163
    1UNK    C05    6  -0.353   0.101   0.088
    1UNK    C06    7  -0.493   0.041   0.106
    1UNK    C07    8  -0.549   0.044   0.250
    1UNK    C08    9  -0.559   0.186   0.305
    1UNK    C09   10  -0.688  -0.022   0.252
    1UNK    O0A   11  -0.236  -0.108   0.116
    1UNK    C0B   12  -0.149  -0.190   0.194
    1UNK    H0C   13   0.138   0.100  -0.103
    1UNK    H0D   14   0.139   0.011   0.051
    1UNK    H0E   15   0.140   0.188   0.051
    1UNK    H0F   16  -0.086   0.011  -0.053
    1UNK    H0G   17  -0.090   0.188  -0.052
    1UNK    H0H   18  -0.263   0.027   0.271
    1UNK    H0I   19  -0.332   0.097  -0.020
    1UNK    H0J   20  -0.353   0.207   0.115
    1UNK    H0K   21  -0.493  -0.062   0.070
    1UNK    H0M   22  -0.562   0.096   0.040
    1UNK    H0N   23  -0.484  -0.014   0.315
    1UNK    H0O   24  -0.620   0.250   0.240
    1UNK    H0P   25  -0.460   0.232   0.315
    1UNK    H0Q   26  -0.605   0.186   0.405
    1UNK    H0R   27  -0.759   0.032   0.189
    1UNK    H0S   28  -0.728  -0.023   0.354
    1UNK    H0T   29  -0.682  -0.125   0.217
    1UNK    H0U   30  -0.144  -0.289   0.146
    1UNK    H0V   31  -0.188  -0.202   0.295
    1UNK    H0W   32  -0.048  -0.149   0.196
   1.00000   1.00000   1.00000

