LIGPARGEN GENERATED GRO FILE
   50
    1UNK    C00    1   0.100   0.100   0.000
    1UNK    C01    2  -0.052   0.100   0.000
    1UNK    C02    3  -0.111   0.100   0.142
    1UNK    C03    4  -0.265   0.100   0.136
    1UNK    C04    5  -0.331   0.100   0.274
    1UNK    C05    6  -0.485   0.107   0.272
    1UNK    C06    7  -0.547  -0.012   0.198
    1UNK    C07    8  -0.538   0.112   0.415
    1UNK    O08    9  -0.067  -0.022   0.206
    1UNK    C09   10  -0.014  -0.013   0.331
    1UNK    O0A   11  -0.001   0.092   0.392
    1UNK    C0B   12   0.029  -0.150   0.385
    1UNK    C0C   13  -0.021  -0.264   0.294
    1UNK    C0D   14   0.182  -0.159   0.419
    1UNK    C0E   15   0.218  -0.299   0.474
    1UNK    C0F   16   0.269  -0.136   0.293
    1UNK    C0G   17   0.228  -0.053   0.525
    1UNK    C0H   18   0.154  -0.057   0.659
    1UNK    H0I   19   0.138   0.082  -0.101
    1UNK    H0J   20   0.140   0.022   0.065
    1UNK    H0K   21   0.139   0.197   0.034
    1UNK    H0M   22  -0.086   0.010  -0.053
    1UNK    H0N   23  -0.088   0.187  -0.056
    1UNK    H0O   24  -0.076   0.190   0.195
    1UNK    H0P   25  -0.298   0.011   0.081
    1UNK    H0Q   26  -0.299   0.188   0.079
    1UNK    H0R   27  -0.293   0.186   0.331
    1UNK    H0S   28  -0.300   0.010   0.329
    1UNK    H0T   29  -0.515   0.199   0.221
    1UNK    H0U   30  -0.514  -0.107   0.241
    1UNK    H0V   31  -0.522  -0.011   0.092
    1UNK    H0W   32  -0.657  -0.008   0.205
    1UNK    H0X   33  -0.511   0.022   0.471
    1UNK    H0Y   34  -0.647   0.120   0.416
    1UNK    H0Z   35  -0.498   0.198   0.469
    1UNK    H10   36  -0.029  -0.162   0.478
    1UNK    H11   37   0.028  -0.263   0.196
    1UNK    H12   38  -0.129  -0.255   0.277
    1UNK    H13   39  -0.006  -0.362   0.340
    1UNK    H14   40   0.203  -0.377   0.399
    1UNK    H15   41   0.157  -0.325   0.561
    1UNK    H16   42   0.323  -0.304   0.504
    1UNK    H17   43   0.244  -0.206   0.213
    1UNK    H18   44   0.375  -0.149   0.316
    1UNK    H19   45   0.256  -0.034   0.255
    1UNK    H1A   46   0.220   0.048   0.484
    1UNK    H1B   47   0.334  -0.067   0.546
    1UNK    H1C   48   0.046  -0.041   0.647
    1UNK    H1D   49   0.192   0.022   0.724
    1UNK    H1E   50   0.169  -0.152   0.711
   1.00000   1.00000   1.00000

