
;
; GENERATED BY LigParGen Server
; Jorgensen Lab @ Yale University 
;
[ atomtypes ]
  opls_807  O807    15.9990     0.000    A    2.96000E-01   8.78640E-01
  opls_818  H818     1.0080     0.000    A    2.50000E-01   1.25520E-01
  opls_823  H823     1.0080     0.000    A    2.50000E-01   1.25520E-01
  opls_824  H824     1.0080     0.000    A    2.50000E-01   1.25520E-01
  opls_806  C806    12.0110     0.000    A    3.50000E-01   2.76144E-01
  opls_815  H815     1.0080     0.000    A    2.50000E-01   1.25520E-01
  opls_801  C801    12.0110     0.000    A    3.50000E-01   2.76144E-01
  opls_822  H822     1.0080     0.000    A    2.50000E-01   1.25520E-01
  opls_803  C803    12.0110     0.000    A    3.50000E-01   2.76144E-01
  opls_813  N813    14.0070     0.000    A    3.20000E-01   7.11280E-01
  opls_814  H814     1.0080     0.000    A    2.50000E-01   1.25520E-01
  opls_810  O810    15.9990     0.000    A    2.96000E-01   8.78640E-01
  opls_821  H821     1.0080     0.000    A    2.50000E-01   1.25520E-01
  opls_820  H820     1.0080     0.000    A    2.50000E-01   1.25520E-01
  opls_809  C809    12.0110     0.000    A    3.55000E-01   2.92880E-01
  opls_805  C805    12.0110     0.000    A    3.55000E-01   2.92880E-01
  opls_816  H816     1.0080     0.000    A    2.50000E-01   1.25520E-01
  opls_800  C800    12.0110     0.000    A    3.50000E-01   2.76144E-01
  opls_811  C811    12.0110     0.000    A    3.50000E-01   2.76144E-01
  opls_802  C802    12.0110     0.000    A    3.50000E-01   2.76144E-01
  opls_808  O808    15.9990     0.000    A    2.90000E-01   5.85760E-01
  opls_819  H819     1.0080     0.000    A    2.50000E-01   1.25520E-01
  opls_817  H817     1.0080     0.000    A    2.50000E-01   1.25520E-01
  opls_804  O804    15.9990     0.000    A    2.90000E-01   5.85760E-01
  opls_812  C812    12.0110     0.000    A    3.30000E-01   2.76144E-01
[ moleculetype ]
; Name               nrexcl
UNK                   3
[ atoms ]
;   nr       type  resnr residue  atom   cgnr     charge       mass  
     1   opls_800      1    UNK   C00      1    -0.2425    12.0110 
     2   opls_801      1    UNK   C01      1    -0.1714    12.0110 
     3   opls_802      1    UNK   C02      1    -0.1667    12.0110 
     4   opls_803      1    UNK   C03      1     0.2252    12.0110 
     5   opls_804      1    UNK   O04      1     -0.366    15.9990 
     6   opls_805      1    UNK   C05      1     0.4545    12.0110 
     7   opls_806      1    UNK   C06      1    -0.2586    12.0110 
     8   opls_807      1    UNK   O07      1     -0.446    15.9990 
     9   opls_808      1    UNK   O08      1    -0.3145    15.9990 
    10   opls_809      1    UNK   C09      1     0.4506    12.0110 
    11   opls_810      1    UNK   O0A      1    -0.3521    15.9990 
    12   opls_811      1    UNK   C0B      1    -0.0375    12.0110 
    13   opls_812      1    UNK   C0C      1     0.1426    12.0110 
    14   opls_813      1    UNK   N0D      1    -0.3461    14.0070 
    15   opls_814      1    UNK   H0E      1     0.0928     1.0080 
    16   opls_815      1    UNK   H0F      1     0.0928     1.0080 
    17   opls_816      1    UNK   H0G      1     0.0928     1.0080 
    18   opls_817      1    UNK   H0H      1      0.109     1.0080 
    19   opls_818      1    UNK   H0I      1      0.109     1.0080 
    20   opls_819      1    UNK   H0J      1     0.1507     1.0080 
    21   opls_820      1    UNK   H0K      1     0.1824     1.0080 
    22   opls_821      1    UNK   H0M      1     0.1356     1.0080 
    23   opls_822      1    UNK   H0N      1     0.1356     1.0080 
    24   opls_823      1    UNK   H0O      1     0.1356     1.0080 
    25   opls_824      1    UNK   H0P      1     0.1921     1.0080 
[ bonds ]
    2     1     1      0.1529 224262.400
    3     2     1      0.1529 224262.400
    4     3     1      0.1529 224262.400
    5     4     1      0.1380 267776.000
    6     5     1      0.1327 179075.200
    7     6     1      0.1522 265265.600
    8     6     1      0.1229 476976.000
    9     4     1      0.1380 267776.000
   10     9     1      0.1327 179075.200
   11    10     1      0.1229 476976.000
   12     3     1      0.1529 224262.400
   13    12     1      0.1470 326352.000
   14    13     1      0.1157 543920.000
   15     1     1      0.1090 284512.000
   16     1     1      0.1090 284512.000
   17     1     1      0.1090 284512.000
   18     2     1      0.1090 284512.000
   19     2     1      0.1090 284512.000
   20     3     1      0.1090 284512.000
   21     4     1      0.1090 284512.000
   22     7     1      0.1090 284512.000
   23     7     1      0.1090 284512.000
   24     7     1      0.1090 284512.000
   25    12     1      0.1090 284512.000
   12    10     1      0.1522 265265.600

[ angles ]
;  ai    aj    ak funct            c0            c1            c2            c3 
    1     2     3     1    112.700    488.273
    2     3     4     1    112.700    488.273
    3     4     5     1    109.500    418.400
    4     5     6     1    116.900    694.544
    5     6     7     1    111.400    677.808
    5     6     8     1    123.400    694.544
    3     4     9     1    109.500    418.400
    4     9    10     1    116.900    694.544
    9    10    11     1    123.400    694.544
    2     3    12     1    112.700    488.273
    3    12    13     1    112.700    488.273
   12    13    14     1    180.000   1255.200
    2     1    15     1    110.700    313.800
    2     1    16     1    110.700    313.800
    2     1    17     1    110.700    313.800
    1     2    18     1    110.700    313.800
    1     2    19     1    110.700    313.800
    2     3    20     1    110.700    313.800
    3     4    21     1    110.700    313.800
    6     7    22     1    109.500    292.880
    6     7    23     1    109.500    292.880
    6     7    24     1    109.500    292.880
    3    12    25     1    110.700    313.800
   23     7    24     1    107.800    276.144
   18     2    19     1    107.800    276.144
   22     7    24     1    107.800    276.144
    3     2    18     1    110.700    313.800
   11    10    12     1    120.400    669.440
    5     4     9     1    111.550    774.877
    3    12    10     1    111.100    527.184
   22     7    23     1    107.800    276.144
   10    12    13     1    110.580    432.207
   10    12    25     1    109.500    292.880
    9    10    12     1    111.400    677.808
   12     3    20     1    110.700    313.800
    3     2    19     1    110.700    313.800
   15     1    16     1    107.800    276.144
    7     6     8     1    120.400    669.440
   15     1    17     1    107.800    276.144
   16     1    17     1    107.800    276.144
    4     3    12     1    112.700    488.273
   13    12    25     1    108.500    292.880
    9     4    21     1    109.500    292.880
    5     4    21     1    109.500    292.880
    4     3    20     1    110.700    313.800

[ dihedrals ]
; IMPROPER DIHEDRAL ANGLES 
;  ai    aj    ak    al funct            c0            c1            c2            c3            c4            c5
     8     6     5     7    4        180.000     43.932     2  
     9    10    11    12    4        180.000     43.932     2  

[ dihedrals ]
; PROPER DIHEDRAL ANGLES
;  ai    aj    ak    al funct            c0            c1            c2            c3            c4            c5
   10   12    3    4        3       2.301  -1.464   0.837  -1.674  -0.000   0.000
   10   12    3    2        3      -4.960   6.286   1.310  -2.636  -0.000   0.000
    6    5    4    3        3       1.715   2.845   1.046  -5.607  -0.000   0.000
   10    9    4    3        3       1.715   2.845   1.046  -5.607  -0.000   0.000
   10    9    4    5        3      -6.458   0.810   5.682  -0.033  -0.000   0.000
    4    3    2    1        3       2.301  -1.464   0.837  -1.674  -0.000   0.000
    7    6    5    4        3      31.206  -9.768  -21.439  -0.000  -0.000   0.000
   12   10    9    4        3      31.206  -9.768  -21.439  -0.000  -0.000   0.000
   12    3    4    5        3       2.874   0.582   2.092  -5.548  -0.000   0.000
   12    3    4    9        3       2.874   0.582   2.092  -5.548  -0.000   0.000
   12    3    2    1        3       2.301  -1.464   0.837  -1.674  -0.000   0.000
   13   12   10   11        3       0.000   0.000   0.000  -0.000  -0.000   0.000
   13   12   10    9        3      -1.157  -3.471   0.000   4.628  -0.000   0.000
   13   12    3    4        3       2.301  -1.464   0.837  -1.674  -0.000   0.000
   13   12    3    2        3      -2.720   0.000   2.720  -0.000  -0.000   0.000
   21    4    3    2        3       0.628   1.883   0.000  -2.510  -0.000   0.000
   21    4    3   12        3       0.628   1.883   0.000  -2.510  -0.000   0.000
   21    4    3   20        3       0.628   1.883   0.000  -2.510  -0.000   0.000
   21    4    5    6        3       1.590   4.770   0.000  -6.360  -0.000   0.000
   21    4    9   10        3       1.590   4.770   0.000  -6.360  -0.000   0.000
   24    7    6    8        3       0.000   0.000   0.000  -0.000  -0.000   0.000
   23    7    6    8        3       0.000   0.000   0.000  -0.000  -0.000   0.000
   25   12   10   11        3       0.000   0.000   0.000  -0.000  -0.000   0.000
   22    7    6    8        3       0.000   0.000   0.000  -0.000  -0.000   0.000
   24    7    6    5        3       0.276   0.828   0.000  -1.105  -0.000   0.000
   22    7    6    5        3       0.276   0.828   0.000  -1.105  -0.000   0.000
   25   12   10    9        3       0.276   0.828   0.000  -1.105  -0.000   0.000
   23    7    6    5        3       0.276   0.828   0.000  -1.105  -0.000   0.000
   20    3    4    5        3       0.979   2.937   0.000  -3.916  -0.000   0.000
   20    3    4    9        3       0.979   2.937   0.000  -3.916  -0.000   0.000
   20    3   12   10        3      -0.209  -0.628   0.000   0.837  -0.000   0.000
   18    2    3    4        3       0.628   1.883   0.000  -2.510  -0.000   0.000
   25   12    3    4        3       0.628   1.883   0.000  -2.510  -0.000   0.000
   19    2    3    4        3       0.628   1.883   0.000  -2.510  -0.000   0.000
   18    2    3   12        3       0.628   1.883   0.000  -2.510  -0.000   0.000
   19    2    3   12        3       0.628   1.883   0.000  -2.510  -0.000   0.000
   25   12    3    2        3       0.628   1.883   0.000  -2.510  -0.000   0.000
   17    1    2    3        3       0.628   1.883   0.000  -2.510  -0.000   0.000
   20    3    2    1        3       0.628   1.883   0.000  -2.510  -0.000   0.000
   16    1    2    3        3       0.628   1.883   0.000  -2.510  -0.000   0.000
   15    1    2    3        3       0.628   1.883   0.000  -2.510  -0.000   0.000
   20    3   12   13        3       0.766   2.297   0.000  -3.063  -0.000   0.000
   20    3    2   18        3       0.628   1.883   0.000  -2.510  -0.000   0.000
   18    2    1   16        3       0.628   1.883   0.000  -2.510  -0.000   0.000
   25   12    3   20        3       0.628   1.883   0.000  -2.510  -0.000   0.000
   18    2    1   17        3       0.628   1.883   0.000  -2.510  -0.000   0.000
   19    2    1   16        3       0.628   1.883   0.000  -2.510  -0.000   0.000
   19    2    1   15        3       0.628   1.883   0.000  -2.510  -0.000   0.000
   19    2    1   17        3       0.628   1.883   0.000  -2.510  -0.000   0.000
   18    2    1   15        3       0.628   1.883   0.000  -2.510  -0.000   0.000
   20    3    2   19        3       0.628   1.883   0.000  -2.510  -0.000   0.000
   25   12   13   14        3       0.000   0.000   0.000  -0.000  -0.000   0.000
   14   13   12   10        3       0.000   0.000   0.000  -0.000  -0.000   0.000
   14   13   12    3        3       0.000   0.000   0.000  -0.000  -0.000   0.000
   11   10   12    3        3       0.000   0.000   0.000  -0.000  -0.000   0.000
   11   10    9    4        3      21.439   0.000  -21.439  -0.000  -0.000   0.000
    8    6    5    4        3      21.439   0.000  -21.439  -0.000  -0.000   0.000
    9   10   12    3        3      -1.157  -3.471   0.000   4.628  -0.000   0.000
    9    4    3    2        3       2.874   0.582   2.092  -5.548  -0.000   0.000
    5    4    3    2        3       2.874   0.582   2.092  -5.548  -0.000   0.000
    9    4    5    6        3      -6.458   0.810   5.682  -0.033  -0.000   0.000

[ pairs ]
     1     4    1
     2     5    1
     3     6    1
     4     7    1
     2     9    1
     4     8    1
     2    10    1
     1    12    1
     3    11    1
     6     9    1
     5    10    1
     4    11    1
     2    13    1
     5    12    1
     4    13    1
     3    14    1
     3    15    1
     3    16    1
     3    17    1
     1    20    1
     9    13    1
     4    18    1
     4    19    1
     2    21    1
    11    13    1
    10    14    1
     5    20    1
     6    21    1
     5    22    1
     2    25    1
     5    23    1
     9    20    1
     5    24    1
     4    25    1
    12    18    1
    10    20    1
     8    22    1
    12    19    1
    10    21    1
     8    23    1
     8    24    1
    15    18    1
    13    20    1
    12    21    1
    16    18    1
    15    19    1
     9    25    1
    17    18    1
    16    19    1
    17    19    1
    11    25    1
    18    20    1
    19    20    1
    14    25    1
    20    21    1
    20    25    1

