LIGPARGEN GENERATED GRO FILE
   20
    1UNK    C00    1   0.100   0.100   0.000
    1UNK    C01    2  -0.020   0.100   0.000
    1UNK    C02    3  -0.162   0.100   0.000
    1UNK    C03    4  -0.247  -0.007   0.015
    1UNK    C04    5  -0.381   0.041   0.009
    1UNK    N05    6  -0.496  -0.032   0.019
    1UNK    C06    7  -0.628   0.028   0.011
    1UNK    C07    8  -0.496  -0.176   0.038
    1UNK    C08    9  -0.371   0.177  -0.010
    1UNK    N09   10  -0.239   0.212  -0.015
    1UNK    H0A   11  -0.203   0.306  -0.027
    1UNK    H0B   12   0.207   0.100   0.000
    1UNK    H0C   13  -0.214  -0.109   0.028
    1UNK    H0D   14  -0.628   0.137  -0.003
    1UNK    H0E   15  -0.684   0.008   0.103
    1UNK    H0F   16  -0.684  -0.015  -0.073
    1UNK    H0G   17  -0.397  -0.221   0.044
    1UNK    H0H   18  -0.549  -0.225  -0.045
    1UNK    H0I   19  -0.548  -0.201   0.131
    1UNK    H0J   20  -0.447   0.254  -0.020
   1.00000   1.00000   1.00000

