
;
; GENERATED BY LigParGen Server
; Jorgensen Lab @ Yale University 
;
[ atomtypes ]
  opls_818  H818     1.0080     0.000    A    2.50000E-01   1.25520E-01
  opls_804  C804    12.0110     0.000    A    3.55000E-01   2.92880E-01
  opls_805  N805    14.0070     0.000    A    3.30000E-01   7.11280E-01
  opls_815  H815     1.0080     0.000    A    2.50000E-01   1.25520E-01
  opls_803  C803    12.0110     0.000    A    3.55000E-01   2.92880E-01
  opls_814  H814     1.0080     0.000    A    2.50000E-01   1.25520E-01
  opls_819  H819     1.0080     0.000    A    2.42000E-01   1.25520E-01
  opls_817  H817     1.0080     0.000    A    2.50000E-01   1.25520E-01
  opls_807  C807    12.0110     0.000    A    3.50000E-01   2.76144E-01
  opls_806  C806    12.0110     0.000    A    3.50000E-01   2.76144E-01
  opls_802  C802    12.0110     0.000    A    3.55000E-01   2.92880E-01
  opls_813  H813     1.0080     0.000    A    2.50000E-01   1.25520E-01
  opls_809  N809    14.0070     0.000    A    3.25000E-01   7.11280E-01
  opls_801  C801    12.0110     0.000    A    3.30000E-01   2.76144E-01
  opls_810  H810     1.0080     0.000    A    0.00000E+00   0.00000E+00
  opls_812  H812     1.0080     0.000    A    2.42000E-01   1.25520E-01
  opls_800  C800    12.0110     0.000    A    3.30000E-01   2.76144E-01
  opls_808  C808    12.0110     0.000    A    3.55000E-01   2.92880E-01
  opls_811  H811     1.0080     0.000    A    2.50000E-01   1.25520E-01
  opls_816  H816     1.0080     0.000    A    2.50000E-01   1.25520E-01
[ moleculetype ]
; Name               nrexcl
UNK                   3
[ atoms ]
;   nr       type  resnr residue  atom   cgnr     charge       mass  
     1   opls_800      1    UNK   C00      1    -0.2257    12.0110 
     2   opls_801      1    UNK   C01      1    -0.1227    12.0110 
     3   opls_802      1    UNK   C02      1     0.1156    12.0110 
     4   opls_803      1    UNK   C03      1    -0.2426    12.0110 
     5   opls_804      1    UNK   C04      1     0.2237    12.0110 
     6   opls_805      1    UNK   N05      1    -0.7821    14.0070 
     7   opls_806      1    UNK   C06      1     0.0772    12.0110 
     8   opls_807      1    UNK   C07      1     0.0773    12.0110 
     9   opls_808      1    UNK   C08      1    -0.1621    12.0110 
    10   opls_809      1    UNK   N09      1    -0.4816    14.0070 
    11   opls_810      1    UNK   H0A      1     0.4252     1.0080 
    12   opls_811      1    UNK   H0B      1     0.2587     1.0080 
    13   opls_812      1    UNK   H0C      1     0.1733     1.0080 
    14   opls_813      1    UNK   H0D      1     0.0794     1.0080 
    15   opls_814      1    UNK   H0E      1     0.0794     1.0080 
    16   opls_815      1    UNK   H0F      1     0.0794     1.0080 
    17   opls_816      1    UNK   H0G      1     0.0808     1.0080 
    18   opls_817      1    UNK   H0H      1     0.0808     1.0080 
    19   opls_818      1    UNK   H0I      1     0.0808     1.0080 
    20   opls_819      1    UNK   H0J      1     0.1851     1.0080 
[ bonds ]
    2     1     1      0.1210 962320.000
    3     2     1      0.1451 334720.000
    4     3     1      0.1367 456892.800
    5     4     1      0.1424 392459.200
    6     5     1      0.1495 265265.600
    7     6     1      0.1448 319657.600
    8     6     1      0.1448 319657.600
    9     5     1      0.1367 456892.800
   10     3     1      0.1381 357313.600
   11    10     1      0.1010 363171.200
   12     1     1      0.1080 351456.000
   13     4     1      0.1080 307105.600
   14     7     1      0.1090 284512.000
   15     7     1      0.1090 284512.000
   16     7     1      0.1090 284512.000
   17     8     1      0.1090 284512.000
   18     8     1      0.1090 284512.000
   19     8     1      0.1090 284512.000
   20     9     1      0.1080 307105.600
   10     9     1      0.1381 357313.600

[ angles ]
;  ai    aj    ak funct            c0            c1            c2            c3 
    1     2     3     1    180.000   1338.880
    2     3     4     1    120.360    513.377
    3     4     5     1    107.300    585.760
    4     5     6     1    120.000    585.760
    5     6     7     1    116.000    418.400
    5     6     8     1    116.000    418.400
    4     5     9     1    107.300    585.760
    2     3    10     1    120.360    513.377
    3    10    11     1    120.000    292.880
    2     1    12     1    180.000    937.216
    3     4    13     1    125.700    292.880
    6     7    14     1    109.500    292.880
    6     7    15     1    109.500    292.880
    6     7    16     1    109.500    292.880
    6     8    17     1    109.500    292.880
    6     8    18     1    109.500    292.880
    6     8    19     1    109.500    292.880
    5     9    20     1    132.100    292.880
   14     7    16     1    107.800    276.144
   14     7    15     1    107.800    276.144
   17     8    18     1    107.800    276.144
    5     4    13     1    127.500    292.880
    4     3    10     1    107.700    585.760
   15     7    16     1    107.800    276.144
    9    10    11     1    120.000    292.880
   17     8    19     1    107.800    276.144
    7     6     8     1    107.200    433.462
    3    10     9     1    109.800    585.760
   18     8    19     1    107.800    276.144
    6     5     9     1    125.000    585.760
    5     9    10     1    107.700    585.760
   10     9    20     1    121.600    292.880

[ dihedrals ]
; IMPROPER DIHEDRAL ANGLES 
;  ai    aj    ak    al funct            c0            c1            c2            c3            c4            c5
     9     5     4     6    4        180.000     10.460     2  
    11    10     3     9    4        180.000     10.460     2  
    13     4     3     5    4        180.000     10.460     2  
    20     9     5    10    4        180.000     10.460     2  
    10     3     2     4    4        180.000     10.460     2  

[ dihedrals ]
; PROPER DIHEDRAL ANGLES
;  ai    aj    ak    al funct            c0            c1            c2            c3            c4            c5
    5    4    3    2        3      30.334   0.000  -30.334  -0.000  -0.000   0.000
    4    3    2    1        3       0.000   0.000   0.000  -0.000  -0.000   0.000
    5    9   10    3        3      20.920   0.000  -20.920  -0.000  -0.000   0.000
    8    6    5    4        3       1.789   3.492   0.536  -5.816  -0.000   0.000
    7    6    5    4        3       1.789   3.492   0.536  -5.816  -0.000   0.000
    9    5    4    3        3       9.079   0.000  -9.079  -0.000  -0.000   0.000
    9    5    6    7        3       1.789   3.492   0.536  -5.816  -0.000   0.000
    9    5    6    8        3       1.789   3.492   0.536  -5.816  -0.000   0.000
    9   10    3    4        3      20.920   0.000  -20.920  -0.000  -0.000   0.000
    9   10    3    2        3      20.920   0.000  -20.920  -0.000  -0.000   0.000
   11   10    9    5        3      20.920   0.000  -20.920  -0.000  -0.000   0.000
   11   10    3    4        3      20.920   0.000  -20.920  -0.000  -0.000   0.000
   11   10    3    2        3      20.920   0.000  -20.920  -0.000  -0.000   0.000
   13    4    5    9        3      30.334   0.000  -30.334  -0.000  -0.000   0.000
   13    4    5    6        3      30.334   0.000  -30.334  -0.000  -0.000   0.000
   13    4    3    2        3      30.334   0.000  -30.334  -0.000  -0.000   0.000
   13    4    3   10        3      30.334   0.000  -30.334  -0.000  -0.000   0.000
   20    9    5    4        3      30.334   0.000  -30.334  -0.000  -0.000   0.000
   20    9    5    6        3      44.978   0.000  -44.978  -0.000  -0.000   0.000
   20    9   10    3        3      20.920   0.000  -20.920  -0.000  -0.000   0.000
   20    9   10   11        3      20.920   0.000  -20.920  -0.000  -0.000   0.000
   16    7    6    5        3       1.172   3.515   0.000  -4.686  -0.000   0.000
   18    8    6    5        3       1.172   3.515   0.000  -4.686  -0.000   0.000
   15    7    6    5        3       1.172   3.515   0.000  -4.686  -0.000   0.000
   19    8    6    5        3       1.172   3.515   0.000  -4.686  -0.000   0.000
   14    7    6    5        3       1.172   3.515   0.000  -4.686  -0.000   0.000
   17    8    6    5        3       1.172   3.515   0.000  -4.686  -0.000   0.000
   17    8    6    7        3       1.172   3.515   0.000  -4.686  -0.000   0.000
   14    7    6    8        3       1.172   3.515   0.000  -4.686  -0.000   0.000
   16    7    6    8        3       1.172   3.515   0.000  -4.686  -0.000   0.000
   19    8    6    7        3       1.172   3.515   0.000  -4.686  -0.000   0.000
   15    7    6    8        3       1.172   3.515   0.000  -4.686  -0.000   0.000
   18    8    6    7        3       1.172   3.515   0.000  -4.686  -0.000   0.000
   12    1    2    3        3       0.000   0.000   0.000  -0.000  -0.000   0.000
   10    9    5    4        3      30.334   0.000  -30.334  -0.000  -0.000   0.000
   10    3    4    5        3      30.334   0.000  -30.334  -0.000  -0.000   0.000
   10    9    5    6        3       9.079   0.000  -9.079  -0.000  -0.000   0.000
   10    3    2    1        3      30.334   0.000  -30.334  -0.000  -0.000   0.000
    6    5    4    3        3       9.079   0.000  -9.079  -0.000  -0.000   0.000

[ pairs ]
     1     4    1
     2     5    1
     3     6    1
     4     7    1
     2     9    1
     1    10    1
     4     8    1
     2    11    1
     4    11    1
     3    12    1
     2    13    1
     7     9    1
     6    10    1
     5    11    1
     8     9    1
     6    13    1
     5    14    1
     5    15    1
     5    16    1
     9    13    1
     8    14    1
     5    17    1
    10    13    1
     8    15    1
     5    18    1
     3    20    1
     8    16    1
     7    17    1
     5    19    1
     4    20    1
     7    18    1
     7    19    1
     6    20    1
    11    20    1

