LIGPARGEN GENERATED GRO FILE
   29
    1UNK    C00    1   0.100   0.100   0.000
    1UNK    C01    2  -0.052   0.100   0.000
    1UNK    C02    3  -0.107   0.100   0.143
    1UNK    C03    4  -0.260   0.100   0.144
    1UNK    C04    5  -0.313   0.100   0.288
    1UNK    C05    6  -0.465   0.100   0.294
    1UNK    F06    7  -0.512   0.211   0.231
    1UNK    F07    8  -0.511  -0.007   0.223
    1UNK    C08    9  -0.523   0.093   0.436
    1UNK    C09   10  -0.479   0.211   0.523
    1UNK    C0A   11  -0.676   0.088   0.431
    1UNK    H0B   12   0.138   0.100  -0.103
    1UNK    H0C   13   0.139   0.011   0.051
    1UNK    H0D   14   0.139   0.189   0.051
    1UNK    H0E   15  -0.088   0.012  -0.054
    1UNK    H0F   16  -0.088   0.188  -0.054
    1UNK    H0G   17  -0.070   0.188   0.196
    1UNK    H0H   18  -0.070   0.012   0.196
    1UNK    H0I   19  -0.297   0.011   0.091
    1UNK    H0J   20  -0.298   0.188   0.091
    1UNK    H0K   21  -0.273   0.189   0.339
    1UNK    H0M   22  -0.274   0.011   0.340
    1UNK    H0N   23  -0.488   0.000   0.483
    1UNK    H0O   24  -0.506   0.307   0.477
    1UNK    H0P   25  -0.371   0.210   0.540
    1UNK    H0Q   26  -0.527   0.207   0.621
    1UNK    H0R   27  -0.718   0.178   0.385
    1UNK    H0S   28  -0.718   0.079   0.532
    1UNK    H0T   29  -0.710   0.001   0.373
   1.00000   1.00000   1.00000

