
;
; GENERATED BY LigParGen Server
; Jorgensen Lab @ Yale University 
;
[ atomtypes ]
  opls_818  H818     1.0080     0.000    A    2.50000E-01   1.25520E-01
  opls_824  H824     1.0080     0.000    A    2.50000E-01   1.25520E-01
  opls_805  C805    12.0110     0.000    A    3.50000E-01   2.76144E-01
  opls_836  H836     1.0080     0.000    A    2.50000E-01   1.25520E-01
  opls_810  S810    32.0600     0.000    A    3.55000E-01   1.04600E+00
  opls_828  H828     1.0080     0.000    A    2.50000E-01   1.25520E-01
  opls_802  C802    12.0110     0.000    A    3.50000E-01   2.76144E-01
  opls_827  H827     1.0080     0.000    A    2.50000E-01   1.25520E-01
  opls_809  C809    12.0110     0.000    A    3.50000E-01   2.76144E-01
  opls_806  C806    12.0110     0.000    A    3.50000E-01   2.76144E-01
  opls_822  H822     1.0080     0.000    A    2.50000E-01   1.25520E-01
  opls_803  C803    12.0110     0.000    A    3.50000E-01   2.76144E-01
  opls_838  H838     1.0080     0.000    A    2.50000E-01   1.25520E-01
  opls_825  H825     1.0080     0.000    A    2.50000E-01   1.25520E-01
  opls_830  H830     1.0080     0.000    A    2.50000E-01   1.25520E-01
  opls_821  H821     1.0080     0.000    A    2.50000E-01   1.25520E-01
  opls_812  O812    15.9990     0.000    A    2.96000E-01   7.11280E-01
  opls_820  H820     1.0080     0.000    A    2.50000E-01   1.25520E-01
  opls_837  H837     1.0080     0.000    A    2.50000E-01   1.25520E-01
  opls_813  C813    12.0110     0.000    A    3.55000E-01   2.92880E-01
  opls_829  H829     1.0080     0.000    A    2.50000E-01   1.25520E-01
  opls_834  H834     1.0080     0.000    A    2.50000E-01   1.25520E-01
  opls_831  H831     1.0080     0.000    A    2.50000E-01   1.25520E-01
  opls_832  H832     1.0080     0.000    A    2.50000E-01   1.25520E-01
  opls_800  C800    12.0110     0.000    A    3.50000E-01   2.76144E-01
  opls_807  C807    12.0110     0.000    A    3.50000E-01   2.76144E-01
  opls_816  C816    12.0110     0.000    A    3.50000E-01   2.76144E-01
  opls_815  C815    12.0110     0.000    A    3.50000E-01   2.76144E-01
  opls_823  H823     1.0080     0.000    A    2.50000E-01   1.25520E-01
  opls_826  H826     1.0080     0.000    A    2.50000E-01   1.25520E-01
  opls_835  H835     1.0080     0.000    A    2.50000E-01   1.25520E-01
  opls_819  H819     1.0080     0.000    A    2.50000E-01   1.25520E-01
  opls_804  C804    12.0110     0.000    A    3.50000E-01   2.76144E-01
  opls_833  H833     1.0080     0.000    A    2.50000E-01   1.25520E-01
  opls_839  H839     1.0080     0.000    A    2.50000E-01   1.25520E-01
  opls_801  C801    12.0110     0.000    A    3.50000E-01   2.76144E-01
  opls_808  C808    12.0110     0.000    A    3.50000E-01   2.76144E-01
  opls_817  H817     1.0080     0.000    A    2.50000E-01   1.25520E-01
  opls_814  O814    15.9990     0.000    A    2.96000E-01   8.78640E-01
  opls_840  H840     1.0080     0.000    A    2.50000E-01   1.25520E-01
  opls_811  O811    15.9990     0.000    A    2.96000E-01   7.11280E-01
[ moleculetype ]
; Name               nrexcl
UNK                   3
[ atoms ]
;   nr       type  resnr residue  atom   cgnr     charge       mass  
     1   opls_800      1    UNK   C00      1     -0.235    12.0110 
     2   opls_801      1    UNK   C01      1    -0.1037    12.0110 
     3   opls_802      1    UNK   C02      1    -0.1853    12.0110 
     4   opls_803      1    UNK   C03      1    -0.1688    12.0110 
     5   opls_804      1    UNK   C04      1    -0.2277    12.0110 
     6   opls_805      1    UNK   C05      1     -0.229    12.0110 
     7   opls_806      1    UNK   C06      1     -0.016    12.0110 
     8   opls_807      1    UNK   C07      1    -0.2271    12.0110 
     9   opls_808      1    UNK   C08      1    -0.2492    12.0110 
    10   opls_809      1    UNK   C09      1    -0.2553    12.0110 
    11   opls_810      1    UNK   S0A      1     1.2107    32.0600 
    12   opls_811      1    UNK   O0B      1    -0.5542    15.9990 
    13   opls_812      1    UNK   O0C      1    -0.5542    15.9990 
    14   opls_813      1    UNK   C0D      1     0.0895    12.0110 
    15   opls_814      1    UNK   O0E      1    -0.3274    15.9990 
    16   opls_815      1    UNK   C0F      1    -0.1228    12.0110 
    17   opls_816      1    UNK   C0G      1    -0.2243    12.0110 
    18   opls_817      1    UNK   H0H      1     0.0887     1.0080 
    19   opls_818      1    UNK   H0I      1     0.0887     1.0080 
    20   opls_819      1    UNK   H0J      1     0.0887     1.0080 
    21   opls_820      1    UNK   H0K      1     0.1154     1.0080 
    22   opls_821      1    UNK   H0M      1     0.0994     1.0080 
    23   opls_822      1    UNK   H0N      1     0.0994     1.0080 
    24   opls_823      1    UNK   H0O      1     0.1128     1.0080 
    25   opls_824      1    UNK   H0P      1     0.1128     1.0080 
    26   opls_825      1    UNK   H0Q      1     0.1061     1.0080 
    27   opls_826      1    UNK   H0R      1     0.1061     1.0080 
    28   opls_827      1    UNK   H0S      1     0.1061     1.0080 
    29   opls_828      1    UNK   H0T      1      0.086     1.0080 
    30   opls_829      1    UNK   H0U      1      0.086     1.0080 
    31   opls_830      1    UNK   H0V      1      0.086     1.0080 
    32   opls_831      1    UNK   H0W      1     0.0946     1.0080 
    33   opls_832      1    UNK   H0X      2     0.0946     1.0080 
    34   opls_833      1    UNK   H0Y      2     0.0946     1.0080 
    35   opls_834      1    UNK   H0Z      2     0.1011     1.0080 
    36   opls_835      1    UNK   H10      2     0.1011     1.0080 
    37   opls_836      1    UNK   H11      2     0.1011     1.0080 
    38   opls_837      1    UNK   H12      2     0.1186     1.0080 
    39   opls_838      1    UNK   H13      2     0.0974     1.0080 
    40   opls_839      1    UNK   H14      2     0.0974     1.0080 
    41   opls_840      1    UNK   H15      2     0.0974     1.0080 
[ bonds ]
    2     1     1      0.1529 224262.400
    3     2     1      0.1529 224262.400
    4     3     1      0.1529 224262.400
    5     4     1      0.1529 224262.400
    6     5     1      0.1529 224262.400
    7     5     1      0.1529 224262.400
    8     7     1      0.1529 224262.400
    9     7     1      0.1529 224262.400
   10     7     1      0.1529 224262.400
   11     5     1      0.1770 284512.000
   12    11     1      0.1440 585760.000
   13    11     1      0.1440 585760.000
   14    11     1      0.1690 191618.832
   15    14     1      0.1229 476976.000
   16     2     1      0.1529 224262.400
   17    16     1      0.1529 224262.400
   18     1     1      0.1090 284512.000
   19     1     1      0.1090 284512.000
   20     1     1      0.1090 284512.000
   21     2     1      0.1090 284512.000
   22     3     1      0.1090 284512.000
   23     3     1      0.1090 284512.000
   24     4     1      0.1090 284512.000
   25     4     1      0.1090 284512.000
   26     6     1      0.1090 284512.000
   27     6     1      0.1090 284512.000
   28     6     1      0.1090 284512.000
   29     8     1      0.1090 284512.000
   30     8     1      0.1090 284512.000
   31     8     1      0.1090 284512.000
   32     9     1      0.1090 284512.000
   33     9     1      0.1090 284512.000
   34     9     1      0.1090 284512.000
   35    10     1      0.1090 284512.000
   36    10     1      0.1090 284512.000
   37    10     1      0.1090 284512.000
   38    16     1      0.1090 284512.000
   39    17     1      0.1090 284512.000
   40    17     1      0.1090 284512.000
   41    17     1      0.1090 284512.000
   16    14     1      0.1522 265265.600

[ angles ]
;  ai    aj    ak funct            c0            c1            c2            c3 
    1     2     3     1    112.700    488.273
    2     3     4     1    112.700    488.273
    3     4     5     1    112.700    488.273
    4     5     6     1    112.700    488.273
    4     5     7     1    112.700    488.273
    5     7     8     1    112.700    488.273
    5     7     9     1    112.700    488.273
    5     7    10     1    112.700    488.273
    4     5    11     1    108.600    418.400
    5    11    12     1    108.900    619.232
    5    11    13     1    108.900    619.232
    5    11    14     1    104.360    658.311
   11    14    15     1    118.180    584.923
    1     2    16     1    112.700    488.273
    2    16    17     1    112.700    488.273
    2     1    18     1    110.700    313.800
    2     1    19     1    110.700    313.800
    2     1    20     1    110.700    313.800
    1     2    21     1    110.700    313.800
    2     3    22     1    110.700    313.800
    2     3    23     1    110.700    313.800
    3     4    24     1    110.700    313.800
    3     4    25     1    110.700    313.800
    5     6    26     1    110.700    313.800
    5     6    27     1    110.700    313.800
    5     6    28     1    110.700    313.800
    7     8    29     1    110.700    313.800
    7     8    30     1    110.700    313.800
    7     8    31     1    110.700    313.800
    7     9    32     1    110.700    313.800
    7     9    33     1    110.700    313.800
    7     9    34     1    110.700    313.800
    7    10    35     1    110.700    313.800
    7    10    36     1    110.700    313.800
    7    10    37     1    110.700    313.800
    2    16    38     1    110.700    313.800
   16    17    39     1    110.700    313.800
   16    17    40     1    110.700    313.800
   16    17    41     1    110.700    313.800
   19     1    20     1    107.800    276.144
    9     7    10     1    112.700    488.273
   15    14    16     1    120.400    669.440
   39    17    41     1    107.800    276.144
    3     2    21     1    110.700    313.800
   18     1    20     1    107.800    276.144
   33     9    34     1    107.800    276.144
   27     6    28     1    107.800    276.144
    5     4    24     1    110.700    313.800
   35    10    37     1    107.800    276.144
   36    10    37     1    107.800    276.144
   16     2    21     1    110.700    313.800
   24     4    25     1    107.800    276.144
    4     3    22     1    110.700    313.800
    7     5    11     1    108.600    418.400
    8     7    10     1    112.700    488.273
    8     7     9     1    112.700    488.273
   29     8    31     1    107.800    276.144
    6     5    11     1    108.600    418.400
    4     3    23     1    110.700    313.800
   12    11    13     1    119.000    870.272
    3     2    16     1    112.700    488.273
    2    16    14     1    111.100    527.184
   14    16    17     1    111.100    527.184
   26     6    27     1    107.800    276.144
   14    16    38     1    109.500    292.880
   18     1    19     1    107.800    276.144
   17    16    38     1    110.700    313.800
   35    10    36     1    107.800    276.144
   11    14    16     1    118.180    584.923
   12    11    14     1    104.360    658.311
    6     5     7     1    112.700    488.273
    5     4    25     1    110.700    313.800
   32     9    34     1    107.800    276.144
   29     8    30     1    107.800    276.144
   39    17    40     1    107.800    276.144
   22     3    23     1    107.800    276.144
   40    17    41     1    107.800    276.144
   30     8    31     1    107.800    276.144
   13    11    14     1    104.360    658.311
   26     6    28     1    107.800    276.144
   32     9    33     1    107.800    276.144

[ dihedrals ]
; IMPROPER DIHEDRAL ANGLES 
;  ai    aj    ak    al funct            c0            c1            c2            c3            c4            c5
    16    14    11    15    4        180.000     43.932     2  

[ dihedrals ]
; PROPER DIHEDRAL ANGLES
;  ai    aj    ak    al funct            c0            c1            c2            c3            c4            c5
   14   16    2    1        3      -4.960   6.286   1.310  -2.636  -0.000   0.000
   14   16    2    3        3      -4.960   6.286   1.310  -2.636  -0.000   0.000
   14   11    5    4        3       0.000   0.000   0.000  -0.000  -0.000   0.000
   14   11    5    7        3       0.000   0.000   0.000  -0.000  -0.000   0.000
   14   11    5    6        3       0.000   0.000   0.000  -0.000  -0.000   0.000
   16   14   11    5        3       0.000   0.000   0.000  -0.000  -0.000   0.000
   16   14   11   13        3       0.000   0.000   0.000  -0.000  -0.000   0.000
   16   14   11   12        3       0.000   0.000   0.000  -0.000  -0.000   0.000
   17   16   14   15        3       0.000   0.000   0.000  -0.000  -0.000   0.000
   17   16   14   11        3       2.784   0.278   0.828  -3.891  -0.000   0.000
    8    7    5    6        3       2.301  -1.464   0.837  -1.674  -0.000   0.000
   17   16    2    3        3       2.301  -1.464   0.837  -1.674  -0.000   0.000
    7    5    4    3        3       2.301  -1.464   0.837  -1.674  -0.000   0.000
   10    7    5    6        3       2.301  -1.464   0.837  -1.674  -0.000   0.000
   10    7    5    4        3       2.301  -1.464   0.837  -1.674  -0.000   0.000
   16    2    3    4        3       2.301  -1.464   0.837  -1.674  -0.000   0.000
    9    7    5    6        3       2.301  -1.464   0.837  -1.674  -0.000   0.000
   17   16    2    1        3       2.301  -1.464   0.837  -1.674  -0.000   0.000
    9    7    5    4        3       2.301  -1.464   0.837  -1.674  -0.000   0.000
    4    3    2    1        3       2.301  -1.464   0.837  -1.674  -0.000   0.000
    6    5    4    3        3       2.301  -1.464   0.837  -1.674  -0.000   0.000
    5    4    3    2        3       2.301  -1.464   0.837  -1.674  -0.000   0.000
    8    7    5    4        3       2.301  -1.464   0.837  -1.674  -0.000   0.000
   38   16   14   15        3       0.000   0.000   0.000  -0.000  -0.000   0.000
   38   16   14   11        3       0.000   0.000   0.000  -0.000  -0.000   0.000
   39   17   16   14        3      -0.209  -0.628   0.000   0.837  -0.000   0.000
   40   17   16   14        3      -0.209  -0.628   0.000   0.837  -0.000   0.000
   41   17   16   14        3      -0.209  -0.628   0.000   0.837  -0.000   0.000
   21    2   16   14        3      -0.209  -0.628   0.000   0.837  -0.000   0.000
   33    9    7    8        3       0.628   1.883   0.000  -2.510  -0.000   0.000
   21    2   16   17        3       0.628   1.883   0.000  -2.510  -0.000   0.000
   20    1    2   16        3       0.628   1.883   0.000  -2.510  -0.000   0.000
   18    1    2   16        3       0.628   1.883   0.000  -2.510  -0.000   0.000
   21    2    3    4        3       0.628   1.883   0.000  -2.510  -0.000   0.000
   28    6    5    7        3       0.628   1.883   0.000  -2.510  -0.000   0.000
   29    8    7   10        3       0.628   1.883   0.000  -2.510  -0.000   0.000
   20    1    2    3        3       0.628   1.883   0.000  -2.510  -0.000   0.000
   18    1    2    3        3       0.628   1.883   0.000  -2.510  -0.000   0.000
   22    3    2   16        3       0.628   1.883   0.000  -2.510  -0.000   0.000
   41   17   16    2        3       0.628   1.883   0.000  -2.510  -0.000   0.000
   31    8    7    5        3       0.628   1.883   0.000  -2.510  -0.000   0.000
   24    4    5    6        3       0.628   1.883   0.000  -2.510  -0.000   0.000
   24    4    3    2        3       0.628   1.883   0.000  -2.510  -0.000   0.000
   34    9    7    5        3       0.628   1.883   0.000  -2.510  -0.000   0.000
   29    8    7    9        3       0.628   1.883   0.000  -2.510  -0.000   0.000
   27    6    5    4        3       0.628   1.883   0.000  -2.510  -0.000   0.000
   30    8    7    9        3       0.628   1.883   0.000  -2.510  -0.000   0.000
   33    9    7    5        3       0.628   1.883   0.000  -2.510  -0.000   0.000
   26    6    5    4        3       0.628   1.883   0.000  -2.510  -0.000   0.000
   37   10    7    8        3       0.628   1.883   0.000  -2.510  -0.000   0.000
   36   10    7    9        3       0.628   1.883   0.000  -2.510  -0.000   0.000
   31    8    7   10        3       0.628   1.883   0.000  -2.510  -0.000   0.000
   30    8    7    5        3       0.628   1.883   0.000  -2.510  -0.000   0.000
   35   10    7    8        3       0.628   1.883   0.000  -2.510  -0.000   0.000
   33    9    7   10        3       0.628   1.883   0.000  -2.510  -0.000   0.000
   23    3    2    1        3       0.628   1.883   0.000  -2.510  -0.000   0.000
   27    6    5    7        3       0.628   1.883   0.000  -2.510  -0.000   0.000
   32    9    7    8        3       0.628   1.883   0.000  -2.510  -0.000   0.000
   25    4    5    6        3       0.628   1.883   0.000  -2.510  -0.000   0.000
   23    3    4    5        3       0.628   1.883   0.000  -2.510  -0.000   0.000
   38   16    2    1        3       0.628   1.883   0.000  -2.510  -0.000   0.000
   31    8    7    9        3       0.628   1.883   0.000  -2.510  -0.000   0.000
   30    8    7   10        3       0.628   1.883   0.000  -2.510  -0.000   0.000
   37   10    7    9        3       0.628   1.883   0.000  -2.510  -0.000   0.000
   25    4    3    2        3       0.628   1.883   0.000  -2.510  -0.000   0.000
   39   17   16    2        3       0.628   1.883   0.000  -2.510  -0.000   0.000
   40   17   16    2        3       0.628   1.883   0.000  -2.510  -0.000   0.000
   22    3    4    5        3       0.628   1.883   0.000  -2.510  -0.000   0.000
   32    9    7   10        3       0.628   1.883   0.000  -2.510  -0.000   0.000
   34    9    7    8        3       0.628   1.883   0.000  -2.510  -0.000   0.000
   32    9    7    5        3       0.628   1.883   0.000  -2.510  -0.000   0.000
   26    6    5    7        3       0.628   1.883   0.000  -2.510  -0.000   0.000
   37   10    7    5        3       0.628   1.883   0.000  -2.510  -0.000   0.000
   29    8    7    5        3       0.628   1.883   0.000  -2.510  -0.000   0.000
   35   10    7    5        3       0.628   1.883   0.000  -2.510  -0.000   0.000
   35   10    7    9        3       0.628   1.883   0.000  -2.510  -0.000   0.000
   38   16    2    3        3       0.628   1.883   0.000  -2.510  -0.000   0.000
   24    4    5    7        3       0.628   1.883   0.000  -2.510  -0.000   0.000
   34    9    7   10        3       0.628   1.883   0.000  -2.510  -0.000   0.000
   25    4    5    7        3       0.628   1.883   0.000  -2.510  -0.000   0.000
   36   10    7    8        3       0.628   1.883   0.000  -2.510  -0.000   0.000
   22    3    2    1        3       0.628   1.883   0.000  -2.510  -0.000   0.000
   28    6    5    4        3       0.628   1.883   0.000  -2.510  -0.000   0.000
   23    3    2   16        3       0.628   1.883   0.000  -2.510  -0.000   0.000
   19    1    2    3        3       0.628   1.883   0.000  -2.510  -0.000   0.000
   36   10    7    5        3       0.628   1.883   0.000  -2.510  -0.000   0.000
   19    1    2   16        3       0.628   1.883   0.000  -2.510  -0.000   0.000
   23    3    2   21        3       0.628   1.883   0.000  -2.510  -0.000   0.000
   38   16    2   21        3       0.628   1.883   0.000  -2.510  -0.000   0.000
   21    2    1   19        3       0.628   1.883   0.000  -2.510  -0.000   0.000
   25    4    3   23        3       0.628   1.883   0.000  -2.510  -0.000   0.000
   21    2    1   20        3       0.628   1.883   0.000  -2.510  -0.000   0.000
   25    4    3   22        3       0.628   1.883   0.000  -2.510  -0.000   0.000
   24    4    3   23        3       0.628   1.883   0.000  -2.510  -0.000   0.000
   21    2    1   18        3       0.628   1.883   0.000  -2.510  -0.000   0.000
   22    3    2   21        3       0.628   1.883   0.000  -2.510  -0.000   0.000
   39   17   16   38        3       0.628   1.883   0.000  -2.510  -0.000   0.000
   41   17   16   38        3       0.628   1.883   0.000  -2.510  -0.000   0.000
   40   17   16   38        3       0.628   1.883   0.000  -2.510  -0.000   0.000
   24    4    3   22        3       0.628   1.883   0.000  -2.510  -0.000   0.000
   25    4    5   11        3       0.946   2.837   0.000  -3.782  -0.000   0.000
   26    6    5   11        3       0.946   2.837   0.000  -3.782  -0.000   0.000
   27    6    5   11        3       0.946   2.837   0.000  -3.782  -0.000   0.000
   24    4    5   11        3       0.946   2.837   0.000  -3.782  -0.000   0.000
   28    6    5   11        3       0.946   2.837   0.000  -3.782  -0.000   0.000
   15   14   16    2        3       0.000   0.000   0.000  -0.000  -0.000   0.000
   15   14   11    5        3       0.000   0.000   0.000  -0.000  -0.000   0.000
   15   14   11   13        3       0.000   0.000   0.000  -0.000  -0.000   0.000
   15   14   11   12        3       0.000   0.000   0.000  -0.000  -0.000   0.000
   12   11    5    6        3       0.000   0.000   0.000  -0.000  -0.000   0.000
   13   11    5    6        3       0.000   0.000   0.000  -0.000  -0.000   0.000
   13   11    5    7        3       0.000   0.000   0.000  -0.000  -0.000   0.000
   12   11    5    4        3       0.000   0.000   0.000  -0.000  -0.000   0.000
   13   11    5    4        3       0.000   0.000   0.000  -0.000  -0.000   0.000
   12   11    5    7        3       0.000   0.000   0.000  -0.000  -0.000   0.000
   11   14   16    2        3       2.784   0.278   0.828  -3.891  -0.000   0.000
   11    5    7    9        3       2.784   0.278   0.828  -3.891  -0.000   0.000
   11    5    4    3        3       2.784   0.278   0.828  -3.891  -0.000   0.000
   11    5    7   10        3       2.784   0.278   0.828  -3.891  -0.000   0.000
   11    5    7    8        3       2.784   0.278   0.828  -3.891  -0.000   0.000

[ pairs ]
     1     4    1
     2     5    1
     3     6    1
     3     7    1
     4     8    1
     4     9    1
     2    11    1
     6     8    1
     4    10    1
     3    11    1
     6     9    1
     1    14    1
     6    10    1
     4    12    1
     4    13    1
     3    14    1
     2    15    1
     6    12    1
     4    14    1
     1    17    1
     8    11    1
     7    12    1
     6    13    1
     9    11    1
     7    13    1
     6    14    1
     5    15    1
     4    16    1
     3    17    1
    10    11    1
     7    14    1
     5    16    1
     3    18    1
     3    19    1
     3    20    1
     1    22    1
     1    23    1
     4    21    1
     2    24    1
    12    15    1
     5    22    1
     2    25    1
    13    15    1
    12    16    1
    11    17    1
     5    23    1
    13    16    1
     6    24    1
     4    26    1
     7    24    1
     6    25    1
     4    27    1
    15    17    1
     7    25    1
     4    28    1
     7    26    1
    16    18    1
     7    27    1
     5    29    1
    16    19    1
    14    21    1
    11    24    1
     7    28    1
     5    30    1
    16    20    1
    11    25    1
     5    31    1
    11    26    1
     5    32    1
    17    21    1
    16    22    1
    11    27    1
     9    29    1
     5    33    1
    18    21    1
    16    23    1
    11    28    1
    10    29    1
     9    30    1
     5    34    1
     1    38    1
    19    21    1
    10    30    1
     9    31    1
     8    32    1
     5    35    1
    20    21    1
    10    31    1
     8    33    1
     5    36    1
     3    38    1
     2    39    1
    10    32    1
     8    34    1
     5    37    1
     2    40    1
    21    22    1
    10    33    1
     8    35    1
     2    41    1
    21    23    1
    10    34    1
     9    35    1
     8    36    1
     9    36    1
     8    37    1
    22    24    1
     9    37    1
    23    24    1
    22    25    1
    23    25    1
    11    38    1
    15    38    1
    14    39    1
    14    40    1
    14    41    1
    21    38    1
    38    39    1
    38    40    1
    38    41    1

