LIGPARGEN GENERATED GRO FILE
   41
    1UNK    C00    1   0.100   0.100   0.000
    1UNK    C01    2  -0.054   0.100   0.000
    1UNK    C02    3  -0.101   0.100   0.148
    1UNK    C03    4  -0.253   0.106   0.180
    1UNK    C04    5  -0.325   0.245   0.177
    1UNK    C05    6  -0.227   0.361   0.210
    1UNK    C06    7  -0.450   0.252   0.281
    1UNK    C07    8  -0.402   0.234   0.429
    1UNK    C08    9  -0.521   0.389   0.276
    1UNK    C09   10  -0.556   0.143   0.260
    1UNK    S0A   11  -0.387   0.274   0.001
    1UNK    O0B   12  -0.375   0.414  -0.033
    1UNK    O0C   13  -0.510   0.201  -0.024
    1UNK    C0D   14  -0.259   0.192  -0.101
    1UNK    O0E   15  -0.299   0.108  -0.183
    1UNK    C0F   16  -0.110   0.215  -0.086
    1UNK    C0G   17  -0.047   0.229  -0.225
    1UNK    H0H   18   0.139   0.021   0.065
    1UNK    H0I   19   0.139   0.196   0.036
    1UNK    H0J   20   0.140   0.081  -0.100
    1UNK    H0K   21  -0.086   0.004  -0.044
    1UNK    H0M   22  -0.048   0.177   0.204
    1UNK    H0N   23  -0.066   0.005   0.191
    1UNK    H0O   24  -0.260   0.067   0.282
    1UNK    H0P   25  -0.306   0.033   0.118
    1UNK    H0Q   26  -0.185   0.352   0.310
    1UNK    H0R   27  -0.274   0.459   0.202
    1UNK    H0S   28  -0.142   0.365   0.143
    1UNK    H0T   29  -0.324   0.305   0.457
    1UNK    H0U   30  -0.365   0.133   0.448
    1UNK    H0V   31  -0.485   0.250   0.498
    1UNK    H0W   32  -0.456   0.471   0.307
    1UNK    H0X   33  -0.607   0.392   0.345
    1UNK    H0Y   34  -0.560   0.412   0.177
    1UNK    H0Z   35  -0.513   0.043   0.257
    1UNK    H10   36  -0.616   0.158   0.170
    1UNK    H11   37  -0.629   0.143   0.343
    1UNK    H12   38  -0.095   0.311  -0.037
    1UNK    H13   39  -0.047   0.134  -0.279
    1UNK    H14   40   0.056   0.266  -0.218
    1UNK    H15   41  -0.103   0.302  -0.285
   1.00000   1.00000   1.00000

