
;
; GENERATED BY LigParGen Server
; Jorgensen Lab @ Yale University 
;
[ atomtypes ]
  opls_814  C814    12.0110     0.000    A    3.50000E-01   2.76144E-01
  opls_855  H855     1.0080     0.000    A    2.50000E-01   1.25520E-01
  opls_824  H824     1.0080     0.000    A    2.50000E-01   1.25520E-01
  opls_804  C804    12.0110     0.000    A    3.50000E-01   2.76144E-01
  opls_818  C818    12.0110     0.000    A    3.50000E-01   2.76144E-01
  opls_848  H848     1.0080     0.000    A    2.50000E-01   1.25520E-01
  opls_843  H843     1.0080     0.000    A    2.50000E-01   1.25520E-01
  opls_836  H836     1.0080     0.000    A    2.50000E-01   1.25520E-01
  opls_834  H834     1.0080     0.000    A    2.50000E-01   1.25520E-01
  opls_810  C810    12.0110     0.000    A    3.50000E-01   2.76144E-01
  opls_828  H828     1.0080     0.000    A    2.50000E-01   1.25520E-01
  opls_851  H851     1.0080     0.000    A    2.50000E-01   1.25520E-01
  opls_812  C812    12.0110     0.000    A    3.50000E-01   2.76144E-01
  opls_802  C802    12.0110     0.000    A    3.50000E-01   2.76144E-01
  opls_827  H827     1.0080     0.000    A    2.50000E-01   1.25520E-01
  opls_809  C809    12.0110     0.000    A    3.50000E-01   2.76144E-01
  opls_806  C806    12.0110     0.000    A    3.50000E-01   2.76144E-01
  opls_822  H822     1.0080     0.000    A    2.50000E-01   1.25520E-01
  opls_803  C803    12.0110     0.000    A    3.50000E-01   2.76144E-01
  opls_838  H838     1.0080     0.000    A    2.50000E-01   1.25520E-01
  opls_830  H830     1.0080     0.000    A    2.50000E-01   1.25520E-01
  opls_821  H821     1.0080     0.000    A    2.50000E-01   1.25520E-01
  opls_842  H842     1.0080     0.000    A    2.50000E-01   1.25520E-01
  opls_826  H826     1.0080     0.000    A    2.50000E-01   1.25520E-01
  opls_837  H837     1.0080     0.000    A    2.50000E-01   1.25520E-01
  opls_829  H829     1.0080     0.000    A    2.50000E-01   1.25520E-01
  opls_831  H831     1.0080     0.000    A    2.50000E-01   1.25520E-01
  opls_853  H853     1.0080     0.000    A    2.50000E-01   1.25520E-01
  opls_832  H832     1.0080     0.000    A    2.50000E-01   1.25520E-01
  opls_800  C800    12.0110     0.000    A    3.50000E-01   2.76144E-01
  opls_805  C805    12.0110     0.000    A    3.50000E-01   2.76144E-01
  opls_846  H846     1.0080     0.000    A    2.50000E-01   1.25520E-01
  opls_811  C811    12.0110     0.000    A    3.50000E-01   2.76144E-01
  opls_823  H823     1.0080     0.000    A    2.50000E-01   1.25520E-01
  opls_819  C819    12.0110     0.000    A    3.50000E-01   2.76144E-01
  opls_820  C820    12.0110     0.000    A    3.50000E-01   2.76144E-01
  opls_835  H835     1.0080     0.000    A    2.50000E-01   1.25520E-01
  opls_841  H841     1.0080     0.000    A    2.50000E-01   1.25520E-01
  opls_825  H825     1.0080     0.000    A    2.50000E-01   1.25520E-01
  opls_816  C816    12.0110     0.000    A    3.50000E-01   2.76144E-01
  opls_833  H833     1.0080     0.000    A    2.50000E-01   1.25520E-01
  opls_839  H839     1.0080     0.000    A    2.50000E-01   1.25520E-01
  opls_817  C817    12.0110     0.000    A    3.50000E-01   2.76144E-01
  opls_852  H852     1.0080     0.000    A    2.50000E-01   1.25520E-01
  opls_801  C801    12.0110     0.000    A    3.50000E-01   2.76144E-01
  opls_808  C808    12.0110     0.000    A    3.50000E-01   2.76144E-01
  opls_850  H850     1.0080     0.000    A    2.50000E-01   1.25520E-01
  opls_840  H840     1.0080     0.000    A    2.50000E-01   1.25520E-01
  opls_849  H849     1.0080     0.000    A    2.50000E-01   1.25520E-01
  opls_813  C813    12.0110     0.000    A    3.50000E-01   2.76144E-01
  opls_847  H847     1.0080     0.000    A    2.50000E-01   1.25520E-01
  opls_815  F815    18.9984     0.000    A    2.90000E-01   2.51040E-01
  opls_844  H844     1.0080     0.000    A    2.50000E-01   1.25520E-01
  opls_845  H845     1.0080     0.000    A    2.50000E-01   1.25520E-01
  opls_854  H854     1.0080     0.000    A    2.50000E-01   1.25520E-01
  opls_807  C807    12.0110     0.000    A    3.50000E-01   2.76144E-01
[ moleculetype ]
; Name               nrexcl
UNK                   3
[ atoms ]
;   nr       type  resnr residue  atom   cgnr     charge       mass  
     1   opls_800      1    UNK   C00      1    -0.2381    12.0110 
     2   opls_801      1    UNK   C01      1    -0.1727    12.0110 
     3   opls_802      1    UNK   C02      1    -0.1131    12.0110 
     4   opls_803      1    UNK   C03      1    -0.1842    12.0110 
     5   opls_804      1    UNK   C04      1    -0.1843    12.0110 
     6   opls_805      1    UNK   C05      1    -0.1797    12.0110 
     7   opls_806      1    UNK   C06      1    -0.1065    12.0110 
     8   opls_807      1    UNK   C07      1    -0.0939    12.0110 
     9   opls_808      1    UNK   C08      1    -0.2352    12.0110 
    10   opls_809      1    UNK   C09      1    -0.0974    12.0110 
    11   opls_810      1    UNK   C0A      1    -0.1673    12.0110 
    12   opls_811      1    UNK   C0B      1    -0.1117    12.0110 
    13   opls_812      1    UNK   C0C      1    -0.1738    12.0110 
    14   opls_813      1    UNK   C0D      1    -0.2132    12.0110 
    15   opls_814      1    UNK   C0E      1     0.0702    12.0110 
    16   opls_815      1    UNK   F0F      1    -0.1862    18.9984 
    17   opls_816      1    UNK   C0G      1    -0.2098    12.0110 
    18   opls_817      1    UNK   C0H      1    -0.1077    12.0110 
    19   opls_818      1    UNK   C0I      1    -0.1629    12.0110 
    20   opls_819      1    UNK   C0J      1    -0.1075    12.0110 
    21   opls_820      1    UNK   C0K      1    -0.2373    12.0110 
    22   opls_821      1    UNK   H0M      1     0.0808     1.0080 
    23   opls_822      1    UNK   H0N      1     0.0808     1.0080 
    24   opls_823      1    UNK   H0O      1     0.0808     1.0080 
    25   opls_824      1    UNK   H0P      1     0.0867     1.0080 
    26   opls_825      1    UNK   H0Q      1     0.0867     1.0080 
    27   opls_826      1    UNK   H0R      1     0.1048     1.0080 
    28   opls_827      1    UNK   H0S      1     0.0926     1.0080 
    29   opls_828      1    UNK   H0T      1     0.0926     1.0080 
    30   opls_829      1    UNK   H0U      1     0.0925     1.0080 
    31   opls_830      1    UNK   H0V      1     0.0925     1.0080 
    32   opls_831      1    UNK   H0W      1     0.0906     1.0080 
    33   opls_832      1    UNK   H0X      2     0.0906     1.0080 
    34   opls_833      1    UNK   H0Y      2     0.0991     1.0080 
    35   opls_834      1    UNK   H0Z      2     0.0975     1.0080 
    36   opls_835      1    UNK   H10      2     0.0805     1.0080 
    37   opls_836      1    UNK   H11      2     0.0805     1.0080 
    38   opls_837      1    UNK   H12      2     0.0805     1.0080 
    39   opls_838      1    UNK   H13      2     0.0959     1.0080 
    40   opls_839      1    UNK   H14      2     0.0902     1.0080 
    41   opls_840      1    UNK   H15      2     0.0902     1.0080 
    42   opls_841      1    UNK   H16      2     0.0974     1.0080 
    43   opls_842      1    UNK   H17      2     0.0969     1.0080 
    44   opls_843      1    UNK   H18      2     0.0969     1.0080 
    45   opls_844      1    UNK   H19      2     0.1016     1.0080 
    46   opls_845      1    UNK   H1A      2     0.1016     1.0080 
    47   opls_846      1    UNK   H1B      2     0.0947     1.0080 
    48   opls_847      1    UNK   H1C      2     0.1027     1.0080 
    49   opls_848      1    UNK   H1D      2     0.1027     1.0080 
    50   opls_849      1    UNK   H1E      2     0.1128     1.0080 
    51   opls_850      1    UNK   H1F      2     0.0877     1.0080 
    52   opls_851      1    UNK   H1G      2     0.0877     1.0080 
    53   opls_852      1    UNK   H1H      2     0.0976     1.0080 
    54   opls_853      1    UNK   H1I      2     0.0819     1.0080 
    55   opls_854      1    UNK   H1J      2     0.0819     1.0080 
    56   opls_855      1    UNK   H1K      2     0.0819     1.0080 
[ bonds ]
    2     1     1      0.1529 224262.400
    3     2     1      0.1529 224262.400
    4     3     1      0.1529 224262.400
    5     4     1      0.1529 224262.400
    6     5     1      0.1529 224262.400
    7     3     1      0.1529 224262.400
    8     7     1      0.1529 224262.400
    9     8     1      0.1529 224262.400
   10     8     1      0.1529 224262.400
   11    10     1      0.1529 224262.400
   12    11     1      0.1529 224262.400
   13    12     1      0.1529 224262.400
   14    13     1      0.1529 224262.400
   15    14     1      0.1529 224262.400
   16    15     1      0.1360 307105.600
   17    15     1      0.1529 224262.400
   18    12     1      0.1529 224262.400
   19    18     1      0.1529 224262.400
   20    10     1      0.1529 224262.400
   21    20     1      0.1529 224262.400
   22     1     1      0.1090 284512.000
   23     1     1      0.1090 284512.000
   24     1     1      0.1090 284512.000
   25     2     1      0.1090 284512.000
   26     2     1      0.1090 284512.000
   27     3     1      0.1090 284512.000
   28     4     1      0.1090 284512.000
   29     4     1      0.1090 284512.000
   30     5     1      0.1090 284512.000
   31     5     1      0.1090 284512.000
   32     6     1      0.1090 284512.000
   33     6     1      0.1090 284512.000
   34     7     1      0.1090 284512.000
   35     8     1      0.1090 284512.000
   36     9     1      0.1090 284512.000
   37     9     1      0.1090 284512.000
   38     9     1      0.1090 284512.000
   39    10     1      0.1090 284512.000
   40    11     1      0.1090 284512.000
   41    11     1      0.1090 284512.000
   42    12     1      0.1090 284512.000
   43    13     1      0.1090 284512.000
   44    13     1      0.1090 284512.000
   45    14     1      0.1090 284512.000
   46    14     1      0.1090 284512.000
   47    15     1      0.1090 284512.000
   48    17     1      0.1090 284512.000
   49    17     1      0.1090 284512.000
   50    18     1      0.1090 284512.000
   51    19     1      0.1090 284512.000
   52    19     1      0.1090 284512.000
   53    20     1      0.1090 284512.000
   54    21     1      0.1090 284512.000
   55    21     1      0.1090 284512.000
   56    21     1      0.1090 284512.000
    7     6     1      0.1529 224262.400
   18    17     1      0.1529 224262.400
   20    19     1      0.1529 224262.400

[ angles ]
;  ai    aj    ak funct            c0            c1            c2            c3 
    1     2     3     1    112.700    488.273
    2     3     4     1    112.700    488.273
    3     4     5     1    112.700    488.273
    4     5     6     1    112.700    488.273
    2     3     7     1    112.700    488.273
    3     7     8     1    112.700    488.273
    7     8     9     1    112.700    488.273
    7     8    10     1    112.700    488.273
    8    10    11     1    112.700    488.273
   10    11    12     1    112.700    488.273
   11    12    13     1    112.700    488.273
   12    13    14     1    112.700    488.273
   13    14    15     1    112.700    488.273
   14    15    16     1    109.500    418.400
   14    15    17     1    112.700    488.273
   11    12    18     1    112.700    488.273
   12    18    19     1    112.700    488.273
    8    10    20     1    112.700    488.273
   10    20    21     1    112.700    488.273
    2     1    22     1    110.700    313.800
    2     1    23     1    110.700    313.800
    2     1    24     1    110.700    313.800
    1     2    25     1    110.700    313.800
    1     2    26     1    110.700    313.800
    2     3    27     1    110.700    313.800
    3     4    28     1    110.700    313.800
    3     4    29     1    110.700    313.800
    4     5    30     1    110.700    313.800
    4     5    31     1    110.700    313.800
    5     6    32     1    110.700    313.800
    5     6    33     1    110.700    313.800
    3     7    34     1    110.700    313.800
    7     8    35     1    110.700    313.800
    8     9    36     1    110.700    313.800
    8     9    37     1    110.700    313.800
    8     9    38     1    110.700    313.800
    8    10    39     1    110.700    313.800
   10    11    40     1    110.700    313.800
   10    11    41     1    110.700    313.800
   11    12    42     1    110.700    313.800
   12    13    43     1    110.700    313.800
   12    13    44     1    110.700    313.800
   13    14    45     1    110.700    313.800
   13    14    46     1    110.700    313.800
   14    15    47     1    110.700    313.800
   15    17    48     1    110.700    313.800
   15    17    49     1    110.700    313.800
   12    18    50     1    110.700    313.800
   18    19    51     1    110.700    313.800
   18    19    52     1    110.700    313.800
   10    20    53     1    110.700    313.800
   20    21    54     1    110.700    313.800
   20    21    55     1    110.700    313.800
   20    21    56     1    110.700    313.800
    9     8    10     1    112.700    488.273
    3     2    26     1    110.700    313.800
   54    21    55     1    107.800    276.144
   22     1    24     1    107.800    276.144
   16    15    17     1    109.500    418.400
   48    17    49     1    107.800    276.144
   18    17    48     1    110.700    313.800
   19    20    21     1    112.700    488.273
    7     6    32     1    110.700    313.800
    7     3    27     1    110.700    313.800
   54    21    56     1    107.800    276.144
   18    19    20     1    112.700    488.273
    6     5    30     1    110.700    313.800
   20    19    51     1    110.700    313.800
    3     2    25     1    110.700    313.800
   37     9    38     1    107.800    276.144
    5     4    28     1    110.700    313.800
   23     1    24     1    107.800    276.144
   10    20    19     1    112.700    488.273
   36     9    38     1    107.800    276.144
    3     7     6     1    112.700    488.273
    6     7     8     1    112.700    488.273
   18    12    42     1    110.700    313.800
   28     4    29     1    107.800    276.144
   19    20    53     1    110.700    313.800
   15    14    46     1    110.700    313.800
   17    18    50     1    110.700    313.800
   55    21    56     1    107.800    276.144
   13    12    42     1    110.700    313.800
   18    17    49     1    110.700    313.800
   25     2    26     1    107.800    276.144
   12    18    17     1    112.700    488.273
   21    20    53     1    110.700    313.800
   32     6    33     1    107.800    276.144
    5     6     7     1    112.700    488.273
   16    15    47     1    107.000    334.720
   17    15    47     1    110.700    313.800
    4     3    27     1    110.700    313.800
   43    13    44     1    107.800    276.144
   10     8    35     1    110.700    313.800
    6     7    34     1    110.700    313.800
   17    18    19     1    112.700    488.273
   20    19    52     1    110.700    313.800
   51    19    52     1    107.800    276.144
    6     5    31     1    110.700    313.800
   45    14    46     1    107.800    276.144
   36     9    37     1    107.800    276.144
   15    14    45     1    110.700    313.800
    8     7    34     1    110.700    313.800
    5     4    29     1    110.700    313.800
   19    18    50     1    110.700    313.800
   11    10    20     1    112.700    488.273
   14    13    43     1    110.700    313.800
   11    10    39     1    110.700    313.800
   22     1    23     1    107.800    276.144
    4     3     7     1    112.700    488.273
    9     8    35     1    110.700    313.800
   12    11    40     1    110.700    313.800
   20    10    39     1    110.700    313.800
   40    11    41     1    107.800    276.144
   15    17    18     1    112.700    488.273
    7     6    33     1    110.700    313.800
   30     5    31     1    107.800    276.144
   13    12    18     1    112.700    488.273
   12    11    41     1    110.700    313.800
   14    13    44     1    110.700    313.800

[ dihedrals ]
; IMPROPER DIHEDRAL ANGLES 
;  ai    aj    ak    al funct            c0            c1            c2            c3            c4            c5

[ dihedrals ]
; PROPER DIHEDRAL ANGLES
;  ai    aj    ak    al funct            c0            c1            c2            c3            c4            c5
    4    3    2    1        3       2.301  -1.464   0.837  -1.674  -0.000   0.000
    6    7    3    4        3       2.301  -1.464   0.837  -1.674  -0.000   0.000
   18   17   15   14        3       2.301  -1.464   0.837  -1.674  -0.000   0.000
    7    3    2    1        3       2.301  -1.464   0.837  -1.674  -0.000   0.000
   20   19   18   17        3       2.301  -1.464   0.837  -1.674  -0.000   0.000
    9    8    7    6        3       2.301  -1.464   0.837  -1.674  -0.000   0.000
   19   20   10   11        3       2.301  -1.464   0.837  -1.674  -0.000   0.000
   19   18   17   15        3       2.301  -1.464   0.837  -1.674  -0.000   0.000
   17   15   14   13        3       2.301  -1.464   0.837  -1.674  -0.000   0.000
   21   20   19   18        3       2.301  -1.464   0.837  -1.674  -0.000   0.000
   18   12   11   10        3       2.301  -1.464   0.837  -1.674  -0.000   0.000
    6    7    3    2        3       2.301  -1.464   0.837  -1.674  -0.000   0.000
   20   19   18   12        3       2.301  -1.464   0.837  -1.674  -0.000   0.000
   20   10    8    7        3       2.301  -1.464   0.837  -1.674  -0.000   0.000
   10    8    7    3        3       2.301  -1.464   0.837  -1.674  -0.000   0.000
   21   20   10   11        3       2.301  -1.464   0.837  -1.674  -0.000   0.000
   19   20   10    8        3       2.301  -1.464   0.837  -1.674  -0.000   0.000
    8    7    6    5        3       2.301  -1.464   0.837  -1.674  -0.000   0.000
   17   18   12   11        3       2.301  -1.464   0.837  -1.674  -0.000   0.000
   19   18   12   13        3       2.301  -1.464   0.837  -1.674  -0.000   0.000
    7    6    5    4        3       2.301  -1.464   0.837  -1.674  -0.000   0.000
   20   10   11   12        3       2.301  -1.464   0.837  -1.674  -0.000   0.000
   11   10    8    9        3       2.301  -1.464   0.837  -1.674  -0.000   0.000
   10    8    7    6        3       2.301  -1.464   0.837  -1.674  -0.000   0.000
    8    7    3    2        3       2.301  -1.464   0.837  -1.674  -0.000   0.000
   15   17   18   12        3       2.301  -1.464   0.837  -1.674  -0.000   0.000
    7    3    4    5        3       2.301  -1.464   0.837  -1.674  -0.000   0.000
   18   12   13   14        3       2.301  -1.464   0.837  -1.674  -0.000   0.000
   18   19   20   10        3       2.301  -1.464   0.837  -1.674  -0.000   0.000
   21   20   10    8        3       2.301  -1.464   0.837  -1.674  -0.000   0.000
   19   18   12   11        3       2.301  -1.464   0.837  -1.674  -0.000   0.000
   17   18   12   13        3       2.301  -1.464   0.837  -1.674  -0.000   0.000
    5    6    7    3        3       2.301  -1.464   0.837  -1.674  -0.000   0.000
   20   10    8    9        3       2.301  -1.464   0.837  -1.674  -0.000   0.000
    8    7    3    4        3       2.301  -1.464   0.837  -1.674  -0.000   0.000
   11   10    8    7        3       2.301  -1.464   0.837  -1.674  -0.000   0.000
   12   11   10    8        3       2.301  -1.464   0.837  -1.674  -0.000   0.000
    9    8    7    3        3       2.301  -1.464   0.837  -1.674  -0.000   0.000
   13   12   11   10        3       2.301  -1.464   0.837  -1.674  -0.000   0.000
   15   14   13   12        3       2.301  -1.464   0.837  -1.674  -0.000   0.000
    6    5    4    3        3       2.301  -1.464   0.837  -1.674  -0.000   0.000
    5    4    3    2        3       2.301  -1.464   0.837  -1.674  -0.000   0.000
   14   13   12   11        3       2.301  -1.464   0.837  -1.674  -0.000   0.000
   18   17   15   16        3      -0.209   1.883   1.674  -3.347  -0.000   0.000
   16   15   14   13        3      -0.209   1.883   1.674  -3.347  -0.000   0.000
   52   19   18   17        3       0.628   1.883   0.000  -2.510  -0.000   0.000
   30    5    6    7        3       0.628   1.883   0.000  -2.510  -0.000   0.000
   52   19   20   21        3       0.628   1.883   0.000  -2.510  -0.000   0.000
   33    6    5    4        3       0.628   1.883   0.000  -2.510  -0.000   0.000
   42   12   13   14        3       0.628   1.883   0.000  -2.510  -0.000   0.000
   31    5    4    3        3       0.628   1.883   0.000  -2.510  -0.000   0.000
   27    3    2    1        3       0.628   1.883   0.000  -2.510  -0.000   0.000
   50   18   19   20        3       0.628   1.883   0.000  -2.510  -0.000   0.000
   28    4    5    6        3       0.628   1.883   0.000  -2.510  -0.000   0.000
   35    8   10   20        3       0.628   1.883   0.000  -2.510  -0.000   0.000
   40   11   10    8        3       0.628   1.883   0.000  -2.510  -0.000   0.000
   34    7    6    5        3       0.628   1.883   0.000  -2.510  -0.000   0.000
   24    1    2    3        3       0.628   1.883   0.000  -2.510  -0.000   0.000
   48   17   15   14        3       0.628   1.883   0.000  -2.510  -0.000   0.000
   41   11   10   20        3       0.628   1.883   0.000  -2.510  -0.000   0.000
   29    4    5    6        3       0.628   1.883   0.000  -2.510  -0.000   0.000
   44   13   14   15        3       0.628   1.883   0.000  -2.510  -0.000   0.000
   29    4    3    2        3       0.628   1.883   0.000  -2.510  -0.000   0.000
   56   21   20   19        3       0.628   1.883   0.000  -2.510  -0.000   0.000
   22    1    2    3        3       0.628   1.883   0.000  -2.510  -0.000   0.000
   40   11   12   13        3       0.628   1.883   0.000  -2.510  -0.000   0.000
   41   11   12   13        3       0.628   1.883   0.000  -2.510  -0.000   0.000
   34    7    8    9        3       0.628   1.883   0.000  -2.510  -0.000   0.000
   35    8    7    3        3       0.628   1.883   0.000  -2.510  -0.000   0.000
   34    7    3    2        3       0.628   1.883   0.000  -2.510  -0.000   0.000
   53   20   19   18        3       0.628   1.883   0.000  -2.510  -0.000   0.000
   42   12   18   19        3       0.628   1.883   0.000  -2.510  -0.000   0.000
   27    3    7    8        3       0.628   1.883   0.000  -2.510  -0.000   0.000
   45   14   15   17        3       0.628   1.883   0.000  -2.510  -0.000   0.000
   46   14   13   12        3       0.628   1.883   0.000  -2.510  -0.000   0.000
   43   13   14   15        3       0.628   1.883   0.000  -2.510  -0.000   0.000
   37    9    8   10        3       0.628   1.883   0.000  -2.510  -0.000   0.000
   48   17   18   12        3       0.628   1.883   0.000  -2.510  -0.000   0.000
   48   17   18   19        3       0.628   1.883   0.000  -2.510  -0.000   0.000
   52   19   18   12        3       0.628   1.883   0.000  -2.510  -0.000   0.000
   40   11   10   20        3       0.628   1.883   0.000  -2.510  -0.000   0.000
   44   13   12   11        3       0.628   1.883   0.000  -2.510  -0.000   0.000
   46   14   15   17        3       0.628   1.883   0.000  -2.510  -0.000   0.000
   25    2    3    4        3       0.628   1.883   0.000  -2.510  -0.000   0.000
   44   13   12   18        3       0.628   1.883   0.000  -2.510  -0.000   0.000
   35    8   10   11        3       0.628   1.883   0.000  -2.510  -0.000   0.000
   51   19   20   21        3       0.628   1.883   0.000  -2.510  -0.000   0.000
   39   10   20   21        3       0.628   1.883   0.000  -2.510  -0.000   0.000
   53   20   10   11        3       0.628   1.883   0.000  -2.510  -0.000   0.000
   39   10    8    9        3       0.628   1.883   0.000  -2.510  -0.000   0.000
   37    9    8    7        3       0.628   1.883   0.000  -2.510  -0.000   0.000
   35    8    7    6        3       0.628   1.883   0.000  -2.510  -0.000   0.000
   30    5    4    3        3       0.628   1.883   0.000  -2.510  -0.000   0.000
   42   12   11   10        3       0.628   1.883   0.000  -2.510  -0.000   0.000
   43   13   12   11        3       0.628   1.883   0.000  -2.510  -0.000   0.000
   32    6    5    4        3       0.628   1.883   0.000  -2.510  -0.000   0.000
   34    7    3    4        3       0.628   1.883   0.000  -2.510  -0.000   0.000
   55   21   20   19        3       0.628   1.883   0.000  -2.510  -0.000   0.000
   40   11   12   18        3       0.628   1.883   0.000  -2.510  -0.000   0.000
   51   19   20   10        3       0.628   1.883   0.000  -2.510  -0.000   0.000
   39   10   20   19        3       0.628   1.883   0.000  -2.510  -0.000   0.000
   50   18   17   15        3       0.628   1.883   0.000  -2.510  -0.000   0.000
   47   15   17   18        3       0.628   1.883   0.000  -2.510  -0.000   0.000
   29    4    3    7        3       0.628   1.883   0.000  -2.510  -0.000   0.000
   27    3    7    6        3       0.628   1.883   0.000  -2.510  -0.000   0.000
   41   11   12   18        3       0.628   1.883   0.000  -2.510  -0.000   0.000
   36    9    8   10        3       0.628   1.883   0.000  -2.510  -0.000   0.000
   52   19   20   10        3       0.628   1.883   0.000  -2.510  -0.000   0.000
   36    9    8    7        3       0.628   1.883   0.000  -2.510  -0.000   0.000
   47   15   14   13        3       0.628   1.883   0.000  -2.510  -0.000   0.000
   56   21   20   10        3       0.628   1.883   0.000  -2.510  -0.000   0.000
   38    9    8    7        3       0.628   1.883   0.000  -2.510  -0.000   0.000
   26    2    3    7        3       0.628   1.883   0.000  -2.510  -0.000   0.000
   23    1    2    3        3       0.628   1.883   0.000  -2.510  -0.000   0.000
   31    5    6    7        3       0.628   1.883   0.000  -2.510  -0.000   0.000
   54   21   20   19        3       0.628   1.883   0.000  -2.510  -0.000   0.000
   45   14   13   12        3       0.628   1.883   0.000  -2.510  -0.000   0.000
   39   10   11   12        3       0.628   1.883   0.000  -2.510  -0.000   0.000
   32    6    7    3        3       0.628   1.883   0.000  -2.510  -0.000   0.000
   34    7    8   10        3       0.628   1.883   0.000  -2.510  -0.000   0.000
   49   17   15   14        3       0.628   1.883   0.000  -2.510  -0.000   0.000
   43   13   12   18        3       0.628   1.883   0.000  -2.510  -0.000   0.000
   28    4    3    2        3       0.628   1.883   0.000  -2.510  -0.000   0.000
   54   21   20   10        3       0.628   1.883   0.000  -2.510  -0.000   0.000
   27    3    4    5        3       0.628   1.883   0.000  -2.510  -0.000   0.000
   51   19   18   12        3       0.628   1.883   0.000  -2.510  -0.000   0.000
   33    6    7    3        3       0.628   1.883   0.000  -2.510  -0.000   0.000
   49   17   18   12        3       0.628   1.883   0.000  -2.510  -0.000   0.000
   50   18   12   13        3       0.628   1.883   0.000  -2.510  -0.000   0.000
   42   12   18   17        3       0.628   1.883   0.000  -2.510  -0.000   0.000
   50   18   12   11        3       0.628   1.883   0.000  -2.510  -0.000   0.000
   53   20   10    8        3       0.628   1.883   0.000  -2.510  -0.000   0.000
   33    6    7    8        3       0.628   1.883   0.000  -2.510  -0.000   0.000
   26    2    3    4        3       0.628   1.883   0.000  -2.510  -0.000   0.000
   28    4    3    7        3       0.628   1.883   0.000  -2.510  -0.000   0.000
   38    9    8   10        3       0.628   1.883   0.000  -2.510  -0.000   0.000
   25    2    3    7        3       0.628   1.883   0.000  -2.510  -0.000   0.000
   32    6    7    8        3       0.628   1.883   0.000  -2.510  -0.000   0.000
   41   11   10    8        3       0.628   1.883   0.000  -2.510  -0.000   0.000
   49   17   18   19        3       0.628   1.883   0.000  -2.510  -0.000   0.000
   55   21   20   10        3       0.628   1.883   0.000  -2.510  -0.000   0.000
   51   19   18   17        3       0.628   1.883   0.000  -2.510  -0.000   0.000
   39   10    8    7        3       0.628   1.883   0.000  -2.510  -0.000   0.000
   48   17   15   16        3       0.837   2.510   0.000  -3.347  -0.000   0.000
   45   14   15   16        3       0.837   2.510   0.000  -3.347  -0.000   0.000
   49   17   15   16        3       0.837   2.510   0.000  -3.347  -0.000   0.000
   46   14   15   16        3       0.837   2.510   0.000  -3.347  -0.000   0.000
   47   15   14   45        3       0.628   1.883   0.000  -2.510  -0.000   0.000
   37    9    8   35        3       0.628   1.883   0.000  -2.510  -0.000   0.000
   32    6    5   30        3       0.628   1.883   0.000  -2.510  -0.000   0.000
   52   19   18   50        3       0.628   1.883   0.000  -2.510  -0.000   0.000
   26    2    1   23        3       0.628   1.883   0.000  -2.510  -0.000   0.000
   34    7    3   27        3       0.628   1.883   0.000  -2.510  -0.000   0.000
   26    2    1   22        3       0.628   1.883   0.000  -2.510  -0.000   0.000
   53   20   19   51        3       0.628   1.883   0.000  -2.510  -0.000   0.000
   48   17   15   47        3       0.628   1.883   0.000  -2.510  -0.000   0.000
   42   12   11   40        3       0.628   1.883   0.000  -2.510  -0.000   0.000
   40   11   10   39        3       0.628   1.883   0.000  -2.510  -0.000   0.000
   39   10    8   35        3       0.628   1.883   0.000  -2.510  -0.000   0.000
   55   21   20   53        3       0.628   1.883   0.000  -2.510  -0.000   0.000
   41   11   10   39        3       0.628   1.883   0.000  -2.510  -0.000   0.000
   33    6    5   31        3       0.628   1.883   0.000  -2.510  -0.000   0.000
   45   14   13   43        3       0.628   1.883   0.000  -2.510  -0.000   0.000
   50   18   17   48        3       0.628   1.883   0.000  -2.510  -0.000   0.000
   25    2    1   22        3       0.628   1.883   0.000  -2.510  -0.000   0.000
   27    3    2   25        3       0.628   1.883   0.000  -2.510  -0.000   0.000
   36    9    8   35        3       0.628   1.883   0.000  -2.510  -0.000   0.000
   30    5    4   28        3       0.628   1.883   0.000  -2.510  -0.000   0.000
   33    6    5   30        3       0.628   1.883   0.000  -2.510  -0.000   0.000
   49   17   15   47        3       0.628   1.883   0.000  -2.510  -0.000   0.000
   56   21   20   53        3       0.628   1.883   0.000  -2.510  -0.000   0.000
   27    3    2   26        3       0.628   1.883   0.000  -2.510  -0.000   0.000
   25    2    1   24        3       0.628   1.883   0.000  -2.510  -0.000   0.000
   42   12   11   41        3       0.628   1.883   0.000  -2.510  -0.000   0.000
   31    5    4   29        3       0.628   1.883   0.000  -2.510  -0.000   0.000
   28    4    3   27        3       0.628   1.883   0.000  -2.510  -0.000   0.000
   51   19   18   50        3       0.628   1.883   0.000  -2.510  -0.000   0.000
   46   14   13   43        3       0.628   1.883   0.000  -2.510  -0.000   0.000
   26    2    1   24        3       0.628   1.883   0.000  -2.510  -0.000   0.000
   38    9    8   35        3       0.628   1.883   0.000  -2.510  -0.000   0.000
   43   13   12   42        3       0.628   1.883   0.000  -2.510  -0.000   0.000
   47   15   14   46        3       0.628   1.883   0.000  -2.510  -0.000   0.000
   53   20   19   52        3       0.628   1.883   0.000  -2.510  -0.000   0.000
   50   18   17   49        3       0.628   1.883   0.000  -2.510  -0.000   0.000
   50   18   12   42        3       0.628   1.883   0.000  -2.510  -0.000   0.000
   45   14   13   44        3       0.628   1.883   0.000  -2.510  -0.000   0.000
   25    2    1   23        3       0.628   1.883   0.000  -2.510  -0.000   0.000
   30    5    4   29        3       0.628   1.883   0.000  -2.510  -0.000   0.000
   35    8    7   34        3       0.628   1.883   0.000  -2.510  -0.000   0.000
   34    7    6   32        3       0.628   1.883   0.000  -2.510  -0.000   0.000
   29    4    3   27        3       0.628   1.883   0.000  -2.510  -0.000   0.000
   54   21   20   53        3       0.628   1.883   0.000  -2.510  -0.000   0.000
   31    5    4   28        3       0.628   1.883   0.000  -2.510  -0.000   0.000
   32    6    5   31        3       0.628   1.883   0.000  -2.510  -0.000   0.000
   44   13   12   42        3       0.628   1.883   0.000  -2.510  -0.000   0.000
   53   20   10   39        3       0.628   1.883   0.000  -2.510  -0.000   0.000
   46   14   13   44        3       0.628   1.883   0.000  -2.510  -0.000   0.000
   34    7    6   33        3       0.628   1.883   0.000  -2.510  -0.000   0.000

[ pairs ]
     1     4    1
     2     5    1
     2     6    1
     1     7    1
     2     8    1
     4     8    1
     3     9    1
     5     8    1
     3    10    1
     6     9    1
     6    10    1
     7    11    1
     9    11    1
     8    12    1
    10    13    1
    11    14    1
     3    22    1
     3    23    1
    12    15    1
     8    19    1
     7    20    1
     3    24    1
    11    17    1
    10    18    1
     1    27    1
    13    16    1
     9    20    1
     8    21    1
     4    25    1
    13    17    1
    11    19    1
     4    26    1
     2    28    1
     2    29    1
    14    18    1
    13    19    1
    12    20    1
    11    21    1
     7    25    1
     5    27    1
     7    26    1
     6    27    1
     3    30    1
    16    18    1
    15    19    1
     6    28    1
     3    31    1
     8    27    1
     7    28    1
     6    29    1
     3    32    1
     7    29    1
     4    32    1
     3    33    1
     2    34    1
    17    20    1
     7    30    1
     4    33    1
     7    31    1
     4    34    1
     3    35    1
    18    21    1
     5    34    1
     8    32    1
     8    33    1
     6    35    1
     9    34    1
     7    36    1
    10    34    1
     7    37    1
     7    38    1
    11    35    1
    10    36    1
     7    39    1
    22    25    1
    10    37    1
    23    25    1
    22    26    1
    10    38    1
     9    39    1
     8    40    1
    24    25    1
    23    26    1
     8    41    1
    24    26    1
    12    39    1
    25    27    1
    10    42    1
    26    27    1
    13    40    1
    13    41    1
    11    43    1
    27    28    1
    20    35    1
    11    44    1
    27    29    1
    14    42    1
    12    45    1
    28    30    1
    19    39    1
    18    40    1
    15    43    1
    12    46    1
    29    30    1
    28    31    1
    18    41    1
    17    42    1
    15    44    1
    29    31    1
    21    39    1
    20    40    1
    13    47    1
    12    48    1
    27    34    1
    20    41    1
    19    42    1
    18    43    1
    16    45    1
    12    49    1
    11    50    1
    10    51    1
     8    53    1
    30    32    1
    18    44    1
    17    45    1
    16    46    1
    14    48    1
    10    52    1
    31    32    1
    30    33    1
    17    46    1
    14    49    1
    13    50    1
    12    51    1
    31    33    1
    16    48    1
    12    52    1
    11    53    1
    10    54    1
    18    47    1
    16    49    1
    15    50    1
    10    55    1
    32    34    1
    10    56    1
    33    34    1
    19    48    1
    19    49    1
    17    51    1
    34    35    1
    17    52    1
    20    50    1
    35    36    1
    18    53    1
    35    37    1
    21    51    1
    35    38    1
    21    52    1
    19    54    1
    35    39    1
    19    55    1
    19    56    1
    39    40    1
    39    41    1
    40    42    1
    41    42    1
    42    43    1
    42    44    1
    43    45    1
    44    45    1
    43    46    1
    44    46    1
    45    47    1
    42    50    1
    39    53    1
    46    47    1
    47    48    1
    47    49    1
    48    50    1
    49    50    1
    50    51    1
    50    52    1
    51    53    1
    52    53    1
    53    54    1
    53    55    1
    53    56    1

