LIGPARGEN GENERATED GRO FILE
   56
    1UNK    C00    1   0.100   0.100   0.000
    1UNK    C01    2  -0.052   0.100   0.000
    1UNK    C02    3  -0.117   0.100   0.139
    1UNK    C03    4  -0.270   0.107   0.121
    1UNK    C04    5  -0.325   0.054   0.251
    1UNK    C05    6  -0.234  -0.064   0.282
    1UNK    C06    7  -0.095  -0.028   0.225
    1UNK    C07    8   0.015  -0.020   0.337
    1UNK    C08    9  -0.018   0.088   0.442
    1UNK    C09   10   0.041  -0.162   0.405
    1UNK    C0A   11   0.088  -0.269   0.304
    1UNK    C0B   12   0.230  -0.242   0.254
    1UNK    C0C   13   0.276  -0.349   0.154
    1UNK    C0D   14   0.415  -0.318   0.100
    1UNK    C0E   15   0.517  -0.297   0.212
    1UNK    F0F   16   0.537  -0.417   0.274
    1UNK    C0G   17   0.470  -0.196   0.316
    1UNK    C0H   18   0.331  -0.233   0.371
    1UNK    C0I   19   0.284  -0.134   0.478
    1UNK    C0J   20   0.141  -0.159   0.525
    1UNK    C0K   21   0.132  -0.287   0.610
    1UNK    H0M   22   0.137   0.109  -0.103
    1UNK    H0N   23   0.140   0.007   0.041
    1UNK    H0O   24   0.140   0.184   0.057
    1UNK    H0P   25  -0.087   0.014  -0.058
    1UNK    H0Q   26  -0.085   0.190  -0.054
    1UNK    H0R   27  -0.084   0.190   0.193
    1UNK    H0S   28  -0.302   0.042   0.038
    1UNK    H0T   29  -0.304   0.208   0.100
    1UNK    H0U   30  -0.429   0.024   0.243
    1UNK    H0V   31  -0.316   0.130   0.330
    1UNK    H0W   32  -0.271  -0.154   0.231
    1UNK    H0X   33  -0.236  -0.086   0.389
    1UNK    H0Y   34  -0.067  -0.107   0.155
    1UNK    H0Z   35   0.108   0.012   0.288
    1UNK    H10   36  -0.105   0.061   0.502
    1UNK    H11   37  -0.038   0.185   0.396
    1UNK    H12   38   0.066   0.105   0.510
    1UNK    H13   39  -0.056  -0.196   0.446
    1UNK    H14   40   0.019  -0.277   0.220
    1UNK    H15   41   0.084  -0.368   0.352
    1UNK    H16   42   0.230  -0.146   0.201
    1UNK    H17   43   0.205  -0.355   0.071
    1UNK    H18   44   0.276  -0.448   0.203
    1UNK    H19   45   0.410  -0.227   0.038
    1UNK    H1A   46   0.448  -0.400   0.036
    1UNK    H1B   47   0.613  -0.266   0.170
    1UNK    H1C   48   0.468  -0.096   0.272
    1UNK    H1D   49   0.542  -0.194   0.399
    1UNK    H1E   50   0.339  -0.332   0.417
    1UNK    H1F   51   0.291  -0.031   0.440
    1UNK    H1G   52   0.351  -0.139   0.565
    1UNK    H1H   53   0.113  -0.078   0.594
    1UNK    H1I   54   0.164  -0.377   0.556
    1UNK    H1J   55   0.029  -0.304   0.644
    1UNK    H1K   56   0.196  -0.278   0.699
   1.00000   1.00000   1.00000

