
;
; GENERATED BY LigParGen Server
; Jorgensen Lab @ Yale University 
;
[ atomtypes ]
  opls_818  H818     1.0080     0.000    A    2.50000E-01   1.25520E-01
  opls_808  C808    12.0110     0.000    A    3.50000E-01   2.76144E-01
  opls_810  O810    15.9990     0.000    A    2.90000E-01   5.85760E-01
  opls_804  O804    15.9990     0.000    A    2.96000E-01   8.78640E-01
  opls_813  H813     1.0080     0.000    A    2.50000E-01   1.25520E-01
  opls_802  F802    18.9984     0.000    A    2.90000E-01   2.51040E-01
  opls_815  H815     1.0080     0.000    A    2.50000E-01   1.25520E-01
  opls_809  C809    12.0110     0.000    A    3.50000E-01   2.76144E-01
  opls_822  H822     1.0080     0.000    A    2.50000E-01   1.25520E-01
  opls_807  C807    12.0110     0.000    A    3.50000E-01   2.76144E-01
  opls_814  H814     1.0080     0.000    A    2.50000E-01   1.25520E-01
  opls_821  H821     1.0080     0.000    A    2.50000E-01   1.25520E-01
  opls_820  H820     1.0080     0.000    A    2.50000E-01   1.25520E-01
  opls_811  H811     1.0080     0.000    A    2.50000E-01   1.25520E-01
  opls_816  H816     1.0080     0.000    A    2.50000E-01   1.25520E-01
  opls_800  C800    12.0110     0.000    A    3.50000E-01   2.76144E-01
  opls_806  C806    12.0110     0.000    A    3.50000E-01   2.76144E-01
  opls_823  H823     1.0080     0.000    A    2.50000E-01   1.25520E-01
  opls_819  H819     1.0080     0.000    A    2.50000E-01   1.25520E-01
  opls_805  C805    12.0110     0.000    A    3.50000E-01   2.76144E-01
  opls_801  C801    12.0110     0.000    A    3.50000E-01   2.76144E-01
  opls_803  C803    12.0110     0.000    A    3.55000E-01   2.92880E-01
  opls_817  H817     1.0080     0.000    A    2.50000E-01   1.25520E-01
  opls_812  H812     1.0080     0.000    A    2.50000E-01   1.25520E-01
[ moleculetype ]
; Name               nrexcl
UNK                   3
[ atoms ]
;   nr       type  resnr residue  atom   cgnr     charge       mass  
     1   opls_800      1    UNK   C00      1    -0.2788    12.0110 
     2   opls_801      1    UNK   C01      1      0.027    12.0110 
     3   opls_802      1    UNK   F02      1    -0.1557    18.9984 
     4   opls_803      1    UNK   C03      1     0.3506    12.0110 
     5   opls_804      1    UNK   O04      1    -0.4206    15.9990 
     6   opls_805      1    UNK   C05      1     0.0827    12.0110 
     7   opls_806      1    UNK   C06      1    -0.2513    12.0110 
     8   opls_807      1    UNK   C07      1    -0.2006    12.0110 
     9   opls_808      1    UNK   C08      1    -0.2209    12.0110 
    10   opls_809      1    UNK   C09      1     0.0029    12.0110 
    11   opls_810      1    UNK   O0A      1    -0.3726    15.9990 
    12   opls_811      1    UNK   H0B      1      0.106     1.0080 
    13   opls_812      1    UNK   H0C      1      0.106     1.0080 
    14   opls_813      1    UNK   H0D      1      0.106     1.0080 
    15   opls_814      1    UNK   H0E      1     0.1359     1.0080 
    16   opls_815      1    UNK   H0F      1      0.105     1.0080 
    17   opls_816      1    UNK   H0G      1      0.105     1.0080 
    18   opls_817      1    UNK   H0H      1      0.105     1.0080 
    19   opls_818      1    UNK   H0I      1     0.1211     1.0080 
    20   opls_819      1    UNK   H0J      1     0.1211     1.0080 
    21   opls_820      1    UNK   H0K      1     0.1113     1.0080 
    22   opls_821      1    UNK   H0M      1     0.1113     1.0080 
    23   opls_822      1    UNK   H0N      1     0.1018     1.0080 
    24   opls_823      1    UNK   H0O      1     0.1018     1.0080 
[ bonds ]
    2     1     1      0.1529 224262.400
    3     2     1      0.1360 307105.600
    4     2     1      0.1522 265265.600
    5     4     1      0.1229 476976.000
    6     4     1      0.1522 265265.600
    7     6     1      0.1529 224262.400
    8     6     1      0.1529 224262.400
    9     8     1      0.1529 224262.400
   10     9     1      0.1529 224262.400
   11     6     1      0.1410 267776.000
   12     1     1      0.1090 284512.000
   13     1     1      0.1090 284512.000
   14     1     1      0.1090 284512.000
   15     2     1      0.1090 284512.000
   16     7     1      0.1090 284512.000
   17     7     1      0.1090 284512.000
   18     7     1      0.1090 284512.000
   19     8     1      0.1090 284512.000
   20     8     1      0.1090 284512.000
   21     9     1      0.1090 284512.000
   22     9     1      0.1090 284512.000
   23    10     1      0.1090 284512.000
   24    10     1      0.1090 284512.000
   11    10     1      0.1410 267776.000

[ angles ]
;  ai    aj    ak funct            c0            c1            c2            c3 
    1     2     3     1    109.500    418.400
    1     2     4     1    111.100    527.184
    2     4     5     1    120.400    669.440
    2     4     6     1    116.000    585.760
    4     6     7     1    111.100    527.184
    4     6     8     1    111.100    527.184
    6     8     9     1    112.700    488.273
    8     9    10     1    112.700    488.273
    4     6    11     1    109.500    418.400
    2     1    12     1    110.700    313.800
    2     1    13     1    110.700    313.800
    2     1    14     1    110.700    313.800
    1     2    15     1    110.700    313.800
    6     7    16     1    110.700    313.800
    6     7    17     1    110.700    313.800
    6     7    18     1    110.700    313.800
    6     8    19     1    110.700    313.800
    6     8    20     1    110.700    313.800
    8     9    21     1    110.700    313.800
    8     9    22     1    110.700    313.800
    9    10    23     1    110.700    313.800
    9    10    24     1    110.700    313.800
    5     4     6     1    120.400    669.440
    8     6    11     1    109.500    418.400
   12     1    13     1    107.800    276.144
    3     2    15     1    107.000    334.720
    9     8    20     1    110.700    313.800
    6    11    10     1    109.500    502.080
   16     7    18     1    107.800    276.144
   19     8    20     1    107.800    276.144
   12     1    14     1    107.800    276.144
    7     6    11     1    109.500    418.400
    9     8    19     1    110.700    313.800
   21     9    22     1    107.800    276.144
    4     2    15     1    109.500    292.880
    3     2     4     1    109.500    418.400
   16     7    17     1    107.800    276.144
    7     6     8     1    112.700    488.273
   13     1    14     1    107.800    276.144
   23    10    24     1    107.800    276.144
   10     9    22     1    110.700    313.800
   10     9    21     1    110.700    313.800
    9    10    11     1    109.500    418.400
   17     7    18     1    107.800    276.144
   11    10    23     1    109.500    292.880
   11    10    24     1    109.500    292.880

[ dihedrals ]
; IMPROPER DIHEDRAL ANGLES 
;  ai    aj    ak    al funct            c0            c1            c2            c3            c4            c5
     6     4     2     5    4        180.000     43.932     2  

[ dihedrals ]
; PROPER DIHEDRAL ANGLES
;  ai    aj    ak    al funct            c0            c1            c2            c3            c4            c5
    6    4    2    1        3       0.818  -7.906   0.602   6.485  -0.000   0.000
    6    4    2    3        3      -0.209   1.883   1.674  -3.347  -0.000   0.000
    7    6    4    2        3       0.818  -7.906   0.602   6.485  -0.000   0.000
    8    6    4    2        3       0.818  -7.906   0.602   6.485  -0.000   0.000
    7    6    4    5        3       0.000   0.000   0.000  -0.000  -0.000   0.000
    8    6    4    5        3       0.000   0.000   0.000  -0.000  -0.000   0.000
    9    8    6    4        3      -4.960   6.286   1.310  -2.636  -0.000   0.000
   10    9    8    6        3       2.301  -1.464   0.837  -1.674  -0.000   0.000
    9    8    6    7        3       2.301  -1.464   0.837  -1.674  -0.000   0.000
    9   10   11    6        3       1.715   2.845   1.046  -5.607  -0.000   0.000
   10   11    6    4        3       1.715   2.845   1.046  -5.607  -0.000   0.000
   10   11    6    7        3       1.715   2.845   1.046  -5.607  -0.000   0.000
   10   11    6    8        3       1.715   2.845   1.046  -5.607  -0.000   0.000
   15    2    4    6        3       0.575   1.726   0.000  -2.301  -0.000   0.000
   15    2    4    5        3       0.000   0.000   0.000  -0.000  -0.000   0.000
   17    7    6    4        3      -0.209  -0.628   0.000   0.837  -0.000   0.000
   18    7    6    4        3      -0.209  -0.628   0.000   0.837  -0.000   0.000
   14    1    2    4        3      -0.209  -0.628   0.000   0.837  -0.000   0.000
   20    8    6    4        3      -0.209  -0.628   0.000   0.837  -0.000   0.000
   16    7    6    4        3      -0.209  -0.628   0.000   0.837  -0.000   0.000
   12    1    2    4        3      -0.209  -0.628   0.000   0.837  -0.000   0.000
   13    1    2    4        3      -0.209  -0.628   0.000   0.837  -0.000   0.000
   19    8    6    4        3      -0.209  -0.628   0.000   0.837  -0.000   0.000
   23   10    9    8        3       0.628   1.883   0.000  -2.510  -0.000   0.000
   16    7    6    8        3       0.628   1.883   0.000  -2.510  -0.000   0.000
   20    8    6    7        3       0.628   1.883   0.000  -2.510  -0.000   0.000
   19    8    9   10        3       0.628   1.883   0.000  -2.510  -0.000   0.000
   22    9    8    6        3       0.628   1.883   0.000  -2.510  -0.000   0.000
   19    8    6    7        3       0.628   1.883   0.000  -2.510  -0.000   0.000
   18    7    6    8        3       0.628   1.883   0.000  -2.510  -0.000   0.000
   21    9    8    6        3       0.628   1.883   0.000  -2.510  -0.000   0.000
   17    7    6    8        3       0.628   1.883   0.000  -2.510  -0.000   0.000
   24   10    9    8        3       0.628   1.883   0.000  -2.510  -0.000   0.000
   20    8    9   10        3       0.628   1.883   0.000  -2.510  -0.000   0.000
   13    1    2    3        3       0.837   2.510   0.000  -3.347  -0.000   0.000
   12    1    2    3        3       0.837   2.510   0.000  -3.347  -0.000   0.000
   14    1    2    3        3       0.837   2.510   0.000  -3.347  -0.000   0.000
   22    9    8   20        3       0.628   1.883   0.000  -2.510  -0.000   0.000
   24   10    9   21        3       0.628   1.883   0.000  -2.510  -0.000   0.000
   21    9    8   20        3       0.628   1.883   0.000  -2.510  -0.000   0.000
   23   10    9   21        3       0.628   1.883   0.000  -2.510  -0.000   0.000
   24   10    9   22        3       0.628   1.883   0.000  -2.510  -0.000   0.000
   15    2    1   14        3       0.628   1.883   0.000  -2.510  -0.000   0.000
   22    9    8   19        3       0.628   1.883   0.000  -2.510  -0.000   0.000
   15    2    1   12        3       0.628   1.883   0.000  -2.510  -0.000   0.000
   15    2    1   13        3       0.628   1.883   0.000  -2.510  -0.000   0.000
   23   10    9   22        3       0.628   1.883   0.000  -2.510  -0.000   0.000
   21    9    8   19        3       0.628   1.883   0.000  -2.510  -0.000   0.000
   22    9   10   11        3       0.979   2.937   0.000  -3.916  -0.000   0.000
   18    7    6   11        3       0.979   2.937   0.000  -3.916  -0.000   0.000
   17    7    6   11        3       0.979   2.937   0.000  -3.916  -0.000   0.000
   21    9   10   11        3       0.979   2.937   0.000  -3.916  -0.000   0.000
   19    8    6   11        3       0.979   2.937   0.000  -3.916  -0.000   0.000
   20    8    6   11        3       0.979   2.937   0.000  -3.916  -0.000   0.000
   16    7    6   11        3       0.979   2.937   0.000  -3.916  -0.000   0.000
   24   10   11    6        3       1.590   4.770   0.000  -6.360  -0.000   0.000
   23   10   11    6        3       1.590   4.770   0.000  -6.360  -0.000   0.000
    5    4    2    1        3       0.000   0.000   0.000  -0.000  -0.000   0.000
    5    4    2    3        3       0.000   0.000   0.000  -0.000  -0.000   0.000
   11    6    4    2        3       2.874   0.582   2.092  -5.548  -0.000   0.000
   11    6    4    5        3       0.000   0.000   0.000  -0.000  -0.000   0.000
   11   10    9    8        3       2.874   0.582   2.092  -5.548  -0.000   0.000
   11    6    8    9        3       2.874   0.582   2.092  -5.548  -0.000   0.000

[ pairs ]
     1     5    1
     1     6    1
     3     5    1
     3     6    1
     2     7    1
     2     8    1
     5     7    1
     5     8    1
     4     9    1
     2    11    1
     4    10    1
     3    12    1
     7     9    1
     5    11    1
     4    12    1
     3    13    1
     7    10    1
     4    13    1
     3    14    1
     4    14    1
     5    15    1
     4    16    1
     6    15    1
     4    17    1
     4    18    1
     4    19    1
     8    16    1
     4    20    1
     8    17    1
     8    18    1
     7    19    1
    12    15    1
    11    16    1
     7    20    1
     6    21    1
    13    15    1
    11    17    1
     6    22    1
    14    15    1
    11    18    1
    10    19    1
     6    23    1
    11    19    1
    10    20    1
     6    24    1
    11    20    1
     8    23    1
    11    21    1
     8    24    1
    11    22    1
    19    21    1
    20    21    1
    19    22    1
    20    22    1
    21    23    1
    22    23    1
    21    24    1
    22    24    1

