LIGPARGEN GENERATED GRO FILE
   24
    1UNK    C00    1   0.100   0.100   0.000
    1UNK    C01    2  -0.052   0.100   0.000
    1UNK    F02    3  -0.093   0.100   0.130
    1UNK    C03    4  -0.109   0.218  -0.077
    1UNK    O04    5  -0.037   0.303  -0.131
    1UNK    C05    6  -0.263   0.229  -0.083
    1UNK    C06    7  -0.313   0.305   0.040
    1UNK    C07    8  -0.306   0.296  -0.214
    1UNK    C08    9  -0.442   0.237  -0.239
    1UNK    C09   10  -0.426   0.096  -0.187
    1UNK    O0A   11  -0.325   0.100  -0.085
    1UNK    H0B   12   0.138   0.013   0.055
    1UNK    H0C   13   0.139   0.189   0.051
    1UNK    H0D   14   0.140   0.098  -0.102
    1UNK    H0E   15  -0.087   0.008  -0.047
    1UNK    H0F   16  -0.266   0.403   0.049
    1UNK    H0G   17  -0.292   0.249   0.132
    1UNK    H0H   18  -0.422   0.319   0.036
    1UNK    H0I   19  -0.239   0.267  -0.296
    1UNK    H0J   20  -0.307   0.405  -0.209
    1UNK    H0K   21  -0.472   0.239  -0.345
    1UNK    H0M   22  -0.518   0.290  -0.181
    1UNK    H0N   23  -0.391   0.028  -0.265
    1UNK    H0O   24  -0.519   0.056  -0.145
   1.00000   1.00000   1.00000

