LIGPARGEN GENERATED GRO FILE
   48
    1UNK    C00    1   0.100   0.100   0.000
    1UNK    C01    2  -0.052   0.100   0.000
    1UNK    C02    3  -0.116   0.100   0.141
    1UNK    C03    4  -0.067   0.216   0.230
    1UNK    C04    5  -0.110   0.355   0.186
    1UNK    C05    6  -0.269   0.093   0.123
    1UNK    C06    7  -0.347   0.086   0.255
    1UNK    C07    8  -0.500   0.086   0.237
    1UNK    C08    9  -0.548  -0.036   0.158
    1UNK    C09   10  -0.572   0.089   0.373
    1UNK    C0A   11  -0.542   0.214   0.457
    1UNK    C0B   12  -0.616   0.212   0.590
    1UNK    O0C   13  -0.577   0.094   0.661
    1UNK    C0D   14  -0.634   0.081   0.791
    1UNK    C0E   15  -0.785   0.064   0.784
    1UNK    C0F   16  -0.570  -0.043   0.853
    1UNK    H0G   17   0.137   0.078  -0.101
    1UNK    H0H   18   0.140   0.024   0.068
    1UNK    H0I   19   0.140   0.198   0.029
    1UNK    H0J   20  -0.086   0.010  -0.053
    1UNK    H0K   21  -0.088   0.185  -0.058
    1UNK    H0M   22  -0.084   0.007   0.191
    1UNK    H0N   23   0.043   0.214   0.237
    1UNK    H0O   24  -0.101   0.200   0.333
    1UNK    H0P   25  -0.086   0.373   0.081
    1UNK    H0Q   26  -0.059   0.431   0.246
    1UNK    H0R   27  -0.218   0.369   0.200
    1UNK    H0S   28  -0.292   0.004   0.064
    1UNK    H0T   29  -0.304   0.180   0.066
    1UNK    H0U   30  -0.319   0.173   0.315
    1UNK    H0V   31  -0.315  -0.003   0.311
    1UNK    H0W   32  -0.529   0.176   0.181
    1UNK    H0X   33  -0.518  -0.129   0.208
    1UNK    H0Y   34  -0.508  -0.038   0.057
    1UNK    H0Z   35  -0.657  -0.036   0.150
    1UNK    H10   36  -0.544  -0.001   0.430
    1UNK    H11   37  -0.680   0.083   0.357
    1UNK    H12   38  -0.570   0.304   0.401
    1UNK    H13   39  -0.435   0.220   0.479
    1UNK    H14   40  -0.724   0.212   0.572
    1UNK    H15   41  -0.590   0.301   0.649
    1UNK    H16   42  -0.607   0.169   0.851
    1UNK    H17   43  -0.813  -0.011   0.710
    1UNK    H18   44  -0.833   0.158   0.755
    1UNK    H19   45  -0.826   0.035   0.882
    1UNK    H1A   46  -0.589  -0.132   0.792
    1UNK    H1B   47  -0.607  -0.061   0.954
    1UNK    H1C   48  -0.461  -0.032   0.858
   1.00000   1.00000   1.00000

