
;
; GENERATED BY LigParGen Server
; Jorgensen Lab @ Yale University 
;
[ atomtypes ]
  opls_818  H818     1.0080     0.000    A    2.50000E-01   1.25520E-01
  opls_824  H824     1.0080     0.000    A    2.50000E-01   1.25520E-01
  opls_809  O809    15.9990     0.000    A    2.90000E-01   5.85760E-01
  opls_836  H836     1.0080     0.000    A    2.50000E-01   1.25520E-01
  opls_834  H834     1.0080     0.000    A    2.50000E-01   1.25520E-01
  opls_828  H828     1.0080     0.000    A    2.50000E-01   1.25520E-01
  opls_814  C814    12.0110     0.000    A    3.55000E-01   2.92880E-01
  opls_806  C806    12.0110     0.000    A    3.50000E-01   2.76144E-01
  opls_827  H827     1.0080     0.000    A    2.50000E-01   1.25520E-01
  opls_801  C801    12.0110     0.000    A    3.50000E-01   2.76144E-01
  opls_838  H838     1.0080     0.000    A    2.50000E-01   1.25520E-01
  opls_811  O811    15.9990     0.000    A    2.96000E-01   8.78640E-01
  opls_822  H822     1.0080     0.000    A    2.50000E-01   1.25520E-01
  opls_803  C803    12.0110     0.000    A    3.50000E-01   2.76144E-01
  opls_825  H825     1.0080     0.000    A    2.50000E-01   1.25520E-01
  opls_830  H830     1.0080     0.000    A    2.50000E-01   1.25520E-01
  opls_821  H821     1.0080     0.000    A    2.50000E-01   1.25520E-01
  opls_820  H820     1.0080     0.000    A    2.50000E-01   1.25520E-01
  opls_837  H837     1.0080     0.000    A    2.50000E-01   1.25520E-01
  opls_829  H829     1.0080     0.000    A    2.50000E-01   1.25520E-01
  opls_831  H831     1.0080     0.000    A    2.50000E-01   1.25520E-01
  opls_810  C810    12.0110     0.000    A    3.55000E-01   2.92880E-01
  opls_832  H832     1.0080     0.000    A    2.50000E-01   1.25520E-01
  opls_800  C800    12.0110     0.000    A    3.50000E-01   2.76144E-01
  opls_805  C805    12.0110     0.000    A    3.50000E-01   2.76144E-01
  opls_823  H823     1.0080     0.000    A    2.50000E-01   1.25520E-01
  opls_833  H833     1.0080     0.000    A    2.50000E-01   1.25520E-01
  opls_813  O813    15.9990     0.000    A    2.90000E-01   5.85760E-01
  opls_816  O816    15.9990     0.000    A    2.90000E-01   5.85760E-01
  opls_826  H826     1.0080     0.000    A    2.50000E-01   1.25520E-01
  opls_835  H835     1.0080     0.000    A    2.50000E-01   1.25520E-01
  opls_819  H819     1.0080     0.000    A    2.50000E-01   1.25520E-01
  opls_804  C804    12.0110     0.000    A    3.50000E-01   2.76144E-01
  opls_839  H839     1.0080     0.000    A    2.50000E-01   1.25520E-01
  opls_817  C817    12.0110     0.000    A    3.50000E-01   2.76144E-01
  opls_812  C812    12.0110     0.000    A    3.50000E-01   2.76144E-01
  opls_808  C808    12.0110     0.000    A    3.50000E-01   2.76144E-01
  opls_815  O815    15.9990     0.000    A    2.96000E-01   8.78640E-01
  opls_840  H840     1.0080     0.000    A    2.50000E-01   1.25520E-01
  opls_807  C807    12.0110     0.000    A    3.50000E-01   2.76144E-01
  opls_802  N802    14.0070     0.000    A    3.30000E-01   7.11280E-01
[ moleculetype ]
; Name               nrexcl
UNK                   3
[ atoms ]
;   nr       type  resnr residue  atom   cgnr     charge       mass  
     1   opls_800      1    UNK   C00      1    -0.2402    12.0110 
     2   opls_801      1    UNK   C01      1     0.0052    12.0110 
     3   opls_802      1    UNK   N02      1     -0.574    14.0070 
     4   opls_803      1    UNK   C03      1    -0.0526    12.0110 
     5   opls_804      1    UNK   C04      1     0.0145    12.0110 
     6   opls_805      1    UNK   C05      1    -0.1187    12.0110 
     7   opls_806      1    UNK   C06      1     -0.226    12.0110 
     8   opls_807      1    UNK   C07      1     0.0657    12.0110 
     9   opls_808      1    UNK   C08      1    -0.2541    12.0110 
    10   opls_809      1    UNK   O09      1    -0.3639    15.9990 
    11   opls_810      1    UNK   C0A      1     0.4184    12.0110 
    12   opls_811      1    UNK   O0B      1    -0.4278    15.9990 
    13   opls_812      1    UNK   C0C      1     0.0099    12.0110 
    14   opls_813      1    UNK   O0D      1    -0.2867    15.9990 
    15   opls_814      1    UNK   C0E      1     0.5691    12.0110 
    16   opls_815      1    UNK   O0F      1    -0.4937    15.9990 
    17   opls_816      1    UNK   O0G      1    -0.3064    15.9990 
    18   opls_817      1    UNK   C0H      1    -0.0442    12.0110 
    19   opls_818      1    UNK   H0I      1     0.0861     1.0080 
    20   opls_819      1    UNK   H0J      1     0.0861     1.0080 
    21   opls_820      1    UNK   H0K      1     0.0861     1.0080 
    22   opls_821      1    UNK   H0M      1     0.0857     1.0080 
    23   opls_822      1    UNK   H0N      1     0.0857     1.0080 
    24   opls_823      1    UNK   H0O      1     0.0813     1.0080 
    25   opls_824      1    UNK   H0P      1     0.0813     1.0080 
    26   opls_825      1    UNK   H0Q      1     0.0813     1.0080 
    27   opls_826      1    UNK   H0R      1      0.088     1.0080 
    28   opls_827      1    UNK   H0S      1      0.088     1.0080 
    29   opls_828      1    UNK   H0T      1     0.1118     1.0080 
    30   opls_829      1    UNK   H0U      1     0.0892     1.0080 
    31   opls_830      1    UNK   H0V      1     0.0892     1.0080 
    32   opls_831      1    UNK   H0W      1     0.0892     1.0080 
    33   opls_832      1    UNK   H0X      2     0.1352     1.0080 
    34   opls_833      1    UNK   H0Y      2     0.0977     1.0080 
    35   opls_834      1    UNK   H0Z      2     0.0977     1.0080 
    36   opls_835      1    UNK   H10      2     0.0977     1.0080 
    37   opls_836      1    UNK   H11      2     0.1588     1.0080 
    38   opls_837      1    UNK   H12      2     0.1588     1.0080 
    39   opls_838      1    UNK   H13      2     0.1102     1.0080 
    40   opls_839      1    UNK   H14      2     0.1102     1.0080 
    41   opls_840      1    UNK   H15      2     0.1102     1.0080 
[ bonds ]
    2     1     1      0.1529 224262.400
    3     2     1      0.1448 319657.600
    4     3     1      0.1448 319657.600
    5     3     1      0.1448 319657.600
    6     5     1      0.1529 224262.400
    7     6     1      0.1529 224262.400
    8     6     1      0.1529 224262.400
    9     8     1      0.1529 224262.400
   10     8     1      0.1410 267776.000
   11    10     1      0.1327 179075.200
   12    11     1      0.1229 476976.000
   13    11     1      0.1522 265265.600
   14    13     1      0.1410 267776.000
   15    14     1      0.1327 179075.200
   16    15     1      0.1229 476976.000
   17    15     1      0.1327 179075.200
   18    17     1      0.1410 267776.000
   19     1     1      0.1090 284512.000
   20     1     1      0.1090 284512.000
   21     1     1      0.1090 284512.000
   22     2     1      0.1090 284512.000
   23     2     1      0.1090 284512.000
   24     4     1      0.1090 284512.000
   25     4     1      0.1090 284512.000
   26     4     1      0.1090 284512.000
   27     5     1      0.1090 284512.000
   28     5     1      0.1090 284512.000
   29     6     1      0.1090 284512.000
   30     7     1      0.1090 284512.000
   31     7     1      0.1090 284512.000
   32     7     1      0.1090 284512.000
   33     8     1      0.1090 284512.000
   34     9     1      0.1090 284512.000
   35     9     1      0.1090 284512.000
   36     9     1      0.1090 284512.000
   37    13     1      0.1090 284512.000
   38    13     1      0.1090 284512.000
   39    18     1      0.1090 284512.000
   40    18     1      0.1090 284512.000
   41    18     1      0.1090 284512.000

[ angles ]
;  ai    aj    ak funct            c0            c1            c2            c3 
    1     2     3     1    109.470    470.282
    2     3     4     1    107.200    433.462
    2     3     5     1    107.200    433.462
    3     5     6     1    109.470    470.282
    5     6     7     1    112.700    488.273
    5     6     8     1    112.700    488.273
    6     8     9     1    112.700    488.273
    6     8    10     1    109.500    418.400
    8    10    11     1    116.900    694.544
   10    11    12     1    123.400    694.544
   10    11    13     1    111.400    677.808
   11    13    14     1    109.500    418.400
   13    14    15     1    116.900    694.544
   14    15    16     1    123.400    694.544
   14    15    17     1    118.180    584.923
   15    17    18     1    116.900    694.544
    2     1    19     1    110.700    313.800
    2     1    20     1    110.700    313.800
    2     1    21     1    110.700    313.800
    1     2    22     1    110.700    313.800
    1     2    23     1    110.700    313.800
    3     4    24     1    109.500    292.880
    3     4    25     1    109.500    292.880
    3     4    26     1    109.500    292.880
    3     5    27     1    109.500    292.880
    3     5    28     1    109.500    292.880
    5     6    29     1    110.700    313.800
    6     7    30     1    110.700    313.800
    6     7    31     1    110.700    313.800
    6     7    32     1    110.700    313.800
    6     8    33     1    110.700    313.800
    8     9    34     1    110.700    313.800
    8     9    35     1    110.700    313.800
    8     9    36     1    110.700    313.800
   11    13    37     1    109.500    292.880
   11    13    38     1    109.500    292.880
   17    18    39     1    109.500    292.880
   17    18    40     1    109.500    292.880
   17    18    41     1    109.500    292.880
   37    13    38     1    107.800    276.144
   19     1    20     1    107.800    276.144
   34     9    35     1    107.800    276.144
    9     8    10     1    109.500    418.400
    9     8    33     1    110.700    313.800
   14    13    37     1    109.500    292.880
   24     4    25     1    107.800    276.144
   35     9    36     1    107.800    276.144
   10     8    33     1    109.500    292.880
    8     6    29     1    110.700    313.800
    3     2    22     1    109.500    292.880
    3     2    23     1    109.500    292.880
    4     3     5     1    107.200    433.462
    6     5    27     1    110.700    313.800
   39    18    41     1    107.800    276.144
   34     9    36     1    107.800    276.144
   14    13    38     1    109.500    292.880
   19     1    21     1    107.800    276.144
   22     2    23     1    107.800    276.144
    7     6    29     1    110.700    313.800
   16    15    17     1    123.400    694.544
   31     7    32     1    107.800    276.144
   30     7    32     1    107.800    276.144
   25     4    26     1    107.800    276.144
    7     6     8     1    112.700    488.273
   12    11    13     1    120.400    669.440
   39    18    40     1    107.800    276.144
   20     1    21     1    107.800    276.144
   24     4    26     1    107.800    276.144
    6     5    28     1    110.700    313.800
   27     5    28     1    107.800    276.144
   40    18    41     1    107.800    276.144
   30     7    31     1    107.800    276.144

[ dihedrals ]
; IMPROPER DIHEDRAL ANGLES 
;  ai    aj    ak    al funct            c0            c1            c2            c3            c4            c5
    13    11    10    12    4        180.000     43.932     2  
    17    15    14    16    4        180.000     43.932     2  

[ dihedrals ]
; PROPER DIHEDRAL ANGLES
;  ai    aj    ak    al funct            c0            c1            c2            c3            c4            c5
   15   14   13   11        3      -2.197   5.201   0.527  -3.531  -0.000   0.000
   11   10    8    6        3      -2.197   5.201   0.527  -3.531  -0.000   0.000
   11   10    8    9        3      -2.197   5.201   0.527  -3.531  -0.000   0.000
   13   11   10    8        3      31.206  -9.768  -21.439  -0.000  -0.000   0.000
    9    8    6    5        3       2.301  -1.464   0.837  -1.674  -0.000   0.000
    9    8    6    7        3       2.301  -1.464   0.837  -1.674  -0.000   0.000
    8    6    5    3        3       3.335  -1.552   2.820  -4.602  -0.000   0.000
    7    6    5    3        3       3.335  -1.552   2.820  -4.602  -0.000   0.000
    6    5    3    2        3       1.789   3.492   0.536  -5.816  -0.000   0.000
    6    5    3    4        3       1.789   3.492   0.536  -5.816  -0.000   0.000
    5    3    2    1        3       1.789   3.492   0.536  -5.816  -0.000   0.000
    4    3    2    1        3       1.789   3.492   0.536  -5.816  -0.000   0.000
   18   17   15   16        3      21.439   0.000  -21.439  -0.000  -0.000   0.000
   18   17   15   14        3      31.206  -9.768  -21.439  -0.000  -0.000   0.000
   37   13   11   12        3       0.000   0.000   0.000  -0.000  -0.000   0.000
   38   13   11   12        3       0.000   0.000   0.000  -0.000  -0.000   0.000
   38   13   11   10        3       0.276   0.828   0.000  -1.105  -0.000   0.000
   37   13   11   10        3       0.276   0.828   0.000  -1.105  -0.000   0.000
   32    7    6    8        3       0.628   1.883   0.000  -2.510  -0.000   0.000
   30    7    6    8        3       0.628   1.883   0.000  -2.510  -0.000   0.000
   28    5    6    8        3       0.628   1.883   0.000  -2.510  -0.000   0.000
   33    8    6    7        3       0.628   1.883   0.000  -2.510  -0.000   0.000
   29    6    8    9        3       0.628   1.883   0.000  -2.510  -0.000   0.000
   28    5    6    7        3       0.628   1.883   0.000  -2.510  -0.000   0.000
   33    8    6    5        3       0.628   1.883   0.000  -2.510  -0.000   0.000
   36    9    8    6        3       0.628   1.883   0.000  -2.510  -0.000   0.000
   27    5    6    8        3       0.628   1.883   0.000  -2.510  -0.000   0.000
   31    7    6    5        3       0.628   1.883   0.000  -2.510  -0.000   0.000
   31    7    6    8        3       0.628   1.883   0.000  -2.510  -0.000   0.000
   35    9    8    6        3       0.628   1.883   0.000  -2.510  -0.000   0.000
   32    7    6    5        3       0.628   1.883   0.000  -2.510  -0.000   0.000
   27    5    6    7        3       0.628   1.883   0.000  -2.510  -0.000   0.000
   30    7    6    5        3       0.628   1.883   0.000  -2.510  -0.000   0.000
   34    9    8    6        3       0.628   1.883   0.000  -2.510  -0.000   0.000
   34    9    8   33        3       0.628   1.883   0.000  -2.510  -0.000   0.000
   29    6    5   28        3       0.628   1.883   0.000  -2.510  -0.000   0.000
   32    7    6   29        3       0.628   1.883   0.000  -2.510  -0.000   0.000
   30    7    6   29        3       0.628   1.883   0.000  -2.510  -0.000   0.000
   23    2    1   19        3       0.628   1.883   0.000  -2.510  -0.000   0.000
   22    2    1   19        3       0.628   1.883   0.000  -2.510  -0.000   0.000
   22    2    1   20        3       0.628   1.883   0.000  -2.510  -0.000   0.000
   35    9    8   33        3       0.628   1.883   0.000  -2.510  -0.000   0.000
   23    2    1   21        3       0.628   1.883   0.000  -2.510  -0.000   0.000
   31    7    6   29        3       0.628   1.883   0.000  -2.510  -0.000   0.000
   29    6    5   27        3       0.628   1.883   0.000  -2.510  -0.000   0.000
   36    9    8   33        3       0.628   1.883   0.000  -2.510  -0.000   0.000
   23    2    1   20        3       0.628   1.883   0.000  -2.510  -0.000   0.000
   33    8    6   29        3       0.628   1.883   0.000  -2.510  -0.000   0.000
   22    2    1   21        3       0.628   1.883   0.000  -2.510  -0.000   0.000
   20    1    2    3        3      -4.096   5.088   2.966  -3.958  -0.000   0.000
   29    6    5    3        3      -4.096   5.088   2.966  -3.958  -0.000   0.000
   19    1    2    3        3      -4.096   5.088   2.966  -3.958  -0.000   0.000
   21    1    2    3        3      -4.096   5.088   2.966  -3.958  -0.000   0.000
   29    6    8   10        3       0.979   2.937   0.000  -3.916  -0.000   0.000
   35    9    8   10        3       0.979   2.937   0.000  -3.916  -0.000   0.000
   36    9    8   10        3       0.979   2.937   0.000  -3.916  -0.000   0.000
   34    9    8   10        3       0.979   2.937   0.000  -3.916  -0.000   0.000
   22    2    3    5        3       1.172   3.515   0.000  -4.686  -0.000   0.000
   25    4    3    2        3       1.172   3.515   0.000  -4.686  -0.000   0.000
   28    5    3    4        3       1.172   3.515   0.000  -4.686  -0.000   0.000
   28    5    3    2        3       1.172   3.515   0.000  -4.686  -0.000   0.000
   23    2    3    5        3       1.172   3.515   0.000  -4.686  -0.000   0.000
   23    2    3    4        3       1.172   3.515   0.000  -4.686  -0.000   0.000
   27    5    3    2        3       1.172   3.515   0.000  -4.686  -0.000   0.000
   24    4    3    2        3       1.172   3.515   0.000  -4.686  -0.000   0.000
   24    4    3    5        3       1.172   3.515   0.000  -4.686  -0.000   0.000
   22    2    3    4        3       1.172   3.515   0.000  -4.686  -0.000   0.000
   27    5    3    4        3       1.172   3.515   0.000  -4.686  -0.000   0.000
   26    4    3    5        3       1.172   3.515   0.000  -4.686  -0.000   0.000
   26    4    3    2        3       1.172   3.515   0.000  -4.686  -0.000   0.000
   25    4    3    5        3       1.172   3.515   0.000  -4.686  -0.000   0.000
   39   18   17   15        3       0.414   1.243   0.000  -1.657  -0.000   0.000
   33    8   10   11        3       0.414   1.243   0.000  -1.657  -0.000   0.000
   38   13   14   15        3       0.414   1.243   0.000  -1.657  -0.000   0.000
   40   18   17   15        3       0.414   1.243   0.000  -1.657  -0.000   0.000
   37   13   14   15        3       0.414   1.243   0.000  -1.657  -0.000   0.000
   41   18   17   15        3       0.414   1.243   0.000  -1.657  -0.000   0.000
   16   15   14   13        3      21.439   0.000  -21.439  -0.000  -0.000   0.000
   12   11   10    8        3      21.439   0.000  -21.439  -0.000  -0.000   0.000
   17   15   14   13        3      31.206  -9.768  -21.439  -0.000  -0.000   0.000
   14   13   11   12        3       0.000   0.000   0.000  -0.000  -0.000   0.000
   14   13   11   10        3      -1.151   1.151   0.000  -0.000  -0.000   0.000
   10    8    6    5        3       2.874   0.582   2.092  -5.548  -0.000   0.000
   10    8    6    7        3       2.874   0.582   2.092  -5.548  -0.000   0.000

[ pairs ]
     1     4    1
     1     5    1
     2     6    1
     4     6    1
     3     7    1
     3     8    1
     5     9    1
     5    10    1
     7     9    1
     7    10    1
     6    11    1
     9    11    1
     8    12    1
     8    13    1
     3    19    1
     3    20    1
    10    14    1
     3    21    1
    12    14    1
    11    15    1
     4    22    1
     2    24    1
     5    22    1
     4    23    1
     2    25    1
     5    23    1
     2    26    1
    13    16    1
     5    24    1
     2    27    1
    13    17    1
     5    25    1
     2    28    1
     5    26    1
     4    27    1
    14    18    1
     4    28    1
     3    29    1
    16    18    1
     7    27    1
     8    27    1
     7    28    1
     5    30    1
     8    28    1
     5    31    1
     5    32    1
     9    29    1
     8    30    1
     5    33    1
    10    29    1
     8    31    1
     8    32    1
     7    33    1
     6    34    1
    19    22    1
     6    35    1
    20    22    1
    19    23    1
     6    36    1
    21    22    1
    20    23    1
    21    23    1
    11    33    1
    10    34    1
    10    35    1
    10    36    1
    10    37    1
    10    38    1
    12    37    1
    12    38    1
    15    37    1
    15    38    1
    15    39    1
    15    40    1
    27    29    1
    15    41    1
    28    29    1
    29    30    1
    29    31    1
    29    32    1
    29    33    1
    33    34    1
    33    35    1
    33    36    1

