LIGPARGEN GENERATED GRO FILE
   41
    1UNK    C00    1   0.100   0.100   0.000
    1UNK    C01    2  -0.053   0.100   0.000
    1UNK    N02    3  -0.113   0.100   0.135
    1UNK    C03    4  -0.075   0.221   0.210
    1UNK    C04    5  -0.261   0.093   0.129
    1UNK    C05    6  -0.322  -0.036   0.069
    1UNK    C06    7  -0.274  -0.162   0.143
    1UNK    C07    8  -0.478  -0.032   0.065
    1UNK    C08    9  -0.545  -0.018   0.201
    1UNK    O09   10  -0.519   0.082  -0.014
    1UNK    C0A   11  -0.584   0.054  -0.131
    1UNK    O0B   12  -0.614  -0.058  -0.172
    1UNK    C0C   13  -0.616   0.183  -0.205
    1UNK    O0D   14  -0.635   0.163  -0.345
    1UNK    C0E   15  -0.520   0.137  -0.412
    1UNK    O0F   16  -0.408   0.136  -0.363
    1UNK    O0G   17  -0.550   0.112  -0.542
    1UNK    C0H   18  -0.436   0.084  -0.623
    1UNK    H0I   19   0.137   0.082  -0.101
    1UNK    H0J   20   0.140   0.021   0.065
    1UNK    H0K   21   0.141   0.196   0.032
    1UNK    H0M   22  -0.083   0.009  -0.053
    1UNK    H0N   23  -0.089   0.185  -0.059
    1UNK    H0O   24   0.033   0.234   0.217
    1UNK    H0P   25  -0.110   0.212   0.314
    1UNK    H0Q   26  -0.118   0.311   0.167
    1UNK    H0R   27  -0.299   0.180   0.074
    1UNK    H0S   28  -0.297   0.102   0.232
    1UNK    H0T   29  -0.290  -0.044  -0.035
    1UNK    H0U   30  -0.285  -0.151   0.251
    1UNK    H0V   31  -0.169  -0.181   0.121
    1UNK    H0W   32  -0.331  -0.250   0.111
    1UNK    H0X   33  -0.513  -0.126   0.021
    1UNK    H0Y   34  -0.517   0.076   0.251
    1UNK    H0Z   35  -0.522  -0.102   0.267
    1UNK    H10   36  -0.654  -0.014   0.188
    1UNK    H11   37  -0.537   0.258  -0.188
    1UNK    H12   38  -0.709   0.223  -0.165
    1UNK    H13   39  -0.472   0.056  -0.723
    1UNK    H14   40  -0.379  -0.001  -0.582
    1UNK    H15   41  -0.373   0.172  -0.632
   1.00000   1.00000   1.00000

