LIGPARGEN GENERATED GRO FILE
   61
    1UNK    C00    1   0.100   0.100   0.000
    1UNK    C01    2  -0.053   0.100   0.000
    1UNK    C02    3  -0.101   0.100   0.146
    1UNK    C03    4  -0.113   0.218  -0.083
    1UNK    C04    5  -0.070   0.211  -0.230
    1UNK    C05    6  -0.267   0.223  -0.068
    1UNK    C06    7  -0.339   0.328  -0.155
    1UNK    C07    8  -0.495   0.338  -0.144
    1UNK    C08    9  -0.558   0.204  -0.186
    1UNK    C09   10  -0.525   0.351   0.008
    1UNK    C0A   11  -0.552   0.465  -0.238
    1UNK    C0B   12  -0.506   0.458  -0.393
    1UNK    C0C   13  -0.356   0.472  -0.423
    1UNK    C0D   14  -0.559   0.343  -0.479
    1UNK    N0E   15  -0.702   0.500  -0.215
    1UNK    C0F   16  -0.721   0.540  -0.074
    1UNK    C0G   17  -0.777   0.598  -0.304
    1UNK    C0H   18  -0.805   0.547  -0.446
    1UNK    C0I   19  -0.924   0.621  -0.249
    1UNK    C0J   20  -0.710   0.737  -0.309
    1UNK    H0K   21   0.139   0.021   0.065
    1UNK    H0M   22   0.139   0.196   0.036
    1UNK    H0N   23   0.140   0.081  -0.100
    1UNK    H0O   24  -0.087   0.006  -0.045
    1UNK    H0P   25  -0.084   0.197   0.194
    1UNK    H0Q   26  -0.049   0.024   0.205
    1UNK    H0R   27  -0.208   0.077   0.153
    1UNK    H0S   28  -0.072   0.312  -0.042
    1UNK    H0T   29  -0.112   0.123  -0.279
    1UNK    H0U   30   0.039   0.207  -0.241
    1UNK    H0V   31  -0.102   0.300  -0.286
    1UNK    H0W   32  -0.285   0.246   0.037
    1UNK    H0X   33  -0.308   0.124  -0.089
    1UNK    H0Y   34  -0.316   0.299  -0.257
    1UNK    H0Z   35  -0.295   0.426  -0.135
    1UNK    H10   36  -0.547   0.128  -0.108
    1UNK    H11   37  -0.509   0.161  -0.274
    1UNK    H12   38  -0.665   0.215  -0.207
    1UNK    H13   39  -0.472   0.278   0.069
    1UNK    H14   40  -0.629   0.325   0.031
    1UNK    H15   41  -0.499   0.449   0.047
    1UNK    H16   42  -0.498   0.552  -0.201
    1UNK    H17   43  -0.543   0.550  -0.436
    1UNK    H18   44  -0.303   0.376  -0.431
    1UNK    H19   45  -0.305   0.537  -0.351
    1UNK    H1A   46  -0.343   0.517  -0.522
    1UNK    H1B   47  -0.520   0.246  -0.449
    1UNK    H1C   48  -0.525   0.356  -0.583
    1UNK    H1D   49  -0.667   0.336  -0.482
    1UNK    H1E   50  -0.753   0.454  -0.015
    1UNK    H1F   51  -0.803   0.610  -0.053
    1UNK    H1G   52  -0.634   0.591  -0.032
    1UNK    H1H   53  -0.843   0.444  -0.443
    1UNK    H1I   54  -0.721   0.554  -0.514
    1UNK    H1J   55  -0.883   0.606  -0.496
    1UNK    H1K   56  -0.967   0.527  -0.212
    1UNK    H1M   57  -0.991   0.658  -0.326
    1UNK    H1N   58  -0.929   0.696  -0.169
    1UNK    H1O   59  -0.613   0.735  -0.359
    1UNK    H1P   60  -0.695   0.779  -0.209
    1UNK    H1Q   61  -0.773   0.808  -0.365
   1.00000   1.00000   1.00000

