LIGPARGEN GENERATED GRO FILE
   53
    1UNK    C00    1   0.100   0.100   0.000
    1UNK    C01    2  -0.052   0.100   0.000
    1UNK    C02    3  -0.107   0.100   0.142
    1UNK    C03    4  -0.259   0.100   0.140
    1UNK    C04    5  -0.318   0.100   0.280
    1UNK    C05    6  -0.471   0.099   0.272
    1UNK    C06    7  -0.534   0.099   0.411
    1UNK    C07    8  -0.690   0.098   0.412
    1UNK    C08    9  -0.742   0.216   0.327
    1UNK    C09   10  -0.743  -0.030   0.343
    1UNK    C0A   11  -0.744   0.103   0.561
    1UNK    C0B   12  -0.700  -0.020   0.644
    1UNK    C0C   13  -0.708   0.229   0.646
    1UNK    C0D   14  -0.770   0.363   0.607
    1UNK    C0E   15  -0.922   0.359   0.596
    1UNK    C0F   16  -0.978   0.487   0.532
    1UNK    C0G   17  -1.129   0.480   0.522
    1UNK    H0H   18   0.138   0.100  -0.103
    1UNK    H0I   19   0.139   0.011   0.051
    1UNK    H0J   20   0.139   0.189   0.051
    1UNK    H0K   21  -0.088   0.012  -0.054
    1UNK    H0M   22  -0.088   0.188  -0.054
    1UNK    H0N   23  -0.071   0.188   0.196
    1UNK    H0O   24  -0.071   0.012   0.196
    1UNK    H0P   25  -0.295   0.012   0.085
    1UNK    H0Q   26  -0.295   0.188   0.085
    1UNK    H0R   27  -0.284   0.188   0.335
    1UNK    H0S   28  -0.284   0.011   0.335
    1UNK    H0T   29  -0.503   0.011   0.215
    1UNK    H0U   30  -0.503   0.188   0.216
    1UNK    H0V   31  -0.497   0.187   0.465
    1UNK    H0W   32  -0.497   0.011   0.465
    1UNK    H0X   33  -0.731   0.196   0.219
    1UNK    H0Y   34  -0.687   0.308   0.345
    1UNK    H0Z   35  -0.849   0.233   0.343
    1UNK    H10   36  -0.720  -0.031   0.236
    1UNK    H11   37  -0.852  -0.036   0.352
    1UNK    H12   38  -0.700  -0.121   0.385
    1UNK    H13   39  -0.853   0.096   0.556
    1UNK    H14   40  -0.592  -0.021   0.661
    1UNK    H15   41  -0.730  -0.114   0.597
    1UNK    H16   42  -0.748  -0.018   0.743
    1UNK    H17   43  -0.599   0.240   0.651
    1UNK    H18   44  -0.740   0.209   0.749
    1UNK    H19   45  -0.725   0.402   0.516
    1UNK    H1A   46  -0.744   0.436   0.685
    1UNK    H1B   47  -0.966   0.345   0.695
    1UNK    H1C   48  -0.955   0.275   0.534
    1UNK    H1D   49  -0.935   0.500   0.432
    1UNK    H1E   50  -0.948   0.574   0.591
    1UNK    H1F   51  -1.160   0.396   0.459
    1UNK    H1G   52  -1.168   0.572   0.478
    1UNK    H1H   53  -1.174   0.468   0.621
   1.00000   1.00000   1.00000

