LIGPARGEN GENERATED GRO FILE
   36
    1UNK    C00    1   0.100   0.100   0.000
    1UNK    O01    2  -0.045   0.100   0.000
    1UNK    C02    3  -0.106   0.100   0.134
    1UNK    C03    4  -0.059   0.230   0.211
    1UNK    C04    5  -0.074   0.346   0.119
    1UNK    N05    6  -0.086   0.437   0.047
    1UNK    C06    7  -0.136   0.266   0.338
    1UNK    C07    8  -0.113   0.398   0.409
    1UNK    C08    9  -0.248   0.369   0.350
    1UNK    C09   10  -0.262   0.108   0.122
    1UNK    C0A   11  -0.343  -0.010   0.072
    1UNK    C0B   12  -0.320  -0.141   0.148
    1UNK    C0C   13  -0.379  -0.142   0.290
    1UNK    C0D   14  -0.172  -0.177   0.144
    1UNK    S0E   15  -0.065  -0.058   0.224
    1UNK    O0F   16   0.072  -0.099   0.191
    1UNK    O0G   17  -0.101  -0.047   0.363
    1UNK    H0H   18   0.136   0.172  -0.074
    1UNK    H0I   19   0.137   0.001  -0.028
    1UNK    H0J   20   0.145   0.127   0.096
    1UNK    H0K   21   0.046   0.223   0.240
    1UNK    H0M   22  -0.143   0.180   0.404
    1UNK    H0N   23  -0.053   0.475   0.362
    1UNK    H0O   24  -0.103   0.396   0.517
    1UNK    H0P   25  -0.279   0.429   0.265
    1UNK    H0Q   26  -0.329   0.348   0.418
    1UNK    H0R   27  -0.288   0.194   0.058
    1UNK    H0S   28  -0.303   0.129   0.222
    1UNK    H0T   29  -0.324  -0.025  -0.035
    1UNK    H0U   30  -0.450   0.017   0.081
    1UNK    H0V   31  -0.376  -0.218   0.093
    1UNK    H0W   32  -0.329  -0.073   0.358
    1UNK    H0X   33  -0.372  -0.242   0.333
    1UNK    H0Y   34  -0.485  -0.113   0.289
    1UNK    H0Z   35  -0.140  -0.184   0.039
    1UNK    H10   36  -0.155  -0.275   0.190
   1.00000   1.00000   1.00000

