
;
; GENERATED BY LigParGen Server
; Jorgensen Lab @ Yale University 
;
[ atomtypes ]
  opls_818  H818     1.0080     0.000    A    2.50000E-01   1.25520E-01
  opls_824  H824     1.0080     0.000    A    2.50000E-01   1.25520E-01
  opls_816  O816    15.9990     0.000    A    2.96000E-01   7.11280E-01
  opls_834  H834     1.0080     0.000    A    2.50000E-01   1.25520E-01
  opls_828  H828     1.0080     0.000    A    2.50000E-01   1.25520E-01
  opls_801  O801    15.9990     0.000    A    2.90000E-01   5.85760E-01
  opls_807  C807    12.0110     0.000    A    3.45000E-01   3.47272E-01
  opls_802  C802    12.0110     0.000    A    3.50000E-01   2.76144E-01
  opls_827  H827     1.0080     0.000    A    2.50000E-01   1.25520E-01
  opls_809  C809    12.0110     0.000    A    3.50000E-01   2.76144E-01
  opls_822  H822     1.0080     0.000    A    2.50000E-01   1.25520E-01
  opls_803  C803    12.0110     0.000    A    3.50000E-01   2.76144E-01
  opls_808  C808    12.0110     0.000    A    3.45000E-01   3.47272E-01
  opls_825  H825     1.0080     0.000    A    2.50000E-01   1.25520E-01
  opls_826  H826     1.0080     0.000    A    2.50000E-01   1.25520E-01
  opls_830  H830     1.0080     0.000    A    2.50000E-01   1.25520E-01
  opls_821  H821     1.0080     0.000    A    2.50000E-01   1.25520E-01
  opls_820  H820     1.0080     0.000    A    2.50000E-01   1.25520E-01
  opls_814  S814    32.0600     0.000    A    3.55000E-01   1.04600E+00
  opls_831  H831     1.0080     0.000    A    2.50000E-01   1.25520E-01
  opls_832  H832     1.0080     0.000    A    2.50000E-01   1.25520E-01
  opls_800  C800    12.0110     0.000    A    3.50000E-01   2.76144E-01
  opls_804  C804    12.0110     0.000    A    3.30000E-01   2.76144E-01
  opls_811  C811    12.0110     0.000    A    3.50000E-01   2.76144E-01
  opls_823  H823     1.0080     0.000    A    2.50000E-01   1.25520E-01
  opls_813  C813    12.0110     0.000    A    3.50000E-01   2.76144E-01
  opls_806  C806    12.0110     0.000    A    3.45000E-01   3.47272E-01
  opls_835  H835     1.0080     0.000    A    2.50000E-01   1.25520E-01
  opls_805  N805    14.0070     0.000    A    3.20000E-01   7.11280E-01
  opls_819  H819     1.0080     0.000    A    2.50000E-01   1.25520E-01
  opls_810  C810    12.0110     0.000    A    3.50000E-01   2.76144E-01
  opls_833  H833     1.0080     0.000    A    2.50000E-01   1.25520E-01
  opls_812  C812    12.0110     0.000    A    3.50000E-01   2.76144E-01
  opls_817  H817     1.0080     0.000    A    2.50000E-01   1.25520E-01
  opls_815  O815    15.9990     0.000    A    2.96000E-01   7.11280E-01
  opls_829  H829     1.0080     0.000    A    2.50000E-01   1.25520E-01
[ moleculetype ]
; Name               nrexcl
UNK                   3
[ atoms ]
;   nr       type  resnr residue  atom   cgnr     charge       mass  
     1   opls_800      1    UNK   C00      1    -0.0769    12.0110 
     2   opls_801      1    UNK   O01      1    -0.3318    15.9990 
     3   opls_802      1    UNK   C02      1    -0.1115    12.0110 
     4   opls_803      1    UNK   C03      1     0.0455    12.0110 
     5   opls_804      1    UNK   C04      1     0.1668    12.0110 
     6   opls_805      1    UNK   N05      1    -0.3755    14.0070 
     7   opls_806      1    UNK   C06      1    -0.2129    12.0110 
     8   opls_807      1    UNK   C07      1    -0.2314    12.0110 
     9   opls_808      1    UNK   C08      1    -0.2252    12.0110 
    10   opls_809      1    UNK   C09      1    -0.1746    12.0110 
    11   opls_810      1    UNK   C0A      1    -0.1886    12.0110 
    12   opls_811      1    UNK   C0B      1    -0.0901    12.0110 
    13   opls_812      1    UNK   C0C      1    -0.2556    12.0110 
    14   opls_813      1    UNK   C0D      1    -0.4516    12.0110 
    15   opls_814      1    UNK   S0E      1     1.2454    32.0600 
    16   opls_815      1    UNK   O0F      1    -0.5726    15.9990 
    17   opls_816      1    UNK   O0G      1    -0.5726    15.9990 
    18   opls_817      1    UNK   H0H      1     0.1047     1.0080 
    19   opls_818      1    UNK   H0I      1     0.1047     1.0080 
    20   opls_819      1    UNK   H0J      1     0.1047     1.0080 
    21   opls_820      1    UNK   H0K      1     0.1478     1.0080 
    22   opls_821      1    UNK   H0M      1     0.1703     1.0080 
    23   opls_822      1    UNK   H0N      1     0.1334     1.0080 
    24   opls_823      1    UNK   H0O      1     0.1334     1.0080 
    25   opls_824      1    UNK   H0P      1      0.134     1.0080 
    26   opls_825      1    UNK   H0Q      1      0.134     1.0080 
    27   opls_826      1    UNK   H0R      1     0.1292     1.0080 
    28   opls_827      1    UNK   H0S      1     0.1292     1.0080 
    29   opls_828      1    UNK   H0T      1     0.1116     1.0080 
    30   opls_829      1    UNK   H0U      1     0.1116     1.0080 
    31   opls_830      1    UNK   H0V      1     0.1178     1.0080 
    32   opls_831      1    UNK   H0W      1     0.0998     1.0080 
    33   opls_832      1    UNK   H0X      2     0.0998     1.0080 
    34   opls_833      1    UNK   H0Y      2     0.0998     1.0080 
    35   opls_834      1    UNK   H0Z      2     0.1738     1.0080 
    36   opls_835      1    UNK   H10      2     0.1738     1.0080 
[ bonds ]
    2     1     1      0.1410 267776.000
    3     2     1      0.1410 267776.000
    4     3     1      0.1529 224262.400
    5     4     1      0.1470 326352.000
    6     5     1      0.1157 543920.000
    7     4     1      0.1510 234304.000
    8     7     1      0.1520 217568.000
    9     7     1      0.1520 217568.000
   10     3     1      0.1529 224262.400
   11    10     1      0.1529 224262.400
   12    11     1      0.1529 224262.400
   13    12     1      0.1529 224262.400
   14    12     1      0.1529 224262.400
   15     3     1      0.1770 284512.000
   16    15     1      0.1440 585760.000
   17    15     1      0.1440 585760.000
   18     1     1      0.1090 284512.000
   19     1     1      0.1090 284512.000
   20     1     1      0.1090 284512.000
   21     4     1      0.1090 284512.000
   22     7     1      0.1088 284512.000
   23     8     1      0.1088 284512.000
   24     8     1      0.1088 284512.000
   25     9     1      0.1088 284512.000
   26     9     1      0.1088 284512.000
   27    10     1      0.1090 284512.000
   28    10     1      0.1090 284512.000
   29    11     1      0.1090 284512.000
   30    11     1      0.1090 284512.000
   31    12     1      0.1090 284512.000
   32    13     1      0.1090 284512.000
   33    13     1      0.1090 284512.000
   34    13     1      0.1090 284512.000
   35    14     1      0.1090 284512.000
   36    14     1      0.1090 284512.000
    9     8     1      0.1520 217568.000
   15    14     1      0.1770 284512.000

[ angles ]
;  ai    aj    ak funct            c0            c1            c2            c3 
    1     2     3     1    109.500    502.080
    2     3     4     1    109.500    418.400
    3     4     5     1    112.700    488.273
    4     5     6     1    180.000   1255.200
    3     4     7     1    112.700    488.273
    4     7     8     1    117.200    313.800
    4     7     9     1    117.200    313.800
    2     3    10     1    109.500    418.400
    3    10    11     1    112.700    488.273
   10    11    12     1    112.700    488.273
   11    12    13     1    112.700    488.273
   11    12    14     1    112.700    488.273
    2     3    15     1    110.580    432.207
    3    15    16     1    108.900    619.232
    3    15    17     1    108.900    619.232
    2     1    18     1    109.500    292.880
    2     1    19     1    109.500    292.880
    2     1    20     1    109.500    292.880
    3     4    21     1    110.700    313.800
    4     7    22     1    114.300    292.880
    7     8    23     1    117.200    313.800
    7     8    24     1    117.200    313.800
    7     9    25     1    117.200    313.800
    7     9    26     1    117.200    313.800
    3    10    27     1    110.700    313.800
    3    10    28     1    110.700    313.800
   10    11    29     1    110.700    313.800
   10    11    30     1    110.700    313.800
   11    12    31     1    110.700    313.800
   12    13    32     1    110.700    313.800
   12    13    33     1    110.700    313.800
   12    13    34     1    110.700    313.800
   12    14    35     1    110.700    313.800
   12    14    36     1    110.700    313.800
   10     3    15     1    108.600    418.400
   33    13    34     1    107.800    276.144
   14    15    17     1    108.900    619.232
    3    15    14     1    102.000    518.816
   15    14    35     1    109.500    292.880
   23     8    24     1    114.300    292.880
    8     9    26     1    117.200    313.800
   13    12    14     1    112.700    488.273
    5     4     7     1    112.700    488.273
   32    13    34     1    107.800    276.144
   25     9    26     1    114.300    292.880
   27    10    28     1    107.800    276.144
    9     8    23     1    117.200    313.800
   35    14    36     1    107.800    276.144
    8     7     9     1     83.000    251.040
    7     4    21     1    110.700    313.800
   18     1    20     1    107.800    276.144
    4     3    10     1    112.700    488.273
   12    11    30     1    110.700    313.800
   32    13    33     1    107.800    276.144
   12    14    15     1    108.600    418.400
   18     1    19     1    107.800    276.144
    9     8    24     1    117.200    313.800
   11    10    27     1    110.700    313.800
   13    12    31     1    110.700    313.800
    9     7    22     1    117.200    313.800
   11    10    28     1    110.700    313.800
   16    15    17     1    119.000    870.272
   14    15    16     1    108.900    619.232
    8     9    25     1    117.200    313.800
    8     7    22     1    117.200    313.800
    5     4    21     1    108.500    292.880
    7     9     8     1     83.000    251.040
   19     1    20     1    107.800    276.144
   15    14    36     1    109.500    292.880
   14    12    31     1    110.700    313.800
    7     8     9     1     83.000    251.040
   29    11    30     1    107.800    276.144
    4     3    15     1    108.600    418.400
   12    11    29     1    110.700    313.800

[ dihedrals ]
; IMPROPER DIHEDRAL ANGLES 
;  ai    aj    ak    al funct            c0            c1            c2            c3            c4            c5

[ dihedrals ]
; PROPER DIHEDRAL ANGLES
;  ai    aj    ak    al funct            c0            c1            c2            c3            c4            c5
   12   11   10    3        3       2.301  -1.464   0.837  -1.674  -0.000   0.000
   11   10    3    4        3       2.301  -1.464   0.837  -1.674  -0.000   0.000
   13   12   11   10        3       2.301  -1.464   0.837  -1.674  -0.000   0.000
   14   12   11   10        3       2.301  -1.464   0.837  -1.674  -0.000   0.000
   10    3    4    7        3       2.301  -1.464   0.837  -1.674  -0.000   0.000
   10    3    4    5        3      -2.720   0.000   2.720  -0.000  -0.000   0.000
   11   10    3    2        3       2.874   0.582   2.092  -5.548  -0.000   0.000
   10    3    2    1        3       1.715   2.845   1.046  -5.607  -0.000   0.000
    4    3    2    1        3       1.715   2.845   1.046  -5.607  -0.000   0.000
   12   14   15    3        3       0.000   0.000   0.000  -0.000  -0.000   0.000
   14   15    3    4        3       0.000   0.000   0.000  -0.000  -0.000   0.000
   14   15    3   10        3       0.000   0.000   0.000  -0.000  -0.000   0.000
   14   15    3    2        3       0.732   2.197   0.000  -2.929  -0.000   0.000
    7    4    3    2        3       2.874   0.582   2.092  -5.548  -0.000   0.000
    7    4    5    6        3       0.000   0.000   0.000  -0.000  -0.000   0.000
    9    7    4    3        3       0.000   0.000   0.000  -0.000  -0.000   0.000
    8    7    4    3        3       0.000   0.000   0.000  -0.000  -0.000   0.000
    9    7    4    8        3       0.000   0.000   0.000  -0.000  -0.000   0.000
    9    7    4    5        3       0.000   0.000   0.000  -0.000  -0.000   0.000
    8    7    4    5        3       0.000   0.000   0.000  -0.000  -0.000   0.000
    5    4    3    2        3       2.874   0.582   2.092  -5.548  -0.000   0.000
   31   12   11   10        3       0.628   1.883   0.000  -2.510  -0.000   0.000
   28   10    3    4        3       0.628   1.883   0.000  -2.510  -0.000   0.000
   29   11   10    3        3       0.628   1.883   0.000  -2.510  -0.000   0.000
   32   13   12   14        3       0.628   1.883   0.000  -2.510  -0.000   0.000
   30   11   10    3        3       0.628   1.883   0.000  -2.510  -0.000   0.000
   30   11   12   13        3       0.628   1.883   0.000  -2.510  -0.000   0.000
   29   11   12   14        3       0.628   1.883   0.000  -2.510  -0.000   0.000
   27   10    3    4        3       0.628   1.883   0.000  -2.510  -0.000   0.000
   34   13   12   11        3       0.628   1.883   0.000  -2.510  -0.000   0.000
   33   13   12   11        3       0.628   1.883   0.000  -2.510  -0.000   0.000
   33   13   12   14        3       0.628   1.883   0.000  -2.510  -0.000   0.000
   34   13   12   14        3       0.628   1.883   0.000  -2.510  -0.000   0.000
   36   14   12   13        3       0.628   1.883   0.000  -2.510  -0.000   0.000
   35   14   12   11        3       0.628   1.883   0.000  -2.510  -0.000   0.000
   36   14   12   11        3       0.628   1.883   0.000  -2.510  -0.000   0.000
   21    4    3   10        3       0.628   1.883   0.000  -2.510  -0.000   0.000
   30   11   12   14        3       0.628   1.883   0.000  -2.510  -0.000   0.000
   28   10   11   12        3       0.628   1.883   0.000  -2.510  -0.000   0.000
   35   14   12   13        3       0.628   1.883   0.000  -2.510  -0.000   0.000
   27   10   11   12        3       0.628   1.883   0.000  -2.510  -0.000   0.000
   29   11   12   13        3       0.628   1.883   0.000  -2.510  -0.000   0.000
   32   13   12   11        3       0.628   1.883   0.000  -2.510  -0.000   0.000
   31   12   11   29        3       0.628   1.883   0.000  -2.510  -0.000   0.000
   29   11   10   28        3       0.628   1.883   0.000  -2.510  -0.000   0.000
   32   13   12   31        3       0.628   1.883   0.000  -2.510  -0.000   0.000
   35   14   12   31        3       0.628   1.883   0.000  -2.510  -0.000   0.000
   31   12   11   30        3       0.628   1.883   0.000  -2.510  -0.000   0.000
   36   14   12   31        3       0.628   1.883   0.000  -2.510  -0.000   0.000
   34   13   12   31        3       0.628   1.883   0.000  -2.510  -0.000   0.000
   33   13   12   31        3       0.628   1.883   0.000  -2.510  -0.000   0.000
   29   11   10   27        3       0.628   1.883   0.000  -2.510  -0.000   0.000
   30   11   10   27        3       0.628   1.883   0.000  -2.510  -0.000   0.000
   30   11   10   28        3       0.628   1.883   0.000  -2.510  -0.000   0.000
   27   10    3    2        3       0.979   2.937   0.000  -3.916  -0.000   0.000
   28   10    3    2        3       0.979   2.937   0.000  -3.916  -0.000   0.000
   21    4    3    2        3       0.979   2.937   0.000  -3.916  -0.000   0.000
   21    4    3   15        3       0.946   2.837   0.000  -3.782  -0.000   0.000
   31   12   14   15        3       0.946   2.837   0.000  -3.782  -0.000   0.000
   27   10    3   15        3       0.946   2.837   0.000  -3.782  -0.000   0.000
   28   10    3   15        3       0.946   2.837   0.000  -3.782  -0.000   0.000
   21    4    7    9        3       0.628   1.883   0.000  -2.510  -0.000   0.000
   21    4    7    8        3       0.628   1.883   0.000  -2.510  -0.000   0.000
   21    4    5    6        3       0.000   0.000   0.000  -0.000  -0.000   0.000
   19    1    2    3        3       1.590   4.770   0.000  -6.360  -0.000   0.000
   20    1    2    3        3       1.590   4.770   0.000  -6.360  -0.000   0.000
   18    1    2    3        3       1.590   4.770   0.000  -6.360  -0.000   0.000
   35   14   15    3        3       0.732   2.197   0.000  -2.929  -0.000   0.000
   36   14   15    3        3       0.732   2.197   0.000  -2.929  -0.000   0.000
   36   14   15   17        3       0.732   2.197   0.000  -2.929  -0.000   0.000
   35   14   15   17        3       0.732   2.197   0.000  -2.929  -0.000   0.000
   36   14   15   16        3       0.732   2.197   0.000  -2.929  -0.000   0.000
   35   14   15   16        3       0.732   2.197   0.000  -2.929  -0.000   0.000
   22    7    4    3        3       0.628   1.883   0.000  -2.510  -0.000   0.000
   22    7    4    5        3       0.766   2.297   0.000  -3.063  -0.000   0.000
   22    7    4   21        3       0.628   1.883   0.000  -2.510  -0.000   0.000
   23    8    7    4        3       0.000   0.000   0.000  -0.000  -0.000   0.000
   24    8    7    4        3       0.000   0.000   0.000  -0.000  -0.000   0.000
   26    9    7    4        3       0.000   0.000   0.000  -0.000  -0.000   0.000
   25    9    7    4        3       0.000   0.000   0.000  -0.000  -0.000   0.000
   22    7    9    8        3       0.000   0.000   0.000  -0.000  -0.000   0.000
   25    9    8    7        3       0.000   0.000   0.000  -0.000  -0.000   0.000
   26    9    8    7        3       0.000   0.000   0.000  -0.000  -0.000   0.000
   23    8    9    7        3       0.000   0.000   0.000  -0.000  -0.000   0.000
   25    9    7    8        3       0.000   0.000   0.000  -0.000  -0.000   0.000
   24    8    9    7        3       0.000   0.000   0.000  -0.000  -0.000   0.000
   24    8    7    9        3       0.000   0.000   0.000  -0.000  -0.000   0.000
   23    8    7    9        3       0.000   0.000   0.000  -0.000  -0.000   0.000
   26    9    7    8        3       0.000   0.000   0.000  -0.000  -0.000   0.000
   22    7    8    9        3       0.000   0.000   0.000  -0.000  -0.000   0.000
   23    8    7   22        3       0.000   0.000   0.000  -0.000  -0.000   0.000
   25    9    8   24        3       0.000   0.000   0.000  -0.000  -0.000   0.000
   25    9    8   23        3       0.000   0.000   0.000  -0.000  -0.000   0.000
   24    8    7   22        3       0.000   0.000   0.000  -0.000  -0.000   0.000
   26    9    8   23        3       0.000   0.000   0.000  -0.000  -0.000   0.000
   25    9    7   22        3       0.000   0.000   0.000  -0.000  -0.000   0.000
   26    9    7   22        3       0.000   0.000   0.000  -0.000  -0.000   0.000
   26    9    8   24        3       0.000   0.000   0.000  -0.000  -0.000   0.000
    6    5    4    3        3       0.000   0.000   0.000  -0.000  -0.000   0.000
   16   15    3   10        3       0.000   0.000   0.000  -0.000  -0.000   0.000
   17   15   14   12        3       0.000   0.000   0.000  -0.000  -0.000   0.000
   17   15    3    4        3       0.000   0.000   0.000  -0.000  -0.000   0.000
   16   15   14   12        3       0.000   0.000   0.000  -0.000  -0.000   0.000
   16   15    3    4        3       0.000   0.000   0.000  -0.000  -0.000   0.000
   17   15    3   10        3       0.000   0.000   0.000  -0.000  -0.000   0.000
   16   15    3    2        3       0.000   0.000   0.000  -0.000  -0.000   0.000
   17   15    3    2        3       0.000   0.000   0.000  -0.000  -0.000   0.000
   15    3   10   11        3       2.784   0.278   0.828  -3.891  -0.000   0.000
   15   14   12   11        3       2.784   0.278   0.828  -3.891  -0.000   0.000
   15   14   12   13        3       2.784   0.278   0.828  -3.891  -0.000   0.000
   15    3    4    7        3       2.784   0.278   0.828  -3.891  -0.000   0.000
   15    3    4    5        3       2.784   0.278   0.828  -3.891  -0.000   0.000
   15    3    2    1        3      -5.358  13.617   8.443  -16.703  -0.000   0.000

[ pairs ]
     1     4    1
     2     5    1
     3     6    1
     2     7    1
     3     8    1
     1    10    1
     3     9    1
     6     7    1
     5     8    1
     2    11    1
     5     9    1
     5    10    1
     4    11    1
     3    12    1
     2    14    1
     1    15    1
     7    10    1
     4    14    1
     2    16    1
     2    17    1
     5    15    1
     4    16    1
     4    17    1
     3    18    1
     7    15    1
     3    19    1
    10    13    1
     3    20    1
     2    21    1
    10    14    1
     3    22    1
    11    15    1
    10    16    1
    10    17    1
     6    21    1
     5    22    1
     4    23    1
    13    15    1
    12    16    1
     4    24    1
    12    17    1
     8    21    1
     4    25    1
     2    27    1
     9    21    1
     4    26    1
     2    28    1
    10    21    1
     4    27    1
     4    28    1
     3    29    1
     3    30    1
    15    21    1
     3    35    1
    12    27    1
     3    36    1
    12    28    1
    10    31    1
    15    27    1
    13    29    1
    21    22    1
    15    28    1
    14    29    1
    13    30    1
    11    32    1
    14    30    1
    11    33    1
    22    23    1
    11    34    1
    22    24    1
    15    31    1
    14    32    1
    11    35    1
    22    25    1
    14    33    1
    11    36    1
    23    25    1
    22    26    1
    14    34    1
    13    35    1
    24    25    1
    23    26    1
    13    36    1
    24    26    1
    16    35    1
    17    35    1
    16    36    1
    17    36    1
    27    29    1
    28    29    1
    27    30    1
    28    30    1
    29    31    1
    30    31    1
    31    32    1
    31    33    1
    31    34    1
    31    35    1
    31    36    1

