LIGPARGEN GENERATED GRO FILE
   42
    1UNK    C00    1   0.100   0.100   0.000
    1UNK    C01    2  -0.052   0.100   0.000
    1UNK    C02    3  -0.114   0.100   0.141
    1UNK    C03    4  -0.087   0.229   0.224
    1UNK    C04    5  -0.093   0.360   0.145
    1UNK    C05    6  -0.198   0.227   0.331
    1UNK    C06    7  -0.161   0.141   0.452
    1UNK    C07    8  -0.320   0.174   0.256
    1UNK    C08    9  -0.269   0.084   0.140
    1UNK    C09   10  -0.328  -0.063   0.144
    1UNK    C0A   11  -0.273  -0.148   0.028
    1UNK    C0B   12  -0.290  -0.137   0.275
    1UNK    C0C   13  -0.484  -0.062   0.136
    1UNK    C0D   14  -0.544   0.004   0.012
    1UNK    H0E   15   0.137   0.078  -0.101
    1UNK    H0F   16   0.140   0.023   0.067
    1UNK    H0G   17   0.140   0.197   0.030
    1UNK    H0H   18  -0.084   0.011  -0.055
    1UNK    H0I   19  -0.089   0.185  -0.059
    1UNK    H0J   20  -0.070   0.016   0.196
    1UNK    H0K   21   0.012   0.223   0.271
    1UNK    H0M   22  -0.182   0.365   0.081
    1UNK    H0N   23  -0.005   0.371   0.081
    1UNK    H0O   24  -0.094   0.446   0.212
    1UNK    H0P   25  -0.219   0.328   0.368
    1UNK    H0Q   26  -0.129   0.041   0.424
    1UNK    H0R   27  -0.247   0.132   0.520
    1UNK    H0S   28  -0.079   0.188   0.508
    1UNK    H0T   29  -0.374   0.259   0.211
    1UNK    H0U   30  -0.390   0.125   0.323
    1UNK    H0V   31  -0.304   0.130   0.047
    1UNK    H0W   32  -0.165  -0.168   0.041
    1UNK    H0X   33  -0.288  -0.100  -0.069
    1UNK    H0Y   34  -0.322  -0.246   0.025
    1UNK    H0Z   35  -0.182  -0.146   0.288
    1UNK    H10   36  -0.330  -0.238   0.275
    1UNK    H11   37  -0.331  -0.086   0.363
    1UNK    H12   38  -0.526  -0.014   0.224
    1UNK    H13   39  -0.520  -0.166   0.139
    1UNK    H14   40  -0.520   0.110   0.007
    1UNK    H15   41  -0.653  -0.005   0.015
    1UNK    H16   42  -0.510  -0.044  -0.080
   1.00000   1.00000   1.00000

