LIGPARGEN GENERATED GRO FILE
   42
    1UNK    C00    1   0.100   0.100   0.000
    1UNK    C01    2  -0.052   0.100   0.000
    1UNK    C02    3  -0.106   0.100   0.143
    1UNK    C03    4  -0.259   0.100   0.149
    1UNK    C04    5  -0.314   0.093   0.294
    1UNK    C05    6  -0.257   0.205   0.385
    1UNK    C06    7  -0.293   0.347   0.345
    1UNK    C07    8  -0.468   0.095   0.299
    1UNK    C08    9  -0.541  -0.021   0.227
    1UNK    C09   10  -0.502  -0.158   0.284
    1UNK    C0A   11  -0.692  -0.001   0.243
    1UNK    C0B   12  -0.753   0.125   0.175
    1UNK    C0C   13  -0.877   0.040   0.141
    1UNK    C0D   14  -0.785  -0.084   0.149
    1UNK    H0E   15   0.138   0.105  -0.102
    1UNK    H0F   16   0.139   0.009   0.046
    1UNK    H0G   17   0.139   0.186   0.055
    1UNK    H0H   18  -0.089   0.012  -0.054
    1UNK    H0I   19  -0.088   0.189  -0.053
    1UNK    H0J   20  -0.066   0.189   0.193
    1UNK    H0K   21  -0.068   0.012   0.196
    1UNK    H0M   22  -0.295   0.013   0.093
    1UNK    H0N   23  -0.298   0.188   0.097
    1UNK    H0O   24  -0.279  -0.002   0.337
    1UNK    H0P   25  -0.148   0.196   0.391
    1UNK    H0Q   26  -0.292   0.188   0.488
    1UNK    H0R   27  -0.294   0.362   0.236
    1UNK    H0S   28  -0.221   0.418   0.387
    1UNK    H0T   29  -0.392   0.374   0.383
    1UNK    H0U   30  -0.504   0.190   0.257
    1UNK    H0V   31  -0.500   0.095   0.404
    1UNK    H0W   32  -0.516  -0.019   0.120
    1UNK    H0X   33  -0.507  -0.158   0.393
    1UNK    H0Y   34  -0.400  -0.185   0.254
    1UNK    H0Z   35  -0.569  -0.237   0.247
    1UNK    H10   36  -0.723  -0.010   0.348
    1UNK    H11   37  -0.698   0.160   0.087
    1UNK    H12   38  -0.771   0.210   0.242
    1UNK    H13   39  -0.922   0.059   0.043
    1UNK    H14   40  -0.954   0.042   0.218
    1UNK    H15   41  -0.740  -0.111   0.052
    1UNK    H16   42  -0.830  -0.173   0.193
   1.00000   1.00000   1.00000

