LIGPARGEN GENERATED GRO FILE
   36
    1UNK    C00    1   0.100   0.100   0.000
    1UNK    C01    2  -0.052   0.100   0.000
    1UNK    C02    3  -0.105   0.100   0.143
    1UNK    C03    4  -0.259   0.106   0.150
    1UNK    C04    5  -0.314   0.107   0.294
    1UNK    C05    6  -0.266   0.230   0.373
    1UNK    C06    7  -0.466   0.093   0.296
    1UNK    C07    8  -0.495   0.026   0.430
    1UNK    C08    9  -0.602  -0.083   0.417
    1UNK    C09   10  -0.538   0.130   0.537
    1UNK    O0A   11  -0.565   0.067   0.662
    1UNK    C0B   12  -0.587   0.163   0.765
    1UNK    O0C   13  -0.371  -0.034   0.470
    1UNK    O0D   14  -0.274  -0.013   0.361
    1UNK    H0E   15   0.139   0.100  -0.102
    1UNK    H0F   16   0.139   0.011   0.051
    1UNK    H0G   17   0.139   0.189   0.051
    1UNK    H0H   18  -0.089   0.012  -0.054
    1UNK    H0I   19  -0.088   0.189  -0.053
    1UNK    H0J   20  -0.061   0.186   0.194
    1UNK    H0K   21  -0.070   0.010   0.195
    1UNK    H0M   22  -0.298   0.019   0.097
    1UNK    H0N   23  -0.294   0.196   0.097
    1UNK    H0O   24  -0.324   0.319   0.347
    1UNK    H0P   25  -0.161   0.253   0.355
    1UNK    H0Q   26  -0.270   0.214   0.481
    1UNK    H0R   27  -0.496   0.025   0.215
    1UNK    H0S   28  -0.519   0.187   0.280
    1UNK    H0T   29  -0.699  -0.041   0.389
    1UNK    H0U   30  -0.614  -0.138   0.512
    1UNK    H0V   31  -0.573  -0.158   0.343
    1UNK    H0W   32  -0.628   0.182   0.504
    1UNK    H0X   33  -0.459   0.203   0.553
    1UNK    H0Y   34  -0.607   0.111   0.858
    1UNK    H0Z   35  -0.673   0.226   0.740
    1UNK    H10   36  -0.498   0.225   0.779
   1.00000   1.00000   1.00000

