
;
; GENERATED BY LigParGen Server
; Jorgensen Lab @ Yale University 
;
[ atomtypes ]
  opls_818  H818     1.0080     0.000    A    2.50000E-01   1.25520E-01
  opls_805  C805    12.0110     0.000    A    3.45000E-01   3.47272E-01
  opls_824  H824     1.0080     0.000    A    2.50000E-01   1.25520E-01
  opls_810  C810    12.0110     0.000    A    3.45000E-01   3.47272E-01
  opls_809  C809    12.0110     0.000    A    3.45000E-01   3.47272E-01
  opls_828  H828     1.0080     0.000    A    2.50000E-01   1.25520E-01
  opls_812  O812    15.9990     0.000    A    2.90000E-01   5.85760E-01
  opls_807  C807    12.0110     0.000    A    3.45000E-01   3.47272E-01
  opls_802  C802    12.0110     0.000    A    3.50000E-01   2.76144E-01
  opls_815  H815     1.0080     0.000    A    2.50000E-01   1.25520E-01
  opls_806  C806    12.0110     0.000    A    3.50000E-01   2.76144E-01
  opls_822  H822     1.0080     0.000    A    2.50000E-01   1.25520E-01
  opls_825  H825     1.0080     0.000    A    2.50000E-01   1.25520E-01
  opls_814  H814     1.0080     0.000    A    2.50000E-01   1.25520E-01
  opls_821  H821     1.0080     0.000    A    2.50000E-01   1.25520E-01
  opls_820  H820     1.0080     0.000    A    2.50000E-01   1.25520E-01
  opls_803  C803    12.0110     0.000    A    3.45000E-01   3.47272E-01
  opls_829  H829     1.0080     0.000    A    2.50000E-01   1.25520E-01
  opls_831  H831     1.0080     0.000    A    2.50000E-01   1.25520E-01
  opls_816  H816     1.0080     0.000    A    2.50000E-01   1.25520E-01
  opls_800  C800    12.0110     0.000    A    3.50000E-01   2.76144E-01
  opls_813  C813    12.0110     0.000    A    3.45000E-01   3.47272E-01
  opls_811  C811    12.0110     0.000    A    3.50000E-01   2.76144E-01
  opls_823  H823     1.0080     0.000    A    2.50000E-01   1.25520E-01
  opls_826  H826     1.0080     0.000    A    2.50000E-01   1.25520E-01
  opls_819  H819     1.0080     0.000    A    2.50000E-01   1.25520E-01
  opls_804  C804    12.0110     0.000    A    3.50000E-01   2.76144E-01
  opls_827  H827     1.0080     0.000    A    2.50000E-01   1.25520E-01
  opls_808  C808    12.0110     0.000    A    3.50000E-01   2.76144E-01
  opls_817  H817     1.0080     0.000    A    2.50000E-01   1.25520E-01
  opls_801  C801    12.0110     0.000    A    3.45000E-01   3.47272E-01
  opls_830  H830     1.0080     0.000    A    2.50000E-01   1.25520E-01
[ moleculetype ]
; Name               nrexcl
UNK                   3
[ atoms ]
;   nr       type  resnr residue  atom   cgnr     charge       mass  
     1   opls_800      1    UNK   C00      1    -0.2286    12.0110 
     2   opls_801      1    UNK   C01      1    -0.0499    12.0110 
     3   opls_802      1    UNK   C02      1    -0.0994    12.0110 
     4   opls_803      1    UNK   C03      1    -0.1362    12.0110 
     5   opls_804      1    UNK   C04      1     -0.159    12.0110 
     6   opls_805      1    UNK   C05      1    -0.3984    12.0110 
     7   opls_806      1    UNK   C06      1     0.0475    12.0110 
     8   opls_807      1    UNK   C07      1    -0.2066    12.0110 
     9   opls_808      1    UNK   C08      1    -0.1128    12.0110 
    10   opls_809      1    UNK   C09      1    -0.1401    12.0110 
    11   opls_810      1    UNK   C0A      1    -0.1346    12.0110 
    12   opls_811      1    UNK   C0B      1       0.01    12.0110 
    13   opls_812      1    UNK   O0C      1    -0.4107    15.9990 
    14   opls_813      1    UNK   C0D      1    -0.0618    12.0110 
    15   opls_814      1    UNK   H0E      1     0.0862     1.0080 
    16   opls_815      1    UNK   H0F      1     0.0862     1.0080 
    17   opls_816      1    UNK   H0G      1     0.0862     1.0080 
    18   opls_817      1    UNK   H0H      1      0.081     1.0080 
    19   opls_818      1    UNK   H0I      1      0.081     1.0080 
    20   opls_819      1    UNK   H0J      1     0.2717     1.0080 
    21   opls_820      1    UNK   H0K      1     0.1955     1.0080 
    22   opls_821      1    UNK   H0M      1     0.1268     1.0080 
    23   opls_822      1    UNK   H0N      1     0.1268     1.0080 
    24   opls_823      1    UNK   H0O      1     0.1188     1.0080 
    25   opls_824      1    UNK   H0P      1     0.1188     1.0080 
    26   opls_825      1    UNK   H0Q      1     0.0891     1.0080 
    27   opls_826      1    UNK   H0R      1     0.0891     1.0080 
    28   opls_827      1    UNK   H0S      1      0.117     1.0080 
    29   opls_828      1    UNK   H0T      1     0.1145     1.0080 
    30   opls_829      1    UNK   H0U      1     0.0832     1.0080 
    31   opls_830      1    UNK   H0V      1     0.0832     1.0080 
    32   opls_831      1    UNK   H0W      1     0.1251     1.0080 
[ bonds ]
    2     1     1      0.1510 234304.000
    3     2     1      0.1510 234304.000
    4     3     1      0.1510 234304.000
    5     4     1      0.1510 234304.000
    6     5     1      0.1510 234304.000
    7     6     1      0.1510 234304.000
    8     4     1      0.1520 217568.000
    9     8     1      0.1510 234304.000
   10     9     1      0.1510 234304.000
   11     2     1      0.1520 217568.000
   12    11     1      0.1510 234304.000
   13     8     1      0.1410 267776.000
   14     2     1      0.1520 217568.000
   15     1     1      0.1090 284512.000
   16     1     1      0.1090 284512.000
   17     1     1      0.1090 284512.000
   18     3     1      0.1090 284512.000
   19     3     1      0.1090 284512.000
   20     4     1      0.1088 284512.000
   21     5     1      0.1090 284512.000
   22     6     1      0.1088 284512.000
   23     6     1      0.1088 284512.000
   24     7     1      0.1090 284512.000
   25     7     1      0.1090 284512.000
   26     9     1      0.1090 284512.000
   27     9     1      0.1090 284512.000
   28    10     1      0.1088 284512.000
   29    11     1      0.1088 284512.000
   30    12     1      0.1090 284512.000
   31    12     1      0.1090 284512.000
   32    14     1      0.1088 284512.000
   14     5     1      0.1510 234304.000
    8     7     1      0.1510 234304.000
   11    10     1      0.1520 217568.000
   14    10     1      0.1520 217568.000
   13    12     1      0.1410 267776.000

[ angles ]
;  ai    aj    ak funct            c0            c1            c2            c3 
    1     2     3     1    114.300    292.880
    2     3     4     1    112.700    488.273
    3     4     5     1    114.300    292.880
    4     5     6     1    112.700    488.273
    5     6     7     1    114.300    292.880
    3     4     8     1    117.200    313.800
    4     8     9     1    117.200    313.800
    8     9    10     1    112.700    488.273
    1     2    11     1    117.200    313.800
    2    11    12     1    117.200    313.800
    4     8    13     1    109.500    418.400
    1     2    14     1    117.200    313.800
    2     1    15     1    110.700    313.800
    2     1    16     1    110.700    313.800
    2     1    17     1    110.700    313.800
    2     3    18     1    110.700    313.800
    2     3    19     1    110.700    313.800
    3     4    20     1    114.300    292.880
    4     5    21     1    110.700    313.800
    5     6    22     1    114.300    292.880
    5     6    23     1    114.300    292.880
    6     7    24     1    110.700    313.800
    6     7    25     1    110.700    313.800
    8     9    26     1    110.700    313.800
    8     9    27     1    110.700    313.800
    9    10    28     1    114.300    292.880
    2    11    29     1    117.200    313.800
   11    12    30     1    110.700    313.800
   11    12    31     1    110.700    313.800
    2    14    32     1    117.200    313.800
   10    11    12     1    117.200    313.800
    8    13    12     1    109.500    502.080
    3     2    14     1    117.200    313.800
   11    10    14     1     83.000    251.040
   14     5    21     1    110.700    313.800
   13    12    31     1    109.500    292.880
    5    14    32     1    114.300    292.880
   11     2    14     1     83.000    251.040
   15     1    17     1    107.800    276.144
    6     5    14     1    112.700    488.273
    2    14    10     1     83.000    251.040
   16     1    17     1    107.800    276.144
   26     9    27     1    107.800    276.144
    4     3    19     1    110.700    313.800
   24     7    25     1    107.800    276.144
    9     8    13     1    109.500    418.400
    6     7     8     1    112.700    488.273
   10    11    29     1    117.200    313.800
    5     4     8     1    117.200    313.800
    9    10    14     1    117.200    313.800
    2    11    10     1     83.000    251.040
    3     2    11     1    117.200    313.800
   18     3    19     1    107.800    276.144
   30    12    31     1    107.800    276.144
    8     7    25     1    110.700    313.800
    8     4    20     1    117.200    313.800
   13    12    30     1    109.500    292.880
    4     5    14     1    112.700    488.273
    5    14    10     1    117.200    313.800
   11    10    28     1    117.200    313.800
   10    14    32     1    117.200    313.800
    6     5    21     1    110.700    313.800
    5     4    20     1    114.300    292.880
   10     9    26     1    110.700    313.800
    4     8     7     1    117.200    313.800
   15     1    16     1    107.800    276.144
    9    10    11     1    117.200    313.800
   12    11    29     1    114.300    292.880
    7     8     9     1    114.300    292.880
    4     3    18     1    110.700    313.800
   14    10    28     1    117.200    313.800
    8     7    24     1    110.700    313.800
   11    12    13     1    109.500    418.400
    7     6    23     1    114.300    292.880
   22     6    23     1    114.300    292.880
    7     8    13     1    109.500    418.400
   10     9    27     1    110.700    313.800
    2    14     5     1    117.200    313.800
    7     6    22     1    114.300    292.880

[ dihedrals ]
; IMPROPER DIHEDRAL ANGLES 
;  ai    aj    ak    al funct            c0            c1            c2            c3            c4            c5

[ dihedrals ]
; PROPER DIHEDRAL ANGLES
;  ai    aj    ak    al funct            c0            c1            c2            c3            c4            c5
    5    4    3    2        3       0.000   0.000   0.000  -0.000  -0.000   0.000
    7    6    5    4        3       0.000   0.000   0.000  -0.000  -0.000   0.000
    9    8    7    6        3       0.000   0.000   0.000  -0.000  -0.000   0.000
   12   11    2    1        3       0.000   0.000   0.000  -0.000  -0.000   0.000
    5   14    2    1        3       0.000   0.000   0.000  -0.000  -0.000   0.000
   12   11   10    9        3       0.000   0.000   0.000  -0.000  -0.000   0.000
    9   10   14    5        3       0.000   0.000   0.000  -0.000  -0.000   0.000
    7    8    4    5        3       0.000   0.000   0.000  -0.000  -0.000   0.000
    9    8    4    5        3       0.000   0.000   0.000  -0.000  -0.000   0.000
    9    8    4    3        3       0.000   0.000   0.000  -0.000  -0.000   0.000
   12   11    2    3        3       0.000   0.000   0.000  -0.000  -0.000   0.000
    5   14    2    3        3       0.000   0.000   0.000  -0.000  -0.000   0.000
    7    8    4    3        3       0.000   0.000   0.000  -0.000  -0.000   0.000
    9   10   11    2        3       0.000   0.000   0.000  -0.000  -0.000   0.000
    9   10   14    2        3       0.000   0.000   0.000  -0.000  -0.000   0.000
   12   13    8    9        3       1.715   2.845   1.046  -5.607  -0.000   0.000
   12   13    8    7        3       1.715   2.845   1.046  -5.607  -0.000   0.000
   12   13    8    4        3       1.715   2.845   1.046  -5.607  -0.000   0.000
   14    5    4    3        3       0.000   0.000   0.000  -0.000  -0.000   0.000
    8    7    6    5        3       0.000   0.000   0.000  -0.000  -0.000   0.000
   14    5    6    7        3       0.000   0.000   0.000  -0.000  -0.000   0.000
   10    9    8    7        3       0.000   0.000   0.000  -0.000  -0.000   0.000
    4    3    2    1        3       0.000   0.000   0.000  -0.000  -0.000   0.000
    6    5    4    3        3       0.000   0.000   0.000  -0.000  -0.000   0.000
   10    9    8    4        3       0.000   0.000   0.000  -0.000  -0.000   0.000
    6    7    8    4        3       0.000   0.000   0.000  -0.000  -0.000   0.000
    4    5   14    2        3       0.000   0.000   0.000  -0.000  -0.000   0.000
   14    5    4    8        3       0.000   0.000   0.000  -0.000  -0.000   0.000
    6    5   14    2        3       0.000   0.000   0.000  -0.000  -0.000   0.000
   11   12   13    8        3       1.715   2.845   1.046  -5.607  -0.000   0.000
   11    2    3    4        3       0.000   0.000   0.000  -0.000  -0.000   0.000
   14    2    3    4        3       0.000   0.000   0.000  -0.000  -0.000   0.000
    8    4    3    2        3       0.000   0.000   0.000  -0.000  -0.000   0.000
   10   14    5    6        3       0.000   0.000   0.000  -0.000  -0.000   0.000
    8    4    5    6        3       0.000   0.000   0.000  -0.000  -0.000   0.000
   14   10    9    8        3       0.000   0.000   0.000  -0.000  -0.000   0.000
   11   10    9    8        3       0.000   0.000   0.000  -0.000  -0.000   0.000
   10   14    5    4        3       0.000   0.000   0.000  -0.000  -0.000   0.000
   11    2   14    5        3       0.000   0.000   0.000  -0.000  -0.000   0.000
   14    2   11   12        3       0.000   0.000   0.000  -0.000  -0.000   0.000
   10   11    2    3        3       0.000   0.000   0.000  -0.000  -0.000   0.000
   10   14    2    3        3       0.000   0.000   0.000  -0.000  -0.000   0.000
   14   10   11   12        3       0.000   0.000   0.000  -0.000  -0.000   0.000
   11   10   14    5        3       0.000   0.000   0.000  -0.000  -0.000   0.000
   10   11    2    1        3       0.000   0.000   0.000  -0.000  -0.000   0.000
   10   14    2    1        3       0.000   0.000   0.000  -0.000  -0.000   0.000
   26    9    8    7        3       0.628   1.883   0.000  -2.510  -0.000   0.000
   18    3    2    1        3       0.628   1.883   0.000  -2.510  -0.000   0.000
   25    7    6    5        3       0.000   0.000   0.000  -0.000  -0.000   0.000
   16    1    2    3        3       0.628   1.883   0.000  -2.510  -0.000   0.000
   15    1    2    3        3       0.628   1.883   0.000  -2.510  -0.000   0.000
   18    3    4    5        3       0.628   1.883   0.000  -2.510  -0.000   0.000
   21    5    4    3        3       0.628   1.883   0.000  -2.510  -0.000   0.000
   24    7    8    9        3       0.628   1.883   0.000  -2.510  -0.000   0.000
   21    5    6    7        3       0.000   0.000   0.000  -0.000  -0.000   0.000
   17    1    2    3        3       0.628   1.883   0.000  -2.510  -0.000   0.000
   24    7    6    5        3       0.000   0.000   0.000  -0.000  -0.000   0.000
   19    3    4    5        3       0.628   1.883   0.000  -2.510  -0.000   0.000
   27    9    8    7        3       0.628   1.883   0.000  -2.510  -0.000   0.000
   25    7    8    9        3       0.628   1.883   0.000  -2.510  -0.000   0.000
   19    3    2    1        3       0.628   1.883   0.000  -2.510  -0.000   0.000
   17    1    2   14        3       0.628   1.883   0.000  -2.510  -0.000   0.000
   18    3    4    8        3       0.628   1.883   0.000  -2.510  -0.000   0.000
   18    3    2   11        3       0.628   1.883   0.000  -2.510  -0.000   0.000
   17    1    2   11        3       0.628   1.883   0.000  -2.510  -0.000   0.000
   19    3    2   14        3       0.628   1.883   0.000  -2.510  -0.000   0.000
   27    9   10   11        3       0.628   1.883   0.000  -2.510  -0.000   0.000
   25    7    8    4        3       0.628   1.883   0.000  -2.510  -0.000   0.000
   27    9    8    4        3       0.628   1.883   0.000  -2.510  -0.000   0.000
   31   12   11   10        3       0.628   1.883   0.000  -2.510  -0.000   0.000
   15    1    2   14        3       0.628   1.883   0.000  -2.510  -0.000   0.000
   16    1    2   14        3       0.628   1.883   0.000  -2.510  -0.000   0.000
   30   12   11   10        3       0.628   1.883   0.000  -2.510  -0.000   0.000
   31   12   11    2        3       0.628   1.883   0.000  -2.510  -0.000   0.000
   27    9   10   14        3       0.628   1.883   0.000  -2.510  -0.000   0.000
   26    9    8    4        3       0.628   1.883   0.000  -2.510  -0.000   0.000
   26    9   10   14        3       0.628   1.883   0.000  -2.510  -0.000   0.000
   21    5   14    2        3       0.628   1.883   0.000  -2.510  -0.000   0.000
   15    1    2   11        3       0.628   1.883   0.000  -2.510  -0.000   0.000
   19    3    2   11        3       0.628   1.883   0.000  -2.510  -0.000   0.000
   21    5   14   10        3       0.628   1.883   0.000  -2.510  -0.000   0.000
   26    9   10   11        3       0.628   1.883   0.000  -2.510  -0.000   0.000
   16    1    2   11        3       0.628   1.883   0.000  -2.510  -0.000   0.000
   24    7    8    4        3       0.628   1.883   0.000  -2.510  -0.000   0.000
   18    3    2   14        3       0.628   1.883   0.000  -2.510  -0.000   0.000
   30   12   11    2        3       0.628   1.883   0.000  -2.510  -0.000   0.000
   21    5    4    8        3       0.628   1.883   0.000  -2.510  -0.000   0.000
   19    3    4    8        3       0.628   1.883   0.000  -2.510  -0.000   0.000
   25    7    6   23        3       0.628   1.883   0.000  -2.510  -0.000   0.000
   24    7    6   23        3       0.628   1.883   0.000  -2.510  -0.000   0.000
   24    7    6   22        3       0.628   1.883   0.000  -2.510  -0.000   0.000
   30   12   11   29        3       0.628   1.883   0.000  -2.510  -0.000   0.000
   31   12   11   29        3       0.628   1.883   0.000  -2.510  -0.000   0.000
   21    5    4   20        3       0.628   1.883   0.000  -2.510  -0.000   0.000
   25    7    6   22        3       0.628   1.883   0.000  -2.510  -0.000   0.000
   25    7    8   13        3       0.979   2.937   0.000  -3.916  -0.000   0.000
   26    9    8   13        3       0.979   2.937   0.000  -3.916  -0.000   0.000
   27    9    8   13        3       0.979   2.937   0.000  -3.916  -0.000   0.000
   24    7    8   13        3       0.979   2.937   0.000  -3.916  -0.000   0.000
   30   12   13    8        3       1.590   4.770   0.000  -6.360  -0.000   0.000
   31   12   13    8        3       1.590   4.770   0.000  -6.360  -0.000   0.000
   20    4    5   14        3       0.000   0.000   0.000  -0.000  -0.000   0.000
   23    6    7    8        3       0.000   0.000   0.000  -0.000  -0.000   0.000
   22    6    7    8        3       0.000   0.000   0.000  -0.000  -0.000   0.000
   28   10    9    8        3       0.000   0.000   0.000  -0.000  -0.000   0.000
   23    6    5    4        3       0.000   0.000   0.000  -0.000  -0.000   0.000
   23    6    5   14        3       0.000   0.000   0.000  -0.000  -0.000   0.000
   20    4    5    6        3       0.000   0.000   0.000  -0.000  -0.000   0.000
   20    4    3    2        3       0.000   0.000   0.000  -0.000  -0.000   0.000
   22    6    5   14        3       0.000   0.000   0.000  -0.000  -0.000   0.000
   22    6    5    4        3       0.000   0.000   0.000  -0.000  -0.000   0.000
   32   14    5    4        3       0.000   0.000   0.000  -0.000  -0.000   0.000
   32   14    5    6        3       0.000   0.000   0.000  -0.000  -0.000   0.000
   20    4    3   18        3       0.628   1.883   0.000  -2.510  -0.000   0.000
   23    6    5   21        3       0.628   1.883   0.000  -2.510  -0.000   0.000
   20    4    3   19        3       0.628   1.883   0.000  -2.510  -0.000   0.000
   32   14    5   21        3       0.628   1.883   0.000  -2.510  -0.000   0.000
   28   10    9   26        3       0.628   1.883   0.000  -2.510  -0.000   0.000
   28   10    9   27        3       0.628   1.883   0.000  -2.510  -0.000   0.000
   22    6    5   21        3       0.628   1.883   0.000  -2.510  -0.000   0.000
   29   11   12   13        3       0.979   2.937   0.000  -3.916  -0.000   0.000
   32   14    2    3        3       0.000   0.000   0.000  -0.000  -0.000   0.000
   32   14   10    9        3       0.000   0.000   0.000  -0.000  -0.000   0.000
   28   10   14    5        3       0.000   0.000   0.000  -0.000  -0.000   0.000
   20    4    8    9        3       0.000   0.000   0.000  -0.000  -0.000   0.000
   32   14    2    1        3       0.000   0.000   0.000  -0.000  -0.000   0.000
   29   11   10    9        3       0.000   0.000   0.000  -0.000  -0.000   0.000
   20    4    8    7        3       0.000   0.000   0.000  -0.000  -0.000   0.000
   28   10   11   12        3       0.000   0.000   0.000  -0.000  -0.000   0.000
   29   11    2    3        3       0.000   0.000   0.000  -0.000  -0.000   0.000
   29   11    2    1        3       0.000   0.000   0.000  -0.000  -0.000   0.000
   32   14   10   11        3       0.000   0.000   0.000  -0.000  -0.000   0.000
   28   10   14    2        3       0.000   0.000   0.000  -0.000  -0.000   0.000
   29   11   10   14        3       0.000   0.000   0.000  -0.000  -0.000   0.000
   28   10   11    2        3       0.000   0.000   0.000  -0.000  -0.000   0.000
   32   14    2   11        3       0.000   0.000   0.000  -0.000  -0.000   0.000
   29   11    2   14        3       0.000   0.000   0.000  -0.000  -0.000   0.000
   29   11   10   28        3       0.000   0.000   0.000  -0.000  -0.000   0.000
   32   14   10   28        3       0.000   0.000   0.000  -0.000  -0.000   0.000
   20    4    8   13        3       0.000   0.000   0.000  -0.000  -0.000   0.000
   13   12   11    2        3       0.000   0.000   0.000  -0.000  -0.000   0.000
   13   12   11   10        3       0.000   0.000   0.000  -0.000  -0.000   0.000
   13    8    7    6        3      -1.157  -3.471   0.000   4.628  -0.000   0.000
   13    8    9   10        3      -1.157  -3.471   0.000   4.628  -0.000   0.000
   13    8    4    5        3       0.000   0.000   0.000  -0.000  -0.000   0.000
   13    8    4    3        3       0.000   0.000   0.000  -0.000  -0.000   0.000

[ pairs ]
     1     4    1
     1     5    1
     2     6    1
     3     6    1
     3     7    1
     2     8    1
     2     9    1
     1    10    1
     3     9    1
     3    10    1
     1    12    1
     5     9    1
     4    10    1
     6     9    1
     4    11    1
     3    12    1
     2    13    1
     6    10    1
     5    11    1
     4    12    1
     3    13    1
     7    10    1
     5    13    1
     3    15    1
     8    11    1
     7    12    1
     6    13    1
     3    16    1
     1    18    1
     3    17    1
     1    19    1
     9    12    1
     7    14    1
     8    14    1
     2    20    1
    10    13    1
     5    18    1
     2    21    1
     5    19    1
     3    21    1
    12    14    1
    11    15    1
     8    18    1
     6    20    1
     4    22    1
    11    16    1
     8    19    1
     7    20    1
     4    23    1
    11    17    1
     7    21    1
     4    24    1
    14    15    1
    11    18    1
     9    20    1
     8    21    1
     5    24    1
     4    25    1
    14    16    1
    11    19    1
     8    22    1
     5    25    1
     4    26    1
     2    28    1
     1    29    1
    14    17    1
    10    21    1
     8    23    1
     4    27    1
    14    18    1
     3    29    1
     2    30    1
    14    19    1
    13    20    1
     9    24    1
     7    26    1
     5    28    1
     2    31    1
     1    32    1
    14    20    1
     9    25    1
     7    27    1
     3    32    1
    14    22    1
     8    28    1
     4    32    1
    14    23    1
    13    24    1
    11    26    1
    18    20    1
    13    25    1
    11    27    1
     9    29    1
     8    30    1
     6    32    1
    19    20    1
    13    26    1
     8    31    1
    14    26    1
    13    27    1
    12    28    1
    10    30    1
    20    21    1
    14    27    1
    10    31    1
     9    32    1
    13    29    1
    21    22    1
    14    29    1
    11    32    1
    21    23    1
    22    24    1
    23    24    1
    22    25    1
    23    25    1
    21    32    1
    26    28    1
    27    28    1
    28    29    1
    29    30    1
    29    31    1
    28    32    1

