
;
; GENERATED BY LigParGen Server
; Jorgensen Lab @ Yale University 
;
[ atomtypes ]
  opls_804  C804    12.0110     0.000    A    3.55000E-01   2.92880E-01
  opls_807  C807    12.0110     0.000    A    3.55000E-01   2.92880E-01
  opls_803  C803    12.0110     0.000    A    3.55000E-01   2.92880E-01
  opls_814  H814     1.0080     0.000    A    2.42000E-01   1.25520E-01
  opls_812  H812     1.0080     0.000    A    2.50000E-01   1.25520E-01
  opls_810  H810     1.0080     0.000    A    2.42000E-01   1.25520E-01
  opls_806  C806    12.0110     0.000    A    3.50000E-01   2.76144E-01
  opls_802  C802    12.0110     0.000    A    3.55000E-01   2.92880E-01
  opls_808  S808    32.0600     0.000    A    3.60000E-01   1.48532E+00
  opls_809  H809     1.0080     0.000    A    2.50000E-01   1.25520E-01
  opls_801  C801    12.0110     0.000    A    3.30000E-01   2.76144E-01
  opls_813  H813     1.0080     0.000    A    2.50000E-01   1.25520E-01
  opls_800  C800    12.0110     0.000    A    3.30000E-01   2.76144E-01
  opls_805  O805    15.9990     0.000    A    2.90000E-01   5.85760E-01
  opls_811  H811     1.0080     0.000    A    2.50000E-01   1.25520E-01
[ moleculetype ]
; Name               nrexcl
UNK                   3
[ atoms ]
;   nr       type  resnr residue  atom   cgnr     charge       mass  
     1   opls_800      1    UNK   C00      1    -0.2041    12.0110 
     2   opls_801      1    UNK   C01      1     -0.126    12.0110 
     3   opls_802      1    UNK   C02      1    -0.0377    12.0110 
     4   opls_803      1    UNK   C03      1    -0.1859    12.0110 
     5   opls_804      1    UNK   C04      1     0.1123    12.0110 
     6   opls_805      1    UNK   O05      1    -0.2714    15.9990 
     7   opls_806      1    UNK   C06      1    -0.0562    12.0110 
     8   opls_807      1    UNK   C07      1    -0.2945    12.0110 
     9   opls_808      1    UNK   S08      1     0.1265    32.0600 
    10   opls_809      1    UNK   H09      1     0.2619     1.0080 
    11   opls_810      1    UNK   H0A      1      0.185     1.0080 
    12   opls_811      1    UNK   H0B      1     0.0944     1.0080 
    13   opls_812      1    UNK   H0C      1     0.0944     1.0080 
    14   opls_813      1    UNK   H0D      1     0.0944     1.0080 
    15   opls_814      1    UNK   H0E      1      0.207     1.0080 
[ bonds ]
    2     1     1      0.1210 962320.000
    3     2     1      0.1310 280771.504
    4     3     1      0.1367 456892.800
    5     4     1      0.1424 392459.200
    6     5     1      0.1364 376560.000
    7     6     1      0.1410 267776.000
    8     5     1      0.1367 456892.800
    9     3     1      0.1740 209200.000
   10     1     1      0.1080 351456.000
   11     4     1      0.1080 307105.600
   12     7     1      0.1090 284512.000
   13     7     1      0.1090 284512.000
   14     7     1      0.1090 284512.000
   15     8     1      0.1080 307105.600
    9     8     1      0.1740 209200.000

[ angles ]
;  ai    aj    ak funct            c0            c1            c2            c3 
    1     2     3     1    156.000    924.413
    2     3     4     1    111.170    585.760
    3     4     5     1    107.300    585.760
    4     5     6     1    120.000    585.760
    5     6     7     1    111.000    627.600
    4     5     8     1    107.300    585.760
    2     3     9     1    111.170    585.760
    2     1    10     1    180.000    937.216
    3     4    11     1    125.700    292.880
    6     7    12     1    109.500    292.880
    6     7    13     1    109.500    292.880
    6     7    14     1    109.500    292.880
    5     8    15     1    132.100    292.880
   12     7    14     1    107.800    276.144
   13     7    14     1    107.800    276.144
    5     8     9     1    111.170    585.760
    3     9     8     1     97.000    619.232
    4     3     9     1    111.170    585.760
    9     8    15     1    125.000    292.880
    6     5     8     1    119.200    525.092
    5     4    11     1    127.500    292.880
   12     7    13     1    107.800    276.144

[ dihedrals ]
; IMPROPER DIHEDRAL ANGLES 
;  ai    aj    ak    al funct            c0            c1            c2            c3            c4            c5
     8     5     4     6    4        180.000     10.460     2  
    15     8     5     9    4        180.000     10.460     2  
    11     4     3     5    4        180.000     10.460     2  
     9     3     2     4    4        180.000     10.460     2  

[ dihedrals ]
; PROPER DIHEDRAL ANGLES
;  ai    aj    ak    al funct            c0            c1            c2            c3            c4            c5
    8    5    4    3        3       9.079   0.000  -9.079  -0.000  -0.000   0.000
    8    5    6    7        3       1.715   2.845   1.046  -5.607  -0.000   0.000
    8    9    3    4        3       0.000   0.000   0.000  -0.000  -0.000   0.000
    8    9    3    2        3       0.000   0.000   0.000  -0.000  -0.000   0.000
    4    3    2    1        3       0.000   0.000   0.000  -0.000  -0.000   0.000
    5    8    9    3        3       0.000   0.000   0.000  -0.000  -0.000   0.000
    5    4    3    2        3       9.079   0.000  -9.079  -0.000  -0.000   0.000
    7    6    5    4        3       1.715   2.845   1.046  -5.607  -0.000   0.000
   15    8    5    4        3      30.334   0.000  -30.334  -0.000  -0.000   0.000
   15    8    5    6        3      30.334   0.000  -30.334  -0.000  -0.000   0.000
   15    8    9    3        3      30.334   0.000  -30.334  -0.000  -0.000   0.000
   11    4    3    2        3      30.334   0.000  -30.334  -0.000  -0.000   0.000
   11    4    3    9        3      30.334   0.000  -30.334  -0.000  -0.000   0.000
   11    4    5    8        3      30.334   0.000  -30.334  -0.000  -0.000   0.000
   11    4    5    6        3       9.079   0.000  -9.079  -0.000  -0.000   0.000
   14    7    6    5        3       1.590   4.770   0.000  -6.360  -0.000   0.000
   12    7    6    5        3       1.590   4.770   0.000  -6.360  -0.000   0.000
   13    7    6    5        3       1.590   4.770   0.000  -6.360  -0.000   0.000
   10    1    2    3        3       0.000   0.000   0.000  -0.000  -0.000   0.000
    6    5    4    3        3       9.079   0.000  -9.079  -0.000  -0.000   0.000
    9    8    5    4        3       8.786   0.000  -8.786  -0.000  -0.000   0.000
    9    3    4    5        3       8.786   0.000  -8.786  -0.000  -0.000   0.000
    9    8    5    6        3       9.079   0.000  -9.079  -0.000  -0.000   0.000
    9    3    2    1        3       0.000   0.000   0.000  -0.000  -0.000   0.000

[ pairs ]
     1     4    1
     2     5    1
     3     6    1
     2     8    1
     1     9    1
     4     7    1
     3    10    1
     2    11    1
     7     8    1
     6     9    1
     6    11    1
     5    12    1
     5    13    1
     3    15    1
     8    11    1
     5    14    1
     4    15    1
     9    11    1
     6    15    1

