
;
; GENERATED BY LigParGen Server
; Jorgensen Lab @ Yale University 
;
[ atomtypes ]
  opls_818  H818     1.0080     0.000    A    2.50000E-01   1.25520E-01
  opls_810  C810    12.0110     0.000    A    3.45000E-01   3.47272E-01
  opls_824  H824     1.0080     0.000    A    2.50000E-01   1.25520E-01
  opls_805  C805    12.0110     0.000    A    3.50000E-01   2.76144E-01
  opls_836  H836     1.0080     0.000    A    2.50000E-01   1.25520E-01
  opls_834  H834     1.0080     0.000    A    2.50000E-01   1.25520E-01
  opls_828  H828     1.0080     0.000    A    2.50000E-01   1.25520E-01
  opls_814  C814    12.0110     0.000    A    3.55000E-01   2.92880E-01
  opls_807  C807    12.0110     0.000    A    3.45000E-01   3.47272E-01
  opls_802  C802    12.0110     0.000    A    3.50000E-01   2.76144E-01
  opls_827  H827     1.0080     0.000    A    2.50000E-01   1.25520E-01
  opls_801  C801    12.0110     0.000    A    3.50000E-01   2.76144E-01
  opls_822  H822     1.0080     0.000    A    2.50000E-01   1.25520E-01
  opls_803  C803    12.0110     0.000    A    3.50000E-01   2.76144E-01
  opls_825  H825     1.0080     0.000    A    2.50000E-01   1.25520E-01
  opls_830  H830     1.0080     0.000    A    2.50000E-01   1.25520E-01
  opls_821  H821     1.0080     0.000    A    2.50000E-01   1.25520E-01
  opls_820  H820     1.0080     0.000    A    2.50000E-01   1.25520E-01
  opls_837  H837     1.0080     0.000    A    2.50000E-01   1.25520E-01
  opls_829  H829     1.0080     0.000    A    2.50000E-01   1.25520E-01
  opls_831  H831     1.0080     0.000    A    2.50000E-01   1.25520E-01
  opls_832  H832     1.0080     0.000    A    2.50000E-01   1.25520E-01
  opls_812  O812    15.9990     0.000    A    2.96000E-01   8.78640E-01
  opls_816  H816     1.0080     0.000    A    2.50000E-01   1.25520E-01
  opls_800  C800    12.0110     0.000    A    3.50000E-01   2.76144E-01
  opls_813  C813    12.0110     0.000    A    3.45000E-01   3.47272E-01
  opls_806  C806    12.0110     0.000    A    3.50000E-01   2.76144E-01
  opls_811  C811    12.0110     0.000    A    3.55000E-01   2.92880E-01
  opls_823  H823     1.0080     0.000    A    2.50000E-01   1.25520E-01
  opls_826  H826     1.0080     0.000    A    2.50000E-01   1.25520E-01
  opls_835  H835     1.0080     0.000    A    2.50000E-01   1.25520E-01
  opls_819  H819     1.0080     0.000    A    2.50000E-01   1.25520E-01
  opls_804  C804    12.0110     0.000    A    3.50000E-01   2.76144E-01
  opls_833  H833     1.0080     0.000    A    2.50000E-01   1.25520E-01
  opls_808  C808    12.0110     0.000    A    3.50000E-01   2.76144E-01
  opls_815  O815    15.9990     0.000    A    2.96000E-01   8.78640E-01
  opls_817  H817     1.0080     0.000    A    2.50000E-01   1.25520E-01
  opls_809  C809    12.0110     0.000    A    3.45000E-01   3.47272E-01
[ moleculetype ]
; Name               nrexcl
UNK                   3
[ atoms ]
;   nr       type  resnr residue  atom   cgnr     charge       mass  
     1   opls_800      1    UNK   C00      1     -0.246    12.0110 
     2   opls_801      1    UNK   C01      1    -0.1138    12.0110 
     3   opls_802      1    UNK   C02      1     -0.241    12.0110 
     4   opls_803      1    UNK   C03      1     -0.151    12.0110 
     5   opls_804      1    UNK   C04      1    -0.0876    12.0110 
     6   opls_805      1    UNK   C05      1    -0.2282    12.0110 
     7   opls_806      1    UNK   C06      1    -0.1529    12.0110 
     8   opls_807      1    UNK   C07      1    -0.0497    12.0110 
     9   opls_808      1    UNK   C08      1    -0.2293    12.0110 
    10   opls_809      1    UNK   C09      1    -0.1922    12.0110 
    11   opls_810      1    UNK   C0A      1    -0.1775    12.0110 
    12   opls_811      1    UNK   C0B      1     0.4043    12.0110 
    13   opls_812      1    UNK   O0C      1    -0.4335    15.9990 
    14   opls_813      1    UNK   C0D      1    -0.1978    12.0110 
    15   opls_814      1    UNK   C0E      1     0.3424    12.0110 
    16   opls_815      1    UNK   O0F      1    -0.4304    15.9990 
    17   opls_816      1    UNK   H0G      1     0.0888     1.0080 
    18   opls_817      1    UNK   H0H      1     0.0888     1.0080 
    19   opls_818      1    UNK   H0I      1     0.0888     1.0080 
    20   opls_819      1    UNK   H0J      1     0.1028     1.0080 
    21   opls_820      1    UNK   H0K      1     0.0827     1.0080 
    22   opls_821      1    UNK   H0M      1     0.0827     1.0080 
    23   opls_822      1    UNK   H0N      1     0.0827     1.0080 
    24   opls_823      1    UNK   H0O      1     0.0928     1.0080 
    25   opls_824      1    UNK   H0P      1     0.0928     1.0080 
    26   opls_825      1    UNK   H0Q      1      0.094     1.0080 
    27   opls_826      1    UNK   H0R      1      0.094     1.0080 
    28   opls_827      1    UNK   H0S      1      0.094     1.0080 
    29   opls_828      1    UNK   H0T      1     0.1056     1.0080 
    30   opls_829      1    UNK   H0U      1     0.1056     1.0080 
    31   opls_830      1    UNK   H0V      1      0.093     1.0080 
    32   opls_831      1    UNK   H0W      1      0.093     1.0080 
    33   opls_832      1    UNK   H0X      2      0.093     1.0080 
    34   opls_833      1    UNK   H0Y      2     0.1132     1.0080 
    35   opls_834      1    UNK   H0Z      2     0.1132     1.0080 
    36   opls_835      1    UNK   H10      2     0.1347     1.0080 
    37   opls_836      1    UNK   H11      2     0.1388     1.0080 
    38   opls_837      1    UNK   H12      2     0.1091     1.0080 
[ bonds ]
    2     1     1      0.1529 224262.400
    3     2     1      0.1529 224262.400
    4     2     1      0.1529 224262.400
    5     4     1      0.1529 224262.400
    6     5     1      0.1529 224262.400
    7     5     1      0.1529 224262.400
    8     7     1      0.1510 234304.000
    9     8     1      0.1510 234304.000
   10     8     1      0.1520 217568.000
   11    10     1      0.1520 217568.000
   12     5     1      0.1522 265265.600
   13    12     1      0.1229 476976.000
   14     8     1      0.1520 217568.000
   15    14     1      0.1522 265265.600
   16    15     1      0.1229 476976.000
   17     1     1      0.1090 284512.000
   18     1     1      0.1090 284512.000
   19     1     1      0.1090 284512.000
   20     2     1      0.1090 284512.000
   21     3     1      0.1090 284512.000
   22     3     1      0.1090 284512.000
   23     3     1      0.1090 284512.000
   24     4     1      0.1090 284512.000
   25     4     1      0.1090 284512.000
   26     6     1      0.1090 284512.000
   27     6     1      0.1090 284512.000
   28     6     1      0.1090 284512.000
   29     7     1      0.1090 284512.000
   30     7     1      0.1090 284512.000
   31     9     1      0.1090 284512.000
   32     9     1      0.1090 284512.000
   33     9     1      0.1090 284512.000
   34    10     1      0.1088 284512.000
   35    10     1      0.1088 284512.000
   36    11     1      0.1088 284512.000
   37    14     1      0.1088 284512.000
   38    15     1      0.1090 284512.000
   12    11     1      0.1522 265265.600
   14    11     1      0.1520 217568.000

[ angles ]
;  ai    aj    ak funct            c0            c1            c2            c3 
    1     2     3     1    112.700    488.273
    1     2     4     1    112.700    488.273
    2     4     5     1    112.700    488.273
    4     5     6     1    112.700    488.273
    4     5     7     1    112.700    488.273
    5     7     8     1    112.700    488.273
    7     8     9     1    114.300    292.880
    7     8    10     1    117.200    313.800
    8    10    11     1     83.000    251.040
    4     5    12     1    111.100    527.184
    5    12    13     1    120.400    669.440
    7     8    14     1    117.200    313.800
    8    14    15     1    111.100    527.184
   14    15    16     1    120.400    669.440
    2     1    17     1    110.700    313.800
    2     1    18     1    110.700    313.800
    2     1    19     1    110.700    313.800
    1     2    20     1    110.700    313.800
    2     3    21     1    110.700    313.800
    2     3    22     1    110.700    313.800
    2     3    23     1    110.700    313.800
    2     4    24     1    110.700    313.800
    2     4    25     1    110.700    313.800
    5     6    26     1    110.700    313.800
    5     6    27     1    110.700    313.800
    5     6    28     1    110.700    313.800
    5     7    29     1    110.700    313.800
    5     7    30     1    110.700    313.800
    8     9    31     1    110.700    313.800
    8     9    32     1    110.700    313.800
    8     9    33     1    110.700    313.800
    8    10    34     1    117.200    313.800
    8    10    35     1    117.200    313.800
   10    11    36     1    117.200    313.800
    8    14    37     1    117.200    313.800
   14    15    38     1    115.000    292.880
   11    12    13     1    120.400    669.440
   11    10    35     1    117.200    313.800
    4     2    20     1    110.700    313.800
   24     4    25     1    107.800    276.144
   14    11    36     1    117.200    313.800
    5     4    24     1    110.700    313.800
   21     3    22     1    107.800    276.144
    9     8    10     1    117.200    313.800
   12    11    36     1    109.500    292.880
    3     2    20     1    110.700    313.800
   22     3    23     1    107.800    276.144
   31     9    33     1    107.800    276.144
    7     5    12     1    111.100    527.184
   17     1    18     1    107.800    276.144
   27     6    28     1    107.800    276.144
   26     6    27     1    107.800    276.144
   15    14    37     1    109.500    292.880
    8     7    29     1    110.700    313.800
   18     1    19     1    107.800    276.144
   10    11    14     1     83.000    251.040
   10    11    12     1    111.100    527.184
    8    14    11     1     83.000    251.040
    6     5     7     1    112.700    488.273
    3     2     4     1    112.700    488.273
    5     4    25     1    110.700    313.800
    5    12    11     1    116.000    585.760
    6     5    12     1    111.100    527.184
   17     1    19     1    107.800    276.144
   11    10    34     1    117.200    313.800
   21     3    23     1    107.800    276.144
   16    15    38     1    123.000    292.880
   12    11    14     1    111.100    527.184
    9     8    14     1    117.200    313.800
   31     9    32     1    107.800    276.144
   32     9    33     1    107.800    276.144
   10     8    14     1     83.000    251.040
   29     7    30     1    107.800    276.144
    8     7    30     1    110.700    313.800
   26     6    28     1    107.800    276.144
   11    14    15     1    111.100    527.184
   11    14    37     1    117.200    313.800
   34    10    35     1    114.300    292.880

[ dihedrals ]
; IMPROPER DIHEDRAL ANGLES 
;  ai    aj    ak    al funct            c0            c1            c2            c3            c4            c5
    38    15    14    16    4        180.000     43.932     2  
    13    12     5    11    4        180.000     43.932     2  

[ dihedrals ]
; PROPER DIHEDRAL ANGLES
;  ai    aj    ak    al funct            c0            c1            c2            c3            c4            c5
   12    5    4    2        3      -4.960   6.286   1.310  -2.636  -0.000   0.000
   12    5    7    8        3      -4.960   6.286   1.310  -2.636  -0.000   0.000
   15   14   11   12        3       0.000   0.000   0.000  -0.000  -0.000   0.000
   15   14    8    7        3       0.000   0.000   0.000  -0.000  -0.000   0.000
   15   14    8    9        3       0.000   0.000   0.000  -0.000  -0.000   0.000
   12   11   14    8        3       0.000   0.000   0.000  -0.000  -0.000   0.000
   15   14   11   10        3       0.000   0.000   0.000  -0.000  -0.000   0.000
   15   14    8   10        3       0.000   0.000   0.000  -0.000  -0.000   0.000
   12   11   10    8        3       0.000   0.000   0.000  -0.000  -0.000   0.000
    5    4    2    3        3       2.301  -1.464   0.837  -1.674  -0.000   0.000
    7    5    4    2        3       2.301  -1.464   0.837  -1.674  -0.000   0.000
    6    5    4    2        3       2.301  -1.464   0.837  -1.674  -0.000   0.000
    5    4    2    1        3       2.301  -1.464   0.837  -1.674  -0.000   0.000
    9    8    7    5        3       2.301  -1.464   0.837  -1.674  -0.000   0.000
   11   12    5    6        3       0.000   0.000   0.000  -0.000  -0.000   0.000
   11   12    5    4        3       0.000   0.000   0.000  -0.000  -0.000   0.000
   11   12    5    7        3       0.000   0.000   0.000  -0.000  -0.000   0.000
    8    7    5    4        3       2.301  -1.464   0.837  -1.674  -0.000   0.000
    8    7    5    6        3       2.301  -1.464   0.837  -1.674  -0.000   0.000
   10   11   12    5        3       0.000   0.000   0.000  -0.000  -0.000   0.000
   14   11   12    5        3       0.000   0.000   0.000  -0.000  -0.000   0.000
   14   11   12   13        3       0.000   0.000   0.000  -0.000  -0.000   0.000
   14    8    7    5        3       0.000   0.000   0.000  -0.000  -0.000   0.000
   10    8    7    5        3       0.000   0.000   0.000  -0.000  -0.000   0.000
   11   10    8    9        3       0.000   0.000   0.000  -0.000  -0.000   0.000
   11   14    8    7        3       0.000   0.000   0.000  -0.000  -0.000   0.000
   11   10    8    7        3       0.000   0.000   0.000  -0.000  -0.000   0.000
   11   14    8    9        3       0.000   0.000   0.000  -0.000  -0.000   0.000
   38   15   14    8        3       0.000   0.000   0.000  -0.000  -0.000   0.000
   38   15   14   11        3       0.000   0.000   0.000  -0.000  -0.000   0.000
   38   15   14   37        3       0.628   1.883   0.000  -2.510  -0.000   0.000
   24    4    5   12        3      -0.209  -0.628   0.000   0.837  -0.000   0.000
   28    6    5   12        3      -0.209  -0.628   0.000   0.837  -0.000   0.000
   27    6    5   12        3      -0.209  -0.628   0.000   0.837  -0.000   0.000
   30    7    5   12        3      -0.209  -0.628   0.000   0.837  -0.000   0.000
   29    7    5   12        3      -0.209  -0.628   0.000   0.837  -0.000   0.000
   26    6    5   12        3      -0.209  -0.628   0.000   0.837  -0.000   0.000
   25    4    5   12        3      -0.209  -0.628   0.000   0.837  -0.000   0.000
   28    6    5    7        3       0.628   1.883   0.000  -2.510  -0.000   0.000
   25    4    5    7        3       0.628   1.883   0.000  -2.510  -0.000   0.000
   25    4    2    3        3       0.628   1.883   0.000  -2.510  -0.000   0.000
   29    7    5    6        3       0.628   1.883   0.000  -2.510  -0.000   0.000
   30    7    5    6        3       0.628   1.883   0.000  -2.510  -0.000   0.000
   25    4    2    1        3       0.628   1.883   0.000  -2.510  -0.000   0.000
   17    1    2    4        3       0.628   1.883   0.000  -2.510  -0.000   0.000
   18    1    2    3        3       0.628   1.883   0.000  -2.510  -0.000   0.000
   27    6    5    7        3       0.628   1.883   0.000  -2.510  -0.000   0.000
   21    3    2    4        3       0.628   1.883   0.000  -2.510  -0.000   0.000
   27    6    5    4        3       0.628   1.883   0.000  -2.510  -0.000   0.000
   24    4    2    1        3       0.628   1.883   0.000  -2.510  -0.000   0.000
   24    4    5    6        3       0.628   1.883   0.000  -2.510  -0.000   0.000
   22    3    2    4        3       0.628   1.883   0.000  -2.510  -0.000   0.000
   20    2    4    5        3       0.628   1.883   0.000  -2.510  -0.000   0.000
   26    6    5    7        3       0.628   1.883   0.000  -2.510  -0.000   0.000
   23    3    2    1        3       0.628   1.883   0.000  -2.510  -0.000   0.000
   30    7    5    4        3       0.628   1.883   0.000  -2.510  -0.000   0.000
   29    7    5    4        3       0.628   1.883   0.000  -2.510  -0.000   0.000
   19    1    2    4        3       0.628   1.883   0.000  -2.510  -0.000   0.000
   24    4    2    3        3       0.628   1.883   0.000  -2.510  -0.000   0.000
   19    1    2    3        3       0.628   1.883   0.000  -2.510  -0.000   0.000
   28    6    5    4        3       0.628   1.883   0.000  -2.510  -0.000   0.000
   21    3    2    1        3       0.628   1.883   0.000  -2.510  -0.000   0.000
   26    6    5    4        3       0.628   1.883   0.000  -2.510  -0.000   0.000
   25    4    5    6        3       0.628   1.883   0.000  -2.510  -0.000   0.000
   23    3    2    4        3       0.628   1.883   0.000  -2.510  -0.000   0.000
   17    1    2    3        3       0.628   1.883   0.000  -2.510  -0.000   0.000
   22    3    2    1        3       0.628   1.883   0.000  -2.510  -0.000   0.000
   24    4    5    7        3       0.628   1.883   0.000  -2.510  -0.000   0.000
   18    1    2    4        3       0.628   1.883   0.000  -2.510  -0.000   0.000
   25    4    2   20        3       0.628   1.883   0.000  -2.510  -0.000   0.000
   20    2    1   18        3       0.628   1.883   0.000  -2.510  -0.000   0.000
   21    3    2   20        3       0.628   1.883   0.000  -2.510  -0.000   0.000
   20    2    1   17        3       0.628   1.883   0.000  -2.510  -0.000   0.000
   22    3    2   20        3       0.628   1.883   0.000  -2.510  -0.000   0.000
   23    3    2   20        3       0.628   1.883   0.000  -2.510  -0.000   0.000
   24    4    2   20        3       0.628   1.883   0.000  -2.510  -0.000   0.000
   20    2    1   19        3       0.628   1.883   0.000  -2.510  -0.000   0.000
   30    7    8    9        3       0.628   1.883   0.000  -2.510  -0.000   0.000
   31    9    8    7        3       0.628   1.883   0.000  -2.510  -0.000   0.000
   33    9    8    7        3       0.628   1.883   0.000  -2.510  -0.000   0.000
   29    7    8    9        3       0.628   1.883   0.000  -2.510  -0.000   0.000
   32    9    8    7        3       0.628   1.883   0.000  -2.510  -0.000   0.000
   30    7    8   14        3       0.628   1.883   0.000  -2.510  -0.000   0.000
   33    9    8   10        3       0.628   1.883   0.000  -2.510  -0.000   0.000
   29    7    8   14        3       0.628   1.883   0.000  -2.510  -0.000   0.000
   31    9    8   10        3       0.628   1.883   0.000  -2.510  -0.000   0.000
   30    7    8   10        3       0.628   1.883   0.000  -2.510  -0.000   0.000
   32    9    8   10        3       0.628   1.883   0.000  -2.510  -0.000   0.000
   33    9    8   14        3       0.628   1.883   0.000  -2.510  -0.000   0.000
   29    7    8   10        3       0.628   1.883   0.000  -2.510  -0.000   0.000
   32    9    8   14        3       0.628   1.883   0.000  -2.510  -0.000   0.000
   31    9    8   14        3       0.628   1.883   0.000  -2.510  -0.000   0.000
   36   11   12    5        3       0.575   1.726   0.000  -2.301  -0.000   0.000
   36   11   12   13        3       0.000   0.000   0.000  -0.000  -0.000   0.000
   37   14   15   16        3       0.000   0.000   0.000  -0.000  -0.000   0.000
   35   10   11   12        3       0.000   0.000   0.000  -0.000  -0.000   0.000
   34   10   11   12        3       0.000   0.000   0.000  -0.000  -0.000   0.000
   37   14   11   12        3       0.000   0.000   0.000  -0.000  -0.000   0.000
   36   11   14   15        3       0.000   0.000   0.000  -0.000  -0.000   0.000
   37   14    8    9        3       0.000   0.000   0.000  -0.000  -0.000   0.000
   37   14    8    7        3       0.000   0.000   0.000  -0.000  -0.000   0.000
   34   10    8    7        3       0.000   0.000   0.000  -0.000  -0.000   0.000
   34   10    8    9        3       0.000   0.000   0.000  -0.000  -0.000   0.000
   35   10    8    7        3       0.000   0.000   0.000  -0.000  -0.000   0.000
   35   10    8    9        3       0.000   0.000   0.000  -0.000  -0.000   0.000
   35   10   11   14        3       0.000   0.000   0.000  -0.000  -0.000   0.000
   36   11   10    8        3       0.000   0.000   0.000  -0.000  -0.000   0.000
   36   11   14    8        3       0.000   0.000   0.000  -0.000  -0.000   0.000
   34   10    8   14        3       0.000   0.000   0.000  -0.000  -0.000   0.000
   37   14   11   10        3       0.000   0.000   0.000  -0.000  -0.000   0.000
   34   10   11   14        3       0.000   0.000   0.000  -0.000  -0.000   0.000
   37   14    8   10        3       0.000   0.000   0.000  -0.000  -0.000   0.000
   35   10    8   14        3       0.000   0.000   0.000  -0.000  -0.000   0.000
   36   11   10   35        3       0.000   0.000   0.000  -0.000  -0.000   0.000
   36   11   10   34        3       0.000   0.000   0.000  -0.000  -0.000   0.000
   37   14   11   36        3       0.000   0.000   0.000  -0.000  -0.000   0.000
   13   12    5    7        3       0.000   0.000   0.000  -0.000  -0.000   0.000
   13   12    5    4        3       0.000   0.000   0.000  -0.000  -0.000   0.000
   13   12    5    6        3       0.000   0.000   0.000  -0.000  -0.000   0.000
   13   12   11   10        3       0.000   0.000   0.000  -0.000  -0.000   0.000
   16   15   14    8        3       0.000   0.000   0.000  -0.000  -0.000   0.000
   16   15   14   11        3       0.000   0.000   0.000  -0.000  -0.000   0.000

[ pairs ]
     1     5    1
     3     5    1
     2     6    1
     2     7    1
     4     8    1
     6     8    1
     5     9    1
     2    12    1
     5    10    1
     4    11    1
     6    11    1
     4    13    1
     7    11    1
     6    13    1
     5    14    1
     9    11    1
     8    12    1
     7    13    1
     3    17    1
     4    17    1
     3    18    1
     7    15    1
     4    18    1
     3    19    1
     1    21    1
    10    13    1
     4    19    1
     1    22    1
     9    15    1
     8    16    1
     1    23    1
    10    15    1
     5    20    1
     4    21    1
     1    24    1
     4    22    1
     1    25    1
    13    14    1
    12    15    1
    11    16    1
     4    23    1
     3    24    1
     3    25    1
     6    24    1
     4    26    1
     7    24    1
     6    25    1
     4    27    1
     7    25    1
     4    28    1
     7    26    1
     4    29    1
     7    27    1
     4    30    1
     7    28    1
     6    29    1
    12    24    1
     6    30    1
    17    20    1
    12    25    1
    18    20    1
    12    26    1
     9    29    1
     7    31    1
    19    20    1
    12    27    1
    10    29    1
     9    30    1
     7    32    1
    12    28    1
    10    30    1
     7    33    1
    20    21    1
    12    29    1
    10    31    1
     7    34    1
     5    36    1
    20    22    1
    12    30    1
    10    32    1
     7    35    1
    20    23    1
    14    29    1
    10    33    1
     9    34    1
    20    24    1
    14    30    1
     9    35    1
     8    36    1
     7    37    1
    20    25    1
    14    31    1
    14    32    1
    12    34    1
     9    37    1
     8    38    1
    14    33    1
    12    35    1
    10    37    1
    14    34    1
    14    35    1
    13    36    1
    12    37    1
    11    38    1
    15    36    1
    16    37    1
    34    36    1
    35    36    1
    36    37    1
    37    38    1

