LIGPARGEN GENERATED GRO FILE
   38
    1UNK    C00    1   0.100   0.100   0.000
    1UNK    C01    2  -0.053   0.100   0.000
    1UNK    C02    3  -0.100   0.100   0.147
    1UNK    C03    4  -0.116   0.221  -0.074
    1UNK    C04    5  -0.105   0.232  -0.230
    1UNK    C05    6  -0.154   0.100  -0.294
    1UNK    C06    7  -0.200   0.347  -0.280
    1UNK    C07    8  -0.132   0.485  -0.297
    1UNK    C08    9  -0.235   0.596  -0.310
    1UNK    C09   10  -0.026   0.480  -0.412
    1UNK    C0A   11   0.066   0.417  -0.302
    1UNK    C0B   12   0.036   0.265  -0.281
    1UNK    O0C   13   0.117   0.176  -0.312
    1UNK    C0D   14  -0.007   0.514  -0.203
    1UNK    C0E   15   0.047   0.659  -0.191
    1UNK    O0F   16  -0.002   0.747  -0.121
    1UNK    H0G   17   0.138   0.016   0.059
    1UNK    H0H   18   0.140   0.192   0.044
    1UNK    H0I   19   0.141   0.088  -0.100
    1UNK    H0J   20  -0.088   0.007  -0.045
    1UNK    H0K   21  -0.058   0.185   0.202
    1UNK    H0M   22  -0.068   0.008   0.197
    1UNK    H0N   23  -0.209   0.105   0.153
    1UNK    H0O   24  -0.078   0.311  -0.025
    1UNK    H0P   25  -0.223   0.218  -0.050
    1UNK    H0Q   26  -0.258   0.079  -0.266
    1UNK    H0R   27  -0.092   0.014  -0.264
    1UNK    H0S   28  -0.148   0.105  -0.403
    1UNK    H0T   29  -0.286   0.356  -0.212
    1UNK    H0U   30  -0.243   0.319  -0.377
    1UNK    H0V   31  -0.302   0.577  -0.396
    1UNK    H0W   32  -0.189   0.694  -0.327
    1UNK    H0X   33  -0.297   0.603  -0.220
    1UNK    H0Y   34   0.008   0.577  -0.450
    1UNK    H0Z   35  -0.050   0.416  -0.497
    1UNK    H10   36   0.173   0.436  -0.317
    1UNK    H11   37  -0.017   0.475  -0.102
    1UNK    H12   38   0.137   0.680  -0.251
   1.00000   1.00000   1.00000

