LIGPARGEN GENERATED GRO FILE
   37
    1UNK    C00    1   0.100   0.100   0.000
    1UNK    C01    2  -0.053   0.100   0.000
    1UNK    C02    3  -0.120   0.100   0.141
    1UNK    C03    4  -0.083  -0.026   0.210
    1UNK    N04    5  -0.053  -0.125   0.263
    1UNK    C05    6  -0.073   0.219   0.229
    1UNK    C06    7  -0.110   0.357   0.178
    1UNK    C07    8  -0.274   0.100   0.117
    1UNK    C08    9  -0.360   0.099   0.244
    1UNK    C09   10  -0.511   0.099   0.216
    1UNK    C0A   11  -0.563  -0.022   0.136
    1UNK    C0B   12  -0.537  -0.148   0.206
    1UNK    N0C   13  -0.515  -0.248   0.262
    1UNK    C0D   14  -0.712  -0.010   0.111
    1UNK    O0E   15  -0.782   0.083   0.149
    1UNK    O0F   16  -0.756  -0.115   0.035
    1UNK    C0G   17  -0.896  -0.111   0.007
    1UNK    H0H   18   0.137   0.081  -0.101
    1UNK    H0I   19   0.141   0.022   0.065
    1UNK    H0J   20   0.140   0.197   0.032
    1UNK    H0K   21  -0.086   0.011  -0.056
    1UNK    H0M   22  -0.087   0.186  -0.058
    1UNK    H0N   23   0.036   0.215   0.242
    1UNK    H0O   24  -0.114   0.208   0.331
    1UNK    H0P   25  -0.080   0.372   0.074
    1UNK    H0Q   26  -0.060   0.434   0.238
    1UNK    H0R   27  -0.218   0.375   0.185
    1UNK    H0S   28  -0.299   0.011   0.058
    1UNK    H0T   29  -0.302   0.186   0.056
    1UNK    H0U   30  -0.338   0.189   0.304
    1UNK    H0V   31  -0.335   0.014   0.308
    1UNK    H0W   32  -0.537   0.191   0.162
    1UNK    H0X   33  -0.564   0.104   0.312
    1UNK    H0Y   34  -0.515  -0.022   0.037
    1UNK    H0Z   35  -0.921  -0.203  -0.047
    1UNK    H10   36  -0.919  -0.026  -0.057
    1UNK    H11   37  -0.954  -0.108   0.100
   1.00000   1.00000   1.00000

