LIGPARGEN GENERATED GRO FILE
   33
    1UNK    C00    1   0.100   0.100   0.000
    1UNK    C01    2  -0.052   0.100   0.000
    1UNK    C02    3  -0.112   0.100   0.141
    1UNK    C03    4  -0.083   0.225   0.223
    1UNK    C04    5  -0.137   0.218   0.367
    1UNK    C05    6  -0.109   0.085   0.439
    1UNK    C06    7  -0.228  -0.012   0.444
    1UNK    C07    8  -0.281  -0.075   0.313
    1UNK    C08    9  -0.194  -0.189   0.257
    1UNK    C09   10  -0.249  -0.249   0.128
    1UNK    C0A   11  -0.336   0.028   0.216
    1UNK    O0B   12  -0.456   0.056   0.217
    1UNK    O0C   13  -0.255   0.086   0.126
    1UNK    H0D   14   0.138   0.079  -0.101
    1UNK    H0E   15   0.139   0.023   0.067
    1UNK    H0F   16   0.140   0.197   0.032
    1UNK    H0G   17  -0.087   0.009  -0.052
    1UNK    H0H   18  -0.091   0.184  -0.058
    1UNK    H0I   19  -0.069   0.015   0.191
    1UNK    H0J   20  -0.127   0.313   0.174
    1UNK    H0K   21   0.025   0.242   0.228
    1UNK    H0M   22  -0.244   0.241   0.368
    1UNK    H0N   23  -0.089   0.299   0.423
    1UNK    H0O   24  -0.085   0.110   0.543
    1UNK    H0P   25  -0.019   0.036   0.400
    1UNK    H0Q   26  -0.311   0.041   0.492
    1UNK    H0R   27  -0.201  -0.093   0.512
    1UNK    H0S   28  -0.372  -0.129   0.346
    1UNK    H0T   29  -0.190  -0.270   0.332
    1UNK    H0U   30  -0.090  -0.161   0.242
    1UNK    H0V   31  -0.340  -0.307   0.147
    1UNK    H0W   32  -0.175  -0.317   0.083
    1UNK    H0X   33  -0.273  -0.173   0.053
   1.00000   1.00000   1.00000

