LIGPARGEN GENERATED GRO FILE
   39
    1UNK    C00    1   0.100   0.100   0.000
    1UNK    C01    2  -0.052   0.100   0.000
    1UNK    C02    3  -0.107   0.100   0.143
    1UNK    C03    4  -0.259   0.106   0.145
    1UNK    O04    5  -0.318  -0.010   0.087
    1UNK    S05    6  -0.480  -0.002   0.068
    1UNK    O06    7  -0.540   0.004   0.199
    1UNK    O07    8  -0.505   0.100  -0.032
    1UNK    C08    9  -0.515  -0.166  -0.006
    1UNK    C09   10  -0.458  -0.278   0.084
    1UNK    C0A   11  -0.474  -0.419   0.027
    1UNK    C0B   12  -0.668  -0.181  -0.024
    1UNK    C0C   13  -0.733  -0.076  -0.115
    1UNK    S0D   14  -0.909  -0.101  -0.130
    1UNK    C0E   15  -0.958   0.031  -0.238
    1UNK    O0F   16  -0.930  -0.226  -0.201
    1UNK    O0G   17  -0.969  -0.077  -0.001
    1UNK    H0H   18   0.138   0.100  -0.103
    1UNK    H0I   19   0.139   0.011   0.051
    1UNK    H0J   20   0.139   0.189   0.051
    1UNK    H0K   21  -0.088   0.012  -0.054
    1UNK    H0M   22  -0.088   0.189  -0.054
    1UNK    H0N   23  -0.068   0.187   0.197
    1UNK    H0O   24  -0.073   0.010   0.194
    1UNK    H0P   25  -0.293   0.196   0.092
    1UNK    H0Q   26  -0.293   0.114   0.249
    1UNK    H0R   27  -0.465  -0.167  -0.103
    1UNK    H0S   28  -0.506  -0.275   0.182
    1UNK    H0T   29  -0.351  -0.262   0.101
    1UNK    H0U   30  -0.579  -0.444   0.007
    1UNK    H0V   31  -0.437  -0.493   0.098
    1UNK    H0W   32  -0.418  -0.430  -0.067
    1UNK    H0X   33  -0.717  -0.178   0.074
    1UNK    H0Y   34  -0.690  -0.279  -0.067
    1UNK    H0Z   35  -0.690  -0.079  -0.215
    1UNK    H10   36  -0.724   0.025  -0.074
    1UNK    H11   37  -0.909   0.018  -0.335
    1UNK    H12   38  -0.928   0.126  -0.193
    1UNK    H13   39  -1.066   0.028  -0.250
   1.00000   1.00000   1.00000

