
;
; GENERATED BY LigParGen Server
; Jorgensen Lab @ Yale University 
;
[ atomtypes ]
  opls_818  H818     1.0080     0.000    A    2.50000E-01   1.25520E-01
  opls_814  C814    12.0110     0.000    A    3.50000E-01   2.76144E-01
  opls_824  H824     1.0080     0.000    A    2.50000E-01   1.25520E-01
  opls_816  O816    15.9990     0.000    A    2.96000E-01   7.11280E-01
  opls_807  O807    15.9990     0.000    A    2.96000E-01   7.11280E-01
  opls_836  H836     1.0080     0.000    A    2.50000E-01   1.25520E-01
  opls_805  S805    32.0600     0.000    A    3.55000E-01   1.04600E+00
  opls_828  H828     1.0080     0.000    A    2.50000E-01   1.25520E-01
  opls_812  C812    12.0110     0.000    A    3.50000E-01   2.76144E-01
  opls_802  C802    12.0110     0.000    A    3.50000E-01   2.76144E-01
  opls_827  H827     1.0080     0.000    A    2.50000E-01   1.25520E-01
  opls_809  C809    12.0110     0.000    A    3.50000E-01   2.76144E-01
  opls_838  H838     1.0080     0.000    A    2.50000E-01   1.25520E-01
  opls_822  H822     1.0080     0.000    A    2.50000E-01   1.25520E-01
  opls_803  C803    12.0110     0.000    A    3.50000E-01   2.76144E-01
  opls_825  H825     1.0080     0.000    A    2.50000E-01   1.25520E-01
  opls_830  H830     1.0080     0.000    A    2.50000E-01   1.25520E-01
  opls_821  H821     1.0080     0.000    A    2.50000E-01   1.25520E-01
  opls_820  H820     1.0080     0.000    A    2.50000E-01   1.25520E-01
  opls_837  H837     1.0080     0.000    A    2.50000E-01   1.25520E-01
  opls_829  H829     1.0080     0.000    A    2.50000E-01   1.25520E-01
  opls_834  H834     1.0080     0.000    A    2.50000E-01   1.25520E-01
  opls_831  H831     1.0080     0.000    A    2.50000E-01   1.25520E-01
  opls_832  H832     1.0080     0.000    A    2.50000E-01   1.25520E-01
  opls_800  C800    12.0110     0.000    A    3.50000E-01   2.76144E-01
  opls_811  C811    12.0110     0.000    A    3.50000E-01   2.76144E-01
  opls_823  H823     1.0080     0.000    A    2.50000E-01   1.25520E-01
  opls_813  S813    32.0600     0.000    A    3.55000E-01   1.04600E+00
  opls_826  H826     1.0080     0.000    A    2.50000E-01   1.25520E-01
  opls_835  H835     1.0080     0.000    A    2.50000E-01   1.25520E-01
  opls_819  H819     1.0080     0.000    A    2.50000E-01   1.25520E-01
  opls_810  C810    12.0110     0.000    A    3.50000E-01   2.76144E-01
  opls_833  H833     1.0080     0.000    A    2.50000E-01   1.25520E-01
  opls_801  C801    12.0110     0.000    A    3.50000E-01   2.76144E-01
  opls_808  C808    12.0110     0.000    A    3.50000E-01   2.76144E-01
  opls_817  H817     1.0080     0.000    A    2.50000E-01   1.25520E-01
  opls_815  O815    15.9990     0.000    A    2.96000E-01   7.11280E-01
  opls_804  O804    15.9990     0.000    A    2.90000E-01   5.85760E-01
  opls_806  O806    15.9990     0.000    A    2.96000E-01   7.11280E-01
[ moleculetype ]
; Name               nrexcl
UNK                   3
[ atoms ]
;   nr       type  resnr residue  atom   cgnr     charge       mass  
     1   opls_800      1    UNK   C00      1    -0.2404    12.0110 
     2   opls_801      1    UNK   C01      1      -0.18    12.0110 
     3   opls_802      1    UNK   C02      1    -0.1685    12.0110 
     4   opls_803      1    UNK   C03      1     0.0781    12.0110 
     5   opls_804      1    UNK   O04      1    -0.5502    15.9990 
     6   opls_805      1    UNK   S05      1     1.3521    32.0600 
     7   opls_806      1    UNK   O06      1    -0.5766    15.9990 
     8   opls_807      1    UNK   O07      1    -0.5766    15.9990 
     9   opls_808      1    UNK   C08      1    -0.3575    12.0110 
    10   opls_809      1    UNK   C09      1    -0.1546    12.0110 
    11   opls_810      1    UNK   C0A      1    -0.2308    12.0110 
    12   opls_811      1    UNK   C0B      1     -0.121    12.0110 
    13   opls_812      1    UNK   C0C      1    -0.5361    12.0110 
    14   opls_813      1    UNK   S0D      1     1.3025    32.0600 
    15   opls_814      1    UNK   C0E      1    -0.5739    12.0110 
    16   opls_815      1    UNK   O0F      1    -0.5607    15.9990 
    17   opls_816      1    UNK   O0G      1    -0.5607    15.9990 
    18   opls_817      1    UNK   H0H      1     0.0833     1.0080 
    19   opls_818      1    UNK   H0I      1     0.0833     1.0080 
    20   opls_819      1    UNK   H0J      1     0.0833     1.0080 
    21   opls_820      1    UNK   H0K      1     0.0977     1.0080 
    22   opls_821      1    UNK   H0M      1     0.0977     1.0080 
    23   opls_822      1    UNK   H0N      1     0.1107     1.0080 
    24   opls_823      1    UNK   H0O      1     0.1107     1.0080 
    25   opls_824      1    UNK   H0P      1     0.1067     1.0080 
    26   opls_825      1    UNK   H0Q      1     0.1067     1.0080 
    27   opls_826      1    UNK   H0R      1     0.1674     1.0080 
    28   opls_827      1    UNK   H0S      1     0.1119     1.0080 
    29   opls_828      1    UNK   H0T      1     0.1119     1.0080 
    30   opls_829      1    UNK   H0U      1     0.0895     1.0080 
    31   opls_830      1    UNK   H0V      1     0.0895     1.0080 
    32   opls_831      1    UNK   H0W      1     0.0895     1.0080 
    33   opls_832      1    UNK   H0X      2     0.1339     1.0080 
    34   opls_833      1    UNK   H0Y      2     0.1339     1.0080 
    35   opls_834      1    UNK   H0Z      2     0.1708     1.0080 
    36   opls_835      1    UNK   H10      2     0.1708     1.0080 
    37   opls_836      1    UNK   H11      2     0.1686     1.0080 
    38   opls_837      1    UNK   H12      2     0.1686     1.0080 
    39   opls_838      1    UNK   H13      2     0.1686     1.0080 
[ bonds ]
    2     1     1      0.1529 224262.400
    3     2     1      0.1529 224262.400
    4     3     1      0.1529 224262.400
    5     4     1      0.1410 267776.000
    6     5     1      0.1660 245994.096
    7     6     1      0.1440 585760.000
    8     6     1      0.1440 585760.000
    9     6     1      0.1770 284512.000
   10     9     1      0.1529 224262.400
   11    10     1      0.1529 224262.400
   12     9     1      0.1529 224262.400
   13    12     1      0.1529 224262.400
   14    13     1      0.1770 284512.000
   15    14     1      0.1770 284512.000
   16    14     1      0.1440 585760.000
   17    14     1      0.1440 585760.000
   18     1     1      0.1090 284512.000
   19     1     1      0.1090 284512.000
   20     1     1      0.1090 284512.000
   21     2     1      0.1090 284512.000
   22     2     1      0.1090 284512.000
   23     3     1      0.1090 284512.000
   24     3     1      0.1090 284512.000
   25     4     1      0.1090 284512.000
   26     4     1      0.1090 284512.000
   27     9     1      0.1090 284512.000
   28    10     1      0.1090 284512.000
   29    10     1      0.1090 284512.000
   30    11     1      0.1090 284512.000
   31    11     1      0.1090 284512.000
   32    11     1      0.1090 284512.000
   33    12     1      0.1090 284512.000
   34    12     1      0.1090 284512.000
   35    13     1      0.1090 284512.000
   36    13     1      0.1090 284512.000
   37    15     1      0.1090 284512.000
   38    15     1      0.1090 284512.000
   39    15     1      0.1090 284512.000

[ angles ]
;  ai    aj    ak funct            c0            c1            c2            c3 
    1     2     3     1    112.700    488.273
    2     3     4     1    112.700    488.273
    3     4     5     1    109.500    418.400
    4     5     6     1    114.540    581.660
    5     6     7     1    104.360    658.311
    5     6     8     1    104.360    658.311
    5     6     9     1    104.360    658.311
    6     9    10     1    108.600    418.400
    9    10    11     1    112.700    488.273
    6     9    12     1    108.600    418.400
    9    12    13     1    112.700    488.273
   12    13    14     1    108.600    418.400
   13    14    15     1    102.000    518.816
   13    14    16     1    108.900    619.232
   13    14    17     1    108.900    619.232
    2     1    18     1    110.700    313.800
    2     1    19     1    110.700    313.800
    2     1    20     1    110.700    313.800
    1     2    21     1    110.700    313.800
    1     2    22     1    110.700    313.800
    2     3    23     1    110.700    313.800
    2     3    24     1    110.700    313.800
    3     4    25     1    110.700    313.800
    3     4    26     1    110.700    313.800
    6     9    27     1    109.500    292.880
    9    10    28     1    110.700    313.800
    9    10    29     1    110.700    313.800
   10    11    30     1    110.700    313.800
   10    11    31     1    110.700    313.800
   10    11    32     1    110.700    313.800
    9    12    33     1    110.700    313.800
    9    12    34     1    110.700    313.800
   12    13    35     1    110.700    313.800
   12    13    36     1    110.700    313.800
   14    15    37     1    109.500    292.880
   14    15    38     1    109.500    292.880
   14    15    39     1    109.500    292.880
    7     6     9     1    108.900    619.232
   30    11    32     1    107.800    276.144
   13    12    33     1    110.700    313.800
    3     2    21     1    110.700    313.800
   10     9    12     1    112.700    488.273
    5     4    26     1    109.500    292.880
   14    13    35     1    109.500    292.880
   11    10    29     1    110.700    313.800
   15    14    17     1    108.900    619.232
   35    13    36     1    107.800    276.144
   31    11    32     1    107.800    276.144
   25     4    26     1    107.800    276.144
   28    10    29     1    107.800    276.144
    4     3    23     1    110.700    313.800
    3     2    22     1    110.700    313.800
   23     3    24     1    107.800    276.144
   15    14    16     1    108.900    619.232
   16    14    17     1    119.000    870.272
   37    15    39     1    107.800    276.144
   38    15    39     1    107.800    276.144
   33    12    34     1    107.800    276.144
    5     4    25     1    109.500    292.880
    4     3    24     1    110.700    313.800
   11    10    28     1    110.700    313.800
   30    11    31     1    107.800    276.144
   14    13    36     1    109.500    292.880
    7     6     8     1    119.000    870.272
   18     1    20     1    107.800    276.144
   13    12    34     1    110.700    313.800
   37    15    38     1    107.800    276.144
    8     6     9     1    108.900    619.232
   18     1    19     1    107.800    276.144
   19     1    20     1    107.800    276.144
   12     9    27     1    110.700    313.800
   10     9    27     1    110.700    313.800
   21     2    22     1    107.800    276.144

[ dihedrals ]
; IMPROPER DIHEDRAL ANGLES 
;  ai    aj    ak    al funct            c0            c1            c2            c3            c4            c5

[ dihedrals ]
; PROPER DIHEDRAL ANGLES
;  ai    aj    ak    al funct            c0            c1            c2            c3            c4            c5
    4    3    2    1        3       2.301  -1.464   0.837  -1.674  -0.000   0.000
   12    9   10   11        3       2.301  -1.464   0.837  -1.674  -0.000   0.000
   13   12    9   10        3       2.301  -1.464   0.837  -1.674  -0.000   0.000
   11   10    9    6        3       2.784   0.278   0.828  -3.891  -0.000   0.000
   13   12    9    6        3       2.784   0.278   0.828  -3.891  -0.000   0.000
   10    9    6    5        3       0.000   0.000   0.000  -0.000  -0.000   0.000
   12    9    6    5        3       0.000   0.000   0.000  -0.000  -0.000   0.000
   10    9    6    7        3       0.000   0.000   0.000  -0.000  -0.000   0.000
   10    9    6    8        3       0.000   0.000   0.000  -0.000  -0.000   0.000
   12    9    6    8        3       0.000   0.000   0.000  -0.000  -0.000   0.000
   12    9    6    7        3       0.000   0.000   0.000  -0.000  -0.000   0.000
   15   14   13   12        3       0.000   0.000   0.000  -0.000  -0.000   0.000
    9    6    5    4        3       1.715   2.845   1.046  -5.607  -0.000   0.000
   27    9   10   11        3       0.628   1.883   0.000  -2.510  -0.000   0.000
   26    4    3    2        3       0.628   1.883   0.000  -2.510  -0.000   0.000
   35   13   12    9        3       0.628   1.883   0.000  -2.510  -0.000   0.000
   28   10    9   12        3       0.628   1.883   0.000  -2.510  -0.000   0.000
   34   12    9   10        3       0.628   1.883   0.000  -2.510  -0.000   0.000
   27    9   12   13        3       0.628   1.883   0.000  -2.510  -0.000   0.000
   29   10    9   12        3       0.628   1.883   0.000  -2.510  -0.000   0.000
   31   11   10    9        3       0.628   1.883   0.000  -2.510  -0.000   0.000
   19    1    2    3        3       0.628   1.883   0.000  -2.510  -0.000   0.000
   23    3    2    1        3       0.628   1.883   0.000  -2.510  -0.000   0.000
   21    2    3    4        3       0.628   1.883   0.000  -2.510  -0.000   0.000
   24    3    2    1        3       0.628   1.883   0.000  -2.510  -0.000   0.000
   20    1    2    3        3       0.628   1.883   0.000  -2.510  -0.000   0.000
   22    2    3    4        3       0.628   1.883   0.000  -2.510  -0.000   0.000
   25    4    3    2        3       0.628   1.883   0.000  -2.510  -0.000   0.000
   33   12    9   10        3       0.628   1.883   0.000  -2.510  -0.000   0.000
   36   13   12    9        3       0.628   1.883   0.000  -2.510  -0.000   0.000
   32   11   10    9        3       0.628   1.883   0.000  -2.510  -0.000   0.000
   30   11   10    9        3       0.628   1.883   0.000  -2.510  -0.000   0.000
   18    1    2    3        3       0.628   1.883   0.000  -2.510  -0.000   0.000
   35   13   12   33        3       0.628   1.883   0.000  -2.510  -0.000   0.000
   21    2    1   18        3       0.628   1.883   0.000  -2.510  -0.000   0.000
   29   10    9   27        3       0.628   1.883   0.000  -2.510  -0.000   0.000
   33   12    9   27        3       0.628   1.883   0.000  -2.510  -0.000   0.000
   36   13   12   34        3       0.628   1.883   0.000  -2.510  -0.000   0.000
   23    3    2   21        3       0.628   1.883   0.000  -2.510  -0.000   0.000
   22    2    1   19        3       0.628   1.883   0.000  -2.510  -0.000   0.000
   22    2    1   20        3       0.628   1.883   0.000  -2.510  -0.000   0.000
   30   11   10   29        3       0.628   1.883   0.000  -2.510  -0.000   0.000
   31   11   10   28        3       0.628   1.883   0.000  -2.510  -0.000   0.000
   28   10    9   27        3       0.628   1.883   0.000  -2.510  -0.000   0.000
   34   12    9   27        3       0.628   1.883   0.000  -2.510  -0.000   0.000
   21    2    1   20        3       0.628   1.883   0.000  -2.510  -0.000   0.000
   26    4    3   24        3       0.628   1.883   0.000  -2.510  -0.000   0.000
   30   11   10   28        3       0.628   1.883   0.000  -2.510  -0.000   0.000
   21    2    1   19        3       0.628   1.883   0.000  -2.510  -0.000   0.000
   22    2    1   18        3       0.628   1.883   0.000  -2.510  -0.000   0.000
   26    4    3   23        3       0.628   1.883   0.000  -2.510  -0.000   0.000
   25    4    3   24        3       0.628   1.883   0.000  -2.510  -0.000   0.000
   32   11   10   28        3       0.628   1.883   0.000  -2.510  -0.000   0.000
   24    3    2   22        3       0.628   1.883   0.000  -2.510  -0.000   0.000
   31   11   10   29        3       0.628   1.883   0.000  -2.510  -0.000   0.000
   25    4    3   23        3       0.628   1.883   0.000  -2.510  -0.000   0.000
   36   13   12   33        3       0.628   1.883   0.000  -2.510  -0.000   0.000
   23    3    2   22        3       0.628   1.883   0.000  -2.510  -0.000   0.000
   24    3    2   21        3       0.628   1.883   0.000  -2.510  -0.000   0.000
   32   11   10   29        3       0.628   1.883   0.000  -2.510  -0.000   0.000
   35   13   12   34        3       0.628   1.883   0.000  -2.510  -0.000   0.000
   23    3    4    5        3       0.979   2.937   0.000  -3.916  -0.000   0.000
   24    3    4    5        3       0.979   2.937   0.000  -3.916  -0.000   0.000
   33   12    9    6        3       0.946   2.837   0.000  -3.782  -0.000   0.000
   34   12   13   14        3       0.946   2.837   0.000  -3.782  -0.000   0.000
   28   10    9    6        3       0.946   2.837   0.000  -3.782  -0.000   0.000
   33   12   13   14        3       0.946   2.837   0.000  -3.782  -0.000   0.000
   34   12    9    6        3       0.946   2.837   0.000  -3.782  -0.000   0.000
   29   10    9    6        3       0.946   2.837   0.000  -3.782  -0.000   0.000
   25    4    5    6        3       1.590   4.770   0.000  -6.360  -0.000   0.000
   26    4    5    6        3       1.590   4.770   0.000  -6.360  -0.000   0.000
   38   15   14   13        3       0.732   2.197   0.000  -2.929  -0.000   0.000
   36   13   14   15        3       0.732   2.197   0.000  -2.929  -0.000   0.000
   35   13   14   15        3       0.732   2.197   0.000  -2.929  -0.000   0.000
   37   15   14   13        3       0.732   2.197   0.000  -2.929  -0.000   0.000
   39   15   14   13        3       0.732   2.197   0.000  -2.929  -0.000   0.000
   27    9    6    5        3       0.732   2.197   0.000  -2.929  -0.000   0.000
   27    9    6    8        3       0.732   2.197   0.000  -2.929  -0.000   0.000
   39   15   14   16        3       0.732   2.197   0.000  -2.929  -0.000   0.000
   35   13   14   17        3       0.732   2.197   0.000  -2.929  -0.000   0.000
   38   15   14   17        3       0.732   2.197   0.000  -2.929  -0.000   0.000
   35   13   14   16        3       0.732   2.197   0.000  -2.929  -0.000   0.000
   37   15   14   16        3       0.732   2.197   0.000  -2.929  -0.000   0.000
   38   15   14   16        3       0.732   2.197   0.000  -2.929  -0.000   0.000
   36   13   14   16        3       0.732   2.197   0.000  -2.929  -0.000   0.000
   36   13   14   17        3       0.732   2.197   0.000  -2.929  -0.000   0.000
   39   15   14   17        3       0.732   2.197   0.000  -2.929  -0.000   0.000
   37   15   14   17        3       0.732   2.197   0.000  -2.929  -0.000   0.000
   27    9    6    7        3       0.732   2.197   0.000  -2.929  -0.000   0.000
    5    4    3    2        3       2.874   0.582   2.092  -5.548  -0.000   0.000
   17   14   13   12        3       0.000   0.000   0.000  -0.000  -0.000   0.000
   16   14   13   12        3       0.000   0.000   0.000  -0.000  -0.000   0.000
    7    6    5    4        3       0.000   0.000   0.000  -0.000  -0.000   0.000
    8    6    5    4        3       0.000   0.000   0.000  -0.000  -0.000   0.000
   14   13   12    9        3       2.784   0.278   0.828  -3.891  -0.000   0.000
    6    5    4    3        3       1.715   2.845   1.046  -5.607  -0.000   0.000

[ pairs ]
     1     4    1
     2     5    1
     3     6    1
     4     7    1
     4     8    1
     4     9    1
     5    10    1
     7    10    1
     6    11    1
     5    12    1
     8    10    1
     7    12    1
     6    13    1
     8    12    1
     3    18    1
     3    19    1
    11    12    1
    10    13    1
     9    14    1
     3    20    1
     1    23    1
     4    21    1
     1    24    1
     4    22    1
    12    15    1
     2    25    1
    12    16    1
     5    23    1
     2    26    1
    12    17    1
     5    24    1
     6    25    1
     6    26    1
     5    27    1
     7    27    1
     6    28    1
     8    27    1
     6    29    1
    11    27    1
    18    21    1
     9    30    1
     6    33    1
    19    21    1
    18    22    1
    13    27    1
    12    28    1
     9    31    1
     6    34    1
    20    21    1
    19    22    1
    12    29    1
     9    32    1
    20    22    1
    10    33    1
    21    23    1
    10    34    1
     9    35    1
    22    23    1
    21    24    1
     9    36    1
    22    24    1
    14    33    1
    23    25    1
    14    34    1
    24    25    1
    23    26    1
    24    26    1
    15    35    1
    13    37    1
    16    35    1
    15    36    1
    13    38    1
    17    35    1
    16    36    1
    13    39    1
    17    36    1
    16    37    1
    17    37    1
    16    38    1
    27    28    1
    17    38    1
    16    39    1
    27    29    1
    17    39    1
    28    30    1
    29    30    1
    28    31    1
    29    31    1
    28    32    1
    27    33    1
    29    32    1
    27    34    1
    33    35    1
    34    35    1
    33    36    1
    34    36    1

