LIGPARGEN GENERATED GRO FILE
   48
    1UNK    C00    1   0.100   0.100   0.000
    1UNK    C01    2  -0.052   0.100   0.000
    1UNK    C02    3  -0.108   0.100   0.142
    1UNK    C03    4  -0.261   0.100   0.143
    1UNK    C04    5  -0.316   0.100   0.285
    1UNK    C05    6  -0.468   0.106   0.288
    1UNK    O06    7  -0.536   0.093   0.185
    1UNK    C07    8  -0.533   0.135   0.424
    1UNK    C08    9  -0.544   0.288   0.427
    1UNK    C09   10  -0.666   0.052   0.441
    1UNK    C0A   11  -0.633  -0.100   0.420
    1UNK    C0B   12  -0.541  -0.163   0.525
    1UNK    C0C   13  -0.522  -0.312   0.501
    1UNK    N0D   14  -0.742   0.072   0.569
    1UNK    C0E   15  -0.782   0.211   0.595
    1UNK    C0F   16  -0.863  -0.013   0.581
    1UNK    C0G   17  -0.970   0.005   0.474
    1UNK    H0H   18   0.138   0.100  -0.103
    1UNK    H0I   19   0.139   0.011   0.051
    1UNK    H0J   20   0.139   0.189   0.051
    1UNK    H0K   21  -0.088   0.012  -0.054
    1UNK    H0M   22  -0.088   0.188  -0.054
    1UNK    H0N   23  -0.071   0.188   0.196
    1UNK    H0O   24  -0.071   0.012   0.196
    1UNK    H0P   25  -0.298   0.012   0.088
    1UNK    H0Q   26  -0.298   0.188   0.089
    1UNK    H0R   27  -0.277   0.187   0.339
    1UNK    H0S   28  -0.285   0.009   0.338
    1UNK    H0T   29  -0.462   0.105   0.502
    1UNK    H0U   30  -0.633   0.323   0.374
    1UNK    H0V   31  -0.458   0.336   0.378
    1UNK    H0W   32  -0.544   0.327   0.529
    1UNK    H0X   33  -0.732   0.081   0.358
    1UNK    H0Y   34  -0.588  -0.115   0.321
    1UNK    H0Z   35  -0.726  -0.158   0.414
    1UNK    H10   36  -0.581  -0.147   0.626
    1UNK    H11   37  -0.442  -0.115   0.522
    1UNK    H12   38  -0.617  -0.365   0.511
    1UNK    H13   39  -0.452  -0.354   0.575
    1UNK    H14   40  -0.482  -0.331   0.401
    1UNK    H15   41  -0.699   0.267   0.638
    1UNK    H16   42  -0.860   0.218   0.671
    1UNK    H17   43  -0.819   0.261   0.505
    1UNK    H18   44  -0.910   0.007   0.679
    1UNK    H19   45  -0.835  -0.119   0.588
    1UNK    H1A   46  -1.002   0.109   0.464
    1UNK    H1B   47  -1.058  -0.054   0.499
    1UNK    H1C   48  -0.935  -0.029   0.376
   1.00000   1.00000   1.00000

