
;
; GENERATED BY LigParGen Server
; Jorgensen Lab @ Yale University 
;
[ atomtypes ]
  opls_818  H818     1.0080     0.000    A    2.50000E-01   1.25520E-01
  opls_824  H824     1.0080     0.000    A    2.50000E-01   1.25520E-01
  opls_804  F804    18.9984     0.000    A    2.90000E-01   2.51040E-01
  opls_813  H813     1.0080     0.000    A    2.50000E-01   1.25520E-01
  opls_802  C802    12.0110     0.000    A    3.50000E-01   2.76144E-01
  opls_815  H815     1.0080     0.000    A    2.50000E-01   1.25520E-01
  opls_801  C801    12.0110     0.000    A    3.50000E-01   2.76144E-01
  opls_822  H822     1.0080     0.000    A    2.50000E-01   1.25520E-01
  opls_803  C803    12.0110     0.000    A    3.50000E-01   2.76144E-01
  opls_825  H825     1.0080     0.000    A    2.50000E-01   1.25520E-01
  opls_810  N810    14.0070     0.000    A    3.20000E-01   7.11280E-01
  opls_814  H814     1.0080     0.000    A    2.50000E-01   1.25520E-01
  opls_821  H821     1.0080     0.000    A    2.50000E-01   1.25520E-01
  opls_820  H820     1.0080     0.000    A    2.50000E-01   1.25520E-01
  opls_811  H811     1.0080     0.000    A    2.50000E-01   1.25520E-01
  opls_816  H816     1.0080     0.000    A    2.50000E-01   1.25520E-01
  opls_800  C800    12.0110     0.000    A    3.50000E-01   2.76144E-01
  opls_806  C806    12.0110     0.000    A    3.50000E-01   2.76144E-01
  opls_823  H823     1.0080     0.000    A    2.50000E-01   1.25520E-01
  opls_826  H826     1.0080     0.000    A    2.50000E-01   1.25520E-01
  opls_819  H819     1.0080     0.000    A    2.50000E-01   1.25520E-01
  opls_805  C805    12.0110     0.000    A    3.50000E-01   2.76144E-01
  opls_808  C808    12.0110     0.000    A    3.50000E-01   2.76144E-01
  opls_817  H817     1.0080     0.000    A    2.50000E-01   1.25520E-01
  opls_812  H812     1.0080     0.000    A    2.50000E-01   1.25520E-01
  opls_809  C809    12.0110     0.000    A    3.30000E-01   2.76144E-01
  opls_807  C807    12.0110     0.000    A    3.50000E-01   2.76144E-01
[ moleculetype ]
; Name               nrexcl
UNK                   3
[ atoms ]
;   nr       type  resnr residue  atom   cgnr     charge       mass  
     1   opls_800      1    UNK   C00      1    -0.2396    12.0110 
     2   opls_801      1    UNK   C01      1    -0.1779    12.0110 
     3   opls_802      1    UNK   C02      1    -0.2043    12.0110 
     4   opls_803      1    UNK   C03      1     0.1317    12.0110 
     5   opls_804      1    UNK   F04      1    -0.1827    18.9984 
     6   opls_805      1    UNK   C05      1    -0.2087    12.0110 
     7   opls_806      1    UNK   C06      1    -0.2368    12.0110 
     8   opls_807      1    UNK   C07      1    -0.2077    12.0110 
     9   opls_808      1    UNK   C08      1    -0.0388    12.0110 
    10   opls_809      1    UNK   C09      1     0.1268    12.0110 
    11   opls_810      1    UNK   N0A      1    -0.3912    14.0070 
    12   opls_811      1    UNK   H0B      1     0.0836     1.0080 
    13   opls_812      1    UNK   H0C      1     0.0836     1.0080 
    14   opls_813      1    UNK   H0D      1     0.0836     1.0080 
    15   opls_814      1    UNK   H0E      1     0.0972     1.0080 
    16   opls_815      1    UNK   H0F      1     0.0972     1.0080 
    17   opls_816      1    UNK   H0G      1     0.1039     1.0080 
    18   opls_817      1    UNK   H0H      1     0.1039     1.0080 
    19   opls_818      1    UNK   H0I      1     0.1051     1.0080 
    20   opls_819      1    UNK   H0J      1     0.1051     1.0080 
    21   opls_820      1    UNK   H0K      1     0.0876     1.0080 
    22   opls_821      1    UNK   H0M      1     0.0876     1.0080 
    23   opls_822      1    UNK   H0N      1     0.0876     1.0080 
    24   opls_823      1    UNK   H0O      1     0.1171     1.0080 
    25   opls_824      1    UNK   H0P      1     0.1171     1.0080 
    26   opls_825      1    UNK   H0Q      1     0.1345     1.0080 
    27   opls_826      1    UNK   H0R      1     0.1345     1.0080 
[ bonds ]
    2     1     1      0.1529 224262.400
    3     2     1      0.1529 224262.400
    4     3     1      0.1529 224262.400
    5     4     1      0.1360 307105.600
    6     4     1      0.1529 224262.400
    7     6     1      0.1529 224262.400
    8     4     1      0.1529 224262.400
    9     8     1      0.1529 224262.400
   10     9     1      0.1470 326352.000
   11    10     1      0.1157 543920.000
   12     1     1      0.1090 284512.000
   13     1     1      0.1090 284512.000
   14     1     1      0.1090 284512.000
   15     2     1      0.1090 284512.000
   16     2     1      0.1090 284512.000
   17     3     1      0.1090 284512.000
   18     3     1      0.1090 284512.000
   19     6     1      0.1090 284512.000
   20     6     1      0.1090 284512.000
   21     7     1      0.1090 284512.000
   22     7     1      0.1090 284512.000
   23     7     1      0.1090 284512.000
   24     8     1      0.1090 284512.000
   25     8     1      0.1090 284512.000
   26     9     1      0.1090 284512.000
   27     9     1      0.1090 284512.000

[ angles ]
;  ai    aj    ak funct            c0            c1            c2            c3 
    1     2     3     1    112.700    488.273
    2     3     4     1    112.700    488.273
    3     4     5     1    109.500    418.400
    3     4     6     1    112.700    488.273
    4     6     7     1    112.700    488.273
    3     4     8     1    112.700    488.273
    4     8     9     1    112.700    488.273
    8     9    10     1    112.700    488.273
    9    10    11     1    180.000   1255.200
    2     1    12     1    110.700    313.800
    2     1    13     1    110.700    313.800
    2     1    14     1    110.700    313.800
    1     2    15     1    110.700    313.800
    1     2    16     1    110.700    313.800
    2     3    17     1    110.700    313.800
    2     3    18     1    110.700    313.800
    4     6    19     1    110.700    313.800
    4     6    20     1    110.700    313.800
    6     7    21     1    110.700    313.800
    6     7    22     1    110.700    313.800
    6     7    23     1    110.700    313.800
    4     8    24     1    110.700    313.800
    4     8    25     1    110.700    313.800
    8     9    26     1    110.700    313.800
    8     9    27     1    110.700    313.800
    5     4     6     1    109.500    418.400
    9     8    25     1    110.700    313.800
   13     1    14     1    107.800    276.144
   15     2    16     1    107.800    276.144
    3     2    15     1    110.700    313.800
   21     7    22     1    107.800    276.144
    9     8    24     1    110.700    313.800
   26     9    27     1    107.800    276.144
   22     7    23     1    107.800    276.144
   12     1    14     1    107.800    276.144
    3     2    16     1    110.700    313.800
    5     4     8     1    109.500    418.400
    4     3    18     1    110.700    313.800
    7     6    19     1    110.700    313.800
   12     1    13     1    107.800    276.144
    6     4     8     1    112.700    488.273
   19     6    20     1    107.800    276.144
   10     9    26     1    108.500    292.880
   24     8    25     1    107.800    276.144
   21     7    23     1    107.800    276.144
   17     3    18     1    107.800    276.144
    4     3    17     1    110.700    313.800
   10     9    27     1    108.500    292.880
    7     6    20     1    110.700    313.800

[ dihedrals ]
; IMPROPER DIHEDRAL ANGLES 
;  ai    aj    ak    al funct            c0            c1            c2            c3            c4            c5

[ dihedrals ]
; PROPER DIHEDRAL ANGLES
;  ai    aj    ak    al funct            c0            c1            c2            c3            c4            c5
    4    3    2    1        3       2.301  -1.464   0.837  -1.674  -0.000   0.000
    7    6    4    3        3       2.301  -1.464   0.837  -1.674  -0.000   0.000
    9    8    4    3        3       2.301  -1.464   0.837  -1.674  -0.000   0.000
    8    4    6    7        3       2.301  -1.464   0.837  -1.674  -0.000   0.000
    9    8    4    6        3       2.301  -1.464   0.837  -1.674  -0.000   0.000
    6    4    3    2        3       2.301  -1.464   0.837  -1.674  -0.000   0.000
    8    4    3    2        3       2.301  -1.464   0.837  -1.674  -0.000   0.000
    7    6    4    5        3      -0.209   1.883   1.674  -3.347  -0.000   0.000
    9    8    4    5        3      -0.209   1.883   1.674  -3.347  -0.000   0.000
   10    9    8    4        3      -2.720   0.000   2.720  -0.000  -0.000   0.000
    5    4    3    2        3      -0.209   1.883   1.674  -3.347  -0.000   0.000
   25    8    4    6        3       0.628   1.883   0.000  -2.510  -0.000   0.000
   20    6    4    8        3       0.628   1.883   0.000  -2.510  -0.000   0.000
   24    8    4    6        3       0.628   1.883   0.000  -2.510  -0.000   0.000
   19    6    4    8        3       0.628   1.883   0.000  -2.510  -0.000   0.000
   17    3    4    6        3       0.628   1.883   0.000  -2.510  -0.000   0.000
   22    7    6    4        3       0.628   1.883   0.000  -2.510  -0.000   0.000
   17    3    2    1        3       0.628   1.883   0.000  -2.510  -0.000   0.000
   18    3    4    6        3       0.628   1.883   0.000  -2.510  -0.000   0.000
   19    6    4    3        3       0.628   1.883   0.000  -2.510  -0.000   0.000
   20    6    4    3        3       0.628   1.883   0.000  -2.510  -0.000   0.000
   23    7    6    4        3       0.628   1.883   0.000  -2.510  -0.000   0.000
   26    9    8    4        3       0.628   1.883   0.000  -2.510  -0.000   0.000
   13    1    2    3        3       0.628   1.883   0.000  -2.510  -0.000   0.000
   27    9    8    4        3       0.628   1.883   0.000  -2.510  -0.000   0.000
   25    8    4    3        3       0.628   1.883   0.000  -2.510  -0.000   0.000
   24    8    4    3        3       0.628   1.883   0.000  -2.510  -0.000   0.000
   18    3    2    1        3       0.628   1.883   0.000  -2.510  -0.000   0.000
   14    1    2    3        3       0.628   1.883   0.000  -2.510  -0.000   0.000
   18    3    4    8        3       0.628   1.883   0.000  -2.510  -0.000   0.000
   12    1    2    3        3       0.628   1.883   0.000  -2.510  -0.000   0.000
   17    3    4    8        3       0.628   1.883   0.000  -2.510  -0.000   0.000
   21    7    6    4        3       0.628   1.883   0.000  -2.510  -0.000   0.000
   15    2    3    4        3       0.628   1.883   0.000  -2.510  -0.000   0.000
   16    2    3    4        3       0.628   1.883   0.000  -2.510  -0.000   0.000
   24    8    9   10        3       0.766   2.297   0.000  -3.063  -0.000   0.000
   25    8    9   10        3       0.766   2.297   0.000  -3.063  -0.000   0.000
   17    3    4    5        3       0.837   2.510   0.000  -3.347  -0.000   0.000
   25    8    4    5        3       0.837   2.510   0.000  -3.347  -0.000   0.000
   20    6    4    5        3       0.837   2.510   0.000  -3.347  -0.000   0.000
   19    6    4    5        3       0.837   2.510   0.000  -3.347  -0.000   0.000
   24    8    4    5        3       0.837   2.510   0.000  -3.347  -0.000   0.000
   18    3    4    5        3       0.837   2.510   0.000  -3.347  -0.000   0.000
   16    2    1   14        3       0.628   1.883   0.000  -2.510  -0.000   0.000
   26    9    8   24        3       0.628   1.883   0.000  -2.510  -0.000   0.000
   22    7    6   20        3       0.628   1.883   0.000  -2.510  -0.000   0.000
   15    2    1   13        3       0.628   1.883   0.000  -2.510  -0.000   0.000
   16    2    1   13        3       0.628   1.883   0.000  -2.510  -0.000   0.000
   26    9    8   25        3       0.628   1.883   0.000  -2.510  -0.000   0.000
   15    2    1   12        3       0.628   1.883   0.000  -2.510  -0.000   0.000
   21    7    6   19        3       0.628   1.883   0.000  -2.510  -0.000   0.000
   17    3    2   15        3       0.628   1.883   0.000  -2.510  -0.000   0.000
   27    9    8   25        3       0.628   1.883   0.000  -2.510  -0.000   0.000
   21    7    6   20        3       0.628   1.883   0.000  -2.510  -0.000   0.000
   22    7    6   19        3       0.628   1.883   0.000  -2.510  -0.000   0.000
   23    7    6   19        3       0.628   1.883   0.000  -2.510  -0.000   0.000
   16    2    1   12        3       0.628   1.883   0.000  -2.510  -0.000   0.000
   27    9    8   24        3       0.628   1.883   0.000  -2.510  -0.000   0.000
   15    2    1   14        3       0.628   1.883   0.000  -2.510  -0.000   0.000
   18    3    2   16        3       0.628   1.883   0.000  -2.510  -0.000   0.000
   23    7    6   20        3       0.628   1.883   0.000  -2.510  -0.000   0.000
   18    3    2   15        3       0.628   1.883   0.000  -2.510  -0.000   0.000
   17    3    2   16        3       0.628   1.883   0.000  -2.510  -0.000   0.000
   26    9   10   11        3       0.000   0.000   0.000  -0.000  -0.000   0.000
   27    9   10   11        3       0.000   0.000   0.000  -0.000  -0.000   0.000
   11   10    9    8        3       0.000   0.000   0.000  -0.000  -0.000   0.000

[ pairs ]
     1     4    1
     2     5    1
     2     6    1
     3     7    1
     2     8    1
     5     7    1
     3     9    1
     5     9    1
     4    10    1
     7     8    1
     6     9    1
     3    12    1
     3    13    1
     3    14    1
     1    17    1
     8    11    1
     4    15    1
     1    18    1
     4    16    1
     5    17    1
     3    19    1
     6    17    1
     5    18    1
     3    20    1
     6    18    1
     5    19    1
     8    17    1
     5    20    1
     4    21    1
     8    18    1
     4    22    1
    12    15    1
     8    19    1
     4    23    1
     3    24    1
    13    15    1
    12    16    1
     8    20    1
     3    25    1
    14    15    1
    13    16    1
     5    24    1
    14    16    1
     6    24    1
     5    25    1
     4    26    1
     6    25    1
     4    27    1
    15    17    1
    16    17    1
    15    18    1
    16    18    1
    10    24    1
    10    25    1
    11    26    1
    11    27    1
    19    21    1
    20    21    1
    19    22    1
    20    22    1
    19    23    1
    20    23    1
    24    26    1
    25    26    1
    24    27    1
    25    27    1

