LIGPARGEN GENERATED GRO FILE
   27
    1UNK    C00    1   0.100   0.100   0.000
    1UNK    C01    2  -0.052   0.100   0.000
    1UNK    C02    3  -0.108   0.100   0.143
    1UNK    C03    4  -0.263   0.100   0.151
    1UNK    F04    5  -0.305   0.216   0.091
    1UNK    C05    6  -0.328  -0.016   0.074
    1UNK    C06    7  -0.302  -0.154   0.131
    1UNK    C07    8  -0.305   0.109   0.299
    1UNK    C08    9  -0.456   0.119   0.317
    1UNK    C09   10  -0.495   0.128   0.464
    1UNK    N0A   11  -0.526   0.135   0.586
    1UNK    H0B   12   0.138   0.100  -0.103
    1UNK    H0C   13   0.139   0.011   0.051
    1UNK    H0D   14   0.139   0.189   0.051
    1UNK    H0E   15  -0.086   0.011  -0.055
    1UNK    H0F   16  -0.088   0.188  -0.054
    1UNK    H0G   17  -0.071   0.190   0.193
    1UNK    H0H   18  -0.068   0.014   0.198
    1UNK    H0I   19  -0.296  -0.013  -0.031
    1UNK    H0J   20  -0.437   0.000   0.068
    1UNK    H0K   21  -0.195  -0.172   0.148
    1UNK    H0M   22  -0.337  -0.231   0.061
    1UNK    H0N   23  -0.355  -0.169   0.225
    1UNK    H0O   24  -0.260   0.199   0.343
    1UNK    H0P   25  -0.266   0.023   0.355
    1UNK    H0Q   26  -0.507   0.031   0.276
    1UNK    H0R   27  -0.496   0.207   0.265
   1.00000   1.00000   1.00000

