LIGPARGEN GENERATED GRO FILE
   25
    1UNK    C00    1   0.100   0.100   0.000
    1UNK    S01    2  -0.081   0.100   0.000
    1UNK    C02    3  -0.108   0.100   0.180
    1UNK    C03    4  -0.258   0.100   0.210
    1UNK    C04    5  -0.289   0.100   0.360
    1UNK    C05    6  -0.236   0.222   0.439
    1UNK    C06    7  -0.288   0.354   0.385
    1UNK    S07    8  -0.285   0.198   0.615
    1UNK    C08    9  -0.200   0.339   0.692
    1UNK    H09   10   0.136   0.100  -0.103
    1UNK    H0A   11   0.138   0.011   0.050
    1UNK    H0B   12   0.138   0.189   0.050
    1UNK    H0C   13  -0.060   0.189   0.221
    1UNK    H0D   14  -0.061   0.011   0.223
    1UNK    H0E   15  -0.303   0.010   0.167
    1UNK    H0F   16  -0.306   0.186   0.162
    1UNK    H0G   17  -0.248   0.008   0.403
    1UNK    H0H   18  -0.398   0.095   0.371
    1UNK    H0I   19  -0.126   0.222   0.436
    1UNK    H0J   20  -0.398   0.359   0.391
    1UNK    H0K   21  -0.259   0.368   0.281
    1UNK    H0M   22  -0.247   0.440   0.440
    1UNK    H0N   23  -0.205   0.328   0.801
    1UNK    H0O   24  -0.250   0.433   0.666
    1UNK    H0P   25  -0.095   0.343   0.661
   1.00000   1.00000   1.00000

