
;
; GENERATED BY LigParGen Server
; Jorgensen Lab @ Yale University 
;
[ atomtypes ]
  opls_818  H818     1.0080     0.000    A    2.50000E-01   1.25520E-01
  opls_824  H824     1.0080     0.000    A    2.50000E-01   1.25520E-01
  opls_807  S807    32.0600     0.000    A    3.55000E-01   1.04600E+00
  opls_805  C805    12.0110     0.000    A    3.50000E-01   2.76144E-01
  opls_808  O808    15.9990     0.000    A    2.96000E-01   7.11280E-01
  opls_804  O804    15.9990     0.000    A    2.96000E-01   8.78640E-01
  opls_828  H828     1.0080     0.000    A    2.50000E-01   1.25520E-01
  opls_812  C812    12.0110     0.000    A    3.50000E-01   2.76144E-01
  opls_802  C802    12.0110     0.000    A    3.50000E-01   2.76144E-01
  opls_827  H827     1.0080     0.000    A    2.50000E-01   1.25520E-01
  opls_801  C801    12.0110     0.000    A    3.50000E-01   2.76144E-01
  opls_806  C806    12.0110     0.000    A    3.50000E-01   2.76144E-01
  opls_822  H822     1.0080     0.000    A    2.50000E-01   1.25520E-01
  opls_825  H825     1.0080     0.000    A    2.50000E-01   1.25520E-01
  opls_830  H830     1.0080     0.000    A    2.50000E-01   1.25520E-01
  opls_821  H821     1.0080     0.000    A    2.50000E-01   1.25520E-01
  opls_820  H820     1.0080     0.000    A    2.50000E-01   1.25520E-01
  opls_829  H829     1.0080     0.000    A    2.50000E-01   1.25520E-01
  opls_831  H831     1.0080     0.000    A    2.50000E-01   1.25520E-01
  opls_832  H832     1.0080     0.000    A    2.50000E-01   1.25520E-01
  opls_800  C800    12.0110     0.000    A    3.50000E-01   2.76144E-01
  opls_816  C816    12.0110     0.000    A    3.50000E-01   2.76144E-01
  opls_811  C811    12.0110     0.000    A    3.50000E-01   2.76144E-01
  opls_823  H823     1.0080     0.000    A    2.50000E-01   1.25520E-01
  opls_813  S813    32.0600     0.000    A    3.55000E-01   1.04600E+00
  opls_826  H826     1.0080     0.000    A    2.50000E-01   1.25520E-01
  opls_819  H819     1.0080     0.000    A    2.50000E-01   1.25520E-01
  opls_810  C810    12.0110     0.000    A    3.50000E-01   2.76144E-01
  opls_809  O809    15.9990     0.000    A    2.96000E-01   7.11280E-01
  opls_803  C803    12.0110     0.000    A    3.55000E-01   2.92880E-01
  opls_817  H817     1.0080     0.000    A    2.50000E-01   1.25520E-01
  opls_815  O815    15.9990     0.000    A    2.96000E-01   7.11280E-01
  opls_814  O814    15.9990     0.000    A    2.96000E-01   7.11280E-01
[ moleculetype ]
; Name               nrexcl
UNK                   3
[ atoms ]
;   nr       type  resnr residue  atom   cgnr     charge       mass  
     1   opls_800      1    UNK   C00      1    -0.2773    12.0110 
     2   opls_801      1    UNK   C01      1    -0.0614    12.0110 
     3   opls_802      1    UNK   C02      1    -0.2315    12.0110 
     4   opls_803      1    UNK   C03      1      0.397    12.0110 
     5   opls_804      1    UNK   O04      1    -0.3996    15.9990 
     6   opls_805      1    UNK   C05      1    -0.5119    12.0110 
     7   opls_806      1    UNK   C06      1    -0.2044    12.0110 
     8   opls_807      1    UNK   S07      1     1.3282    32.0600 
     9   opls_808      1    UNK   O08      1     -0.528    15.9990 
    10   opls_809      1    UNK   O09      1     -0.528    15.9990 
    11   opls_810      1    UNK   C0A      1    -0.4318    12.0110 
    12   opls_811      1    UNK   C0B      1    -0.1282    12.0110 
    13   opls_812      1    UNK   C0C      1    -0.5125    12.0110 
    14   opls_813      1    UNK   S0D      1     1.3346    32.0600 
    15   opls_814      1    UNK   O0E      1    -0.5343    15.9990 
    16   opls_815      1    UNK   O0F      1    -0.5343    15.9990 
    17   opls_816      1    UNK   C0G      1    -0.4228    12.0110 
    18   opls_817      1    UNK   H0H      1     0.1212     1.0080 
    19   opls_818      1    UNK   H0I      1     0.1212     1.0080 
    20   opls_819      1    UNK   H0J      1     0.1212     1.0080 
    21   opls_820      1    UNK   H0K      1     0.1191     1.0080 
    22   opls_821      1    UNK   H0M      1     0.1296     1.0080 
    23   opls_822      1    UNK   H0N      1     0.1296     1.0080 
    24   opls_823      1    UNK   H0O      1     0.2109     1.0080 
    25   opls_824      1    UNK   H0P      1     0.1102     1.0080 
    26   opls_825      1    UNK   H0Q      1     0.1102     1.0080 
    27   opls_826      1    UNK   H0R      1     0.1102     1.0080 
    28   opls_827      1    UNK   H0S      1     0.1639     1.0080 
    29   opls_828      1    UNK   H0T      1     0.1421     1.0080 
    30   opls_829      1    UNK   H0U      1     0.1421     1.0080 
    31   opls_830      1    UNK   H0V      1     0.1798     1.0080 
    32   opls_831      1    UNK   H0W      1     0.1798     1.0080 
    33   opls_832      1    UNK   H0X      2     0.1552     1.0080 
[ bonds ]
    2     1     1      0.1529 224262.400
    3     2     1      0.1529 224262.400
    4     3     1      0.1522 265265.600
    5     4     1      0.1229 476976.000
    6     4     1      0.1522 265265.600
    7     6     1      0.1529 224262.400
    8     6     1      0.1770 284512.000
    9     8     1      0.1440 585760.000
   10     8     1      0.1440 585760.000
   11     8     1      0.1770 284512.000
   12    11     1      0.1529 224262.400
   13    12     1      0.1529 224262.400
   14    13     1      0.1770 284512.000
   15    14     1      0.1440 585760.000
   16    14     1      0.1440 585760.000
   17     2     1      0.1529 224262.400
   18     1     1      0.1090 284512.000
   19     1     1      0.1090 284512.000
   20     1     1      0.1090 284512.000
   21     2     1      0.1090 284512.000
   22     3     1      0.1090 284512.000
   23     3     1      0.1090 284512.000
   24     6     1      0.1090 284512.000
   25     7     1      0.1090 284512.000
   26     7     1      0.1090 284512.000
   27     7     1      0.1090 284512.000
   28    11     1      0.1090 284512.000
   29    12     1      0.1090 284512.000
   30    12     1      0.1090 284512.000
   31    13     1      0.1090 284512.000
   32    13     1      0.1090 284512.000
   33    17     1      0.1090 284512.000
   17    11     1      0.1529 224262.400
   17    14     1      0.1770 284512.000

[ angles ]
;  ai    aj    ak funct            c0            c1            c2            c3 
    1     2     3     1    112.700    488.273
    2     3     4     1    111.100    527.184
    3     4     5     1    120.400    669.440
    3     4     6     1    116.000    585.760
    4     6     7     1    111.100    527.184
    4     6     8     1    110.580    432.207
    6     8     9     1    108.900    619.232
    6     8    10     1    108.900    619.232
    6     8    11     1    102.000    518.816
    8    11    12     1    108.600    418.400
   11    12    13     1    112.700    488.273
   12    13    14     1    108.600    418.400
   13    14    15     1    108.900    619.232
   13    14    16     1    108.900    619.232
    1     2    17     1    112.700    488.273
    2     1    18     1    110.700    313.800
    2     1    19     1    110.700    313.800
    2     1    20     1    110.700    313.800
    1     2    21     1    110.700    313.800
    2     3    22     1    110.700    313.800
    2     3    23     1    110.700    313.800
    4     6    24     1    109.500    292.880
    6     7    25     1    110.700    313.800
    6     7    26     1    110.700    313.800
    6     7    27     1    110.700    313.800
    8    11    28     1    109.500    292.880
   11    12    29     1    110.700    313.800
   11    12    30     1    110.700    313.800
   12    13    31     1    110.700    313.800
   12    13    32     1    110.700    313.800
    2    17    33     1    110.700    313.800
    5     4     6     1    120.400    669.440
   10     8    11     1    108.900    619.232
    7     6    24     1    110.700    313.800
   25     7    27     1    107.800    276.144
    3     2    21     1    110.700    313.800
    2    17    11     1    112.700    488.273
   14    13    32     1    109.500    292.880
    3     2    17     1    112.700    488.273
   26     7    27     1    107.800    276.144
    4     3    22     1    109.500    292.880
   15    14    17     1    108.900    619.232
   13    12    29     1    110.700    313.800
    9     8    10     1    119.000    870.272
   13    14    17     1    102.000    518.816
   14    17    33     1    109.500    292.880
    4     3    23     1    109.500    292.880
   16    14    17     1    108.900    619.232
   31    13    32     1    107.800    276.144
   15    14    16     1    119.000    870.272
   17    11    28     1    110.700    313.800
   11    17    33     1    110.700    313.800
   18     1    19     1    107.800    276.144
   17     2    21     1    110.700    313.800
   13    12    30     1    110.700    313.800
   14    13    31     1    109.500    292.880
   25     7    26     1    107.800    276.144
    7     6     8     1    108.600    418.400
   22     3    23     1    107.800    276.144
    9     8    11     1    108.900    619.232
   18     1    20     1    107.800    276.144
    8    11    17     1    108.600    418.400
   12    11    17     1    112.700    488.273
    8     6    24     1    109.500    292.880
    2    17    14     1    108.600    418.400
   19     1    20     1    107.800    276.144
   12    11    28     1    110.700    313.800
   11    17    14     1    108.600    418.400
   29    12    30     1    107.800    276.144

[ dihedrals ]
; IMPROPER DIHEDRAL ANGLES 
;  ai    aj    ak    al funct            c0            c1            c2            c3            c4            c5
     6     4     3     5    4        180.000     43.932     2  

[ dihedrals ]
; PROPER DIHEDRAL ANGLES
;  ai    aj    ak    al funct            c0            c1            c2            c3            c4            c5
    4    3    2    1        3      -4.960   6.286   1.310  -2.636  -0.000   0.000
    6    4    3    2        3       0.818  -7.906   0.602   6.485  -0.000   0.000
    7    6    4    3        3       0.818  -7.906   0.602   6.485  -0.000   0.000
    7    6    4    5        3       0.000   0.000   0.000  -0.000  -0.000   0.000
   17    2    3    4        3      -4.960   6.286   1.310  -2.636  -0.000   0.000
   12   11   17    2        3       2.301  -1.464   0.837  -1.674  -0.000   0.000
   11   17    2    3        3       2.301  -1.464   0.837  -1.674  -0.000   0.000
   17   11   12   13        3       2.301  -1.464   0.837  -1.674  -0.000   0.000
   11   17    2    1        3       2.301  -1.464   0.837  -1.674  -0.000   0.000
   13   12   11    8        3       2.784   0.278   0.828  -3.891  -0.000   0.000
   17   11    8    6        3       0.000   0.000   0.000  -0.000  -0.000   0.000
   12   11    8    6        3       0.000   0.000   0.000  -0.000  -0.000   0.000
   17   11    8   10        3       0.000   0.000   0.000  -0.000  -0.000   0.000
   12   11    8   10        3       0.000   0.000   0.000  -0.000  -0.000   0.000
   17   11    8    9        3       0.000   0.000   0.000  -0.000  -0.000   0.000
   12   11    8    9        3       0.000   0.000   0.000  -0.000  -0.000   0.000
   11    8    6    4        3       0.000   0.000   0.000  -0.000  -0.000   0.000
   11    8    6    7        3       0.000   0.000   0.000  -0.000  -0.000   0.000
   13   14   17   11        3       0.000   0.000   0.000  -0.000  -0.000   0.000
   13   14   17    2        3       0.000   0.000   0.000  -0.000  -0.000   0.000
   17   14   13   12        3       0.000   0.000   0.000  -0.000  -0.000   0.000
   22    3    4    6        3       0.575   1.726   0.000  -2.301  -0.000   0.000
   24    6    4    3        3       0.575   1.726   0.000  -2.301  -0.000   0.000
   23    3    4    6        3       0.575   1.726   0.000  -2.301  -0.000   0.000
   22    3    4    5        3       0.000   0.000   0.000  -0.000  -0.000   0.000
   23    3    4    5        3       0.000   0.000   0.000  -0.000  -0.000   0.000
   24    6    4    5        3       0.000   0.000   0.000  -0.000  -0.000   0.000
   26    7    6    4        3      -0.209  -0.628   0.000   0.837  -0.000   0.000
   21    2    3    4        3      -0.209  -0.628   0.000   0.837  -0.000   0.000
   27    7    6    4        3      -0.209  -0.628   0.000   0.837  -0.000   0.000
   25    7    6    4        3      -0.209  -0.628   0.000   0.837  -0.000   0.000
   28   11   12   13        3       0.628   1.883   0.000  -2.510  -0.000   0.000
   18    1    2   17        3       0.628   1.883   0.000  -2.510  -0.000   0.000
   33   17    2    3        3       0.628   1.883   0.000  -2.510  -0.000   0.000
   29   12   11   17        3       0.628   1.883   0.000  -2.510  -0.000   0.000
   21    2   17   11        3       0.628   1.883   0.000  -2.510  -0.000   0.000
   23    3    2    1        3       0.628   1.883   0.000  -2.510  -0.000   0.000
   18    1    2    3        3       0.628   1.883   0.000  -2.510  -0.000   0.000
   33   17    2    1        3       0.628   1.883   0.000  -2.510  -0.000   0.000
   33   17   11   12        3       0.628   1.883   0.000  -2.510  -0.000   0.000
   22    3    2    1        3       0.628   1.883   0.000  -2.510  -0.000   0.000
   19    1    2   17        3       0.628   1.883   0.000  -2.510  -0.000   0.000
   31   13   12   11        3       0.628   1.883   0.000  -2.510  -0.000   0.000
   28   11   17    2        3       0.628   1.883   0.000  -2.510  -0.000   0.000
   32   13   12   11        3       0.628   1.883   0.000  -2.510  -0.000   0.000
   23    3    2   17        3       0.628   1.883   0.000  -2.510  -0.000   0.000
   20    1    2   17        3       0.628   1.883   0.000  -2.510  -0.000   0.000
   22    3    2   17        3       0.628   1.883   0.000  -2.510  -0.000   0.000
   20    1    2    3        3       0.628   1.883   0.000  -2.510  -0.000   0.000
   30   12   11   17        3       0.628   1.883   0.000  -2.510  -0.000   0.000
   19    1    2    3        3       0.628   1.883   0.000  -2.510  -0.000   0.000
   25    7    6   24        3       0.628   1.883   0.000  -2.510  -0.000   0.000
   33   17   11   28        3       0.628   1.883   0.000  -2.510  -0.000   0.000
   29   12   11   28        3       0.628   1.883   0.000  -2.510  -0.000   0.000
   23    3    2   21        3       0.628   1.883   0.000  -2.510  -0.000   0.000
   21    2    1   19        3       0.628   1.883   0.000  -2.510  -0.000   0.000
   26    7    6   24        3       0.628   1.883   0.000  -2.510  -0.000   0.000
   30   12   11   28        3       0.628   1.883   0.000  -2.510  -0.000   0.000
   32   13   12   30        3       0.628   1.883   0.000  -2.510  -0.000   0.000
   31   13   12   29        3       0.628   1.883   0.000  -2.510  -0.000   0.000
   33   17    2   21        3       0.628   1.883   0.000  -2.510  -0.000   0.000
   31   13   12   30        3       0.628   1.883   0.000  -2.510  -0.000   0.000
   21    2    1   18        3       0.628   1.883   0.000  -2.510  -0.000   0.000
   21    2    1   20        3       0.628   1.883   0.000  -2.510  -0.000   0.000
   32   13   12   29        3       0.628   1.883   0.000  -2.510  -0.000   0.000
   22    3    2   21        3       0.628   1.883   0.000  -2.510  -0.000   0.000
   27    7    6   24        3       0.628   1.883   0.000  -2.510  -0.000   0.000
   27    7    6    8        3       0.946   2.837   0.000  -3.782  -0.000   0.000
   30   12   11    8        3       0.946   2.837   0.000  -3.782  -0.000   0.000
   28   11   17   14        3       0.946   2.837   0.000  -3.782  -0.000   0.000
   30   12   13   14        3       0.946   2.837   0.000  -3.782  -0.000   0.000
   29   12   13   14        3       0.946   2.837   0.000  -3.782  -0.000   0.000
   26    7    6    8        3       0.946   2.837   0.000  -3.782  -0.000   0.000
   29   12   11    8        3       0.946   2.837   0.000  -3.782  -0.000   0.000
   25    7    6    8        3       0.946   2.837   0.000  -3.782  -0.000   0.000
   21    2   17   14        3       0.946   2.837   0.000  -3.782  -0.000   0.000
   33   17   11    8        3       0.946   2.837   0.000  -3.782  -0.000   0.000
   32   13   14   17        3       0.732   2.197   0.000  -2.929  -0.000   0.000
   24    6    8   11        3       0.732   2.197   0.000  -2.929  -0.000   0.000
   31   13   14   17        3       0.732   2.197   0.000  -2.929  -0.000   0.000
   33   17   14   13        3       0.732   2.197   0.000  -2.929  -0.000   0.000
   28   11    8    6        3       0.732   2.197   0.000  -2.929  -0.000   0.000
   24    6    8    9        3       0.732   2.197   0.000  -2.929  -0.000   0.000
   33   17   14   16        3       0.732   2.197   0.000  -2.929  -0.000   0.000
   31   13   14   15        3       0.732   2.197   0.000  -2.929  -0.000   0.000
   28   11    8    9        3       0.732   2.197   0.000  -2.929  -0.000   0.000
   33   17   14   15        3       0.732   2.197   0.000  -2.929  -0.000   0.000
   24    6    8   10        3       0.732   2.197   0.000  -2.929  -0.000   0.000
   31   13   14   16        3       0.732   2.197   0.000  -2.929  -0.000   0.000
   28   11    8   10        3       0.732   2.197   0.000  -2.929  -0.000   0.000
   32   13   14   15        3       0.732   2.197   0.000  -2.929  -0.000   0.000
   32   13   14   16        3       0.732   2.197   0.000  -2.929  -0.000   0.000
    5    4    3    2        3       0.000   0.000   0.000  -0.000  -0.000   0.000
    9    8    6    4        3       0.000   0.000   0.000  -0.000  -0.000   0.000
   10    8    6    4        3       0.000   0.000   0.000  -0.000  -0.000   0.000
    9    8    6    7        3       0.000   0.000   0.000  -0.000  -0.000   0.000
   15   14   17    2        3       0.000   0.000   0.000  -0.000  -0.000   0.000
   16   14   17    2        3       0.000   0.000   0.000  -0.000  -0.000   0.000
   16   14   17   11        3       0.000   0.000   0.000  -0.000  -0.000   0.000
   16   14   13   12        3       0.000   0.000   0.000  -0.000  -0.000   0.000
   15   14   17   11        3       0.000   0.000   0.000  -0.000  -0.000   0.000
   10    8    6    7        3       0.000   0.000   0.000  -0.000  -0.000   0.000
   15   14   13   12        3       0.000   0.000   0.000  -0.000  -0.000   0.000
    8    6    4    3        3       2.784   0.278   0.828  -3.891  -0.000   0.000
    8    6    4    5        3       0.000   0.000   0.000  -0.000  -0.000   0.000
   14   17    2    1        3       2.784   0.278   0.828  -3.891  -0.000   0.000
   14   17   11   12        3       2.784   0.278   0.828  -3.891  -0.000   0.000
    8   11   17    2        3       2.784   0.278   0.828  -3.891  -0.000   0.000
   14   13   12   11        3       2.784   0.278   0.828  -3.891  -0.000   0.000
   14   17    2    3        3       2.784   0.278   0.828  -3.891  -0.000   0.000
   14   17   11    8        3       8.786  -10.878   2.092  -0.000  -0.000   0.000

[ pairs ]
     1     4    1
     2     5    1
     2     6    1
     3     7    1
     2     8    1
     3     8    1
     5     7    1
     1    11    1
     5     8    1
     4     9    1
     4    10    1
     3    11    1
     2    12    1
     4    11    1
     2    13    1
     1    14    1
     7     9    1
     7    10    1
     3    14    1
     2    15    1
     7    11    1
     6    12    1
     2    16    1
     9    12    1
     8    13    1
     4    17    1
     3    18    1
    10    12    1
     8    14    1
     3    19    1
     6    17    1
     3    20    1
     1    22    1
     1    23    1
     4    21    1
    11    15    1
     9    17    1
    12    15    1
    11    16    1
    10    17    1
     5    22    1
     3    24    1
    12    16    1
     6    22    1
     5    23    1
     6    23    1
     5    24    1
     4    25    1
     4    26    1
     2    28    1
     4    27    1
    11    21    1
     9    24    1
     8    25    1
    10    24    1
     8    26    1
     6    28    1
     1    33    1
    17    18    1
    14    21    1
    11    24    1
     8    27    1
    17    19    1
     3    33    1
    17    20    1
     9    28    1
     8    29    1
    10    28    1
     8    30    1
    18    21    1
    17    22    1
    19    21    1
    17    23    1
    20    21    1
    13    28    1
     8    33    1
    14    28    1
    11    31    1
    21    22    1
    14    29    1
    11    32    1
    21    23    1
    14    30    1
    12    33    1
    17    29    1
    15    31    1
    13    33    1
    17    30    1
    16    31    1
    15    32    1
    17    31    1
    16    32    1
    15    33    1
    24    25    1
    17    32    1
    16    33    1
    24    26    1
    24    27    1
    21    33    1
    28    29    1
    28    30    1
    29    31    1
    30    31    1
    29    32    1
    28    33    1
    30    32    1

