LIGPARGEN GENERATED GRO FILE
   33
    1UNK    C00    1   0.100   0.100   0.000
    1UNK    C01    2  -0.053   0.100   0.000
    1UNK    C02    3  -0.114   0.100   0.140
    1UNK    C03    4  -0.057   0.203   0.235
    1UNK    O04    5   0.024   0.168   0.322
    1UNK    C05    6  -0.107   0.345   0.231
    1UNK    C06    7  -0.253   0.355   0.273
    1UNK    S07    8  -0.072   0.424   0.076
    1UNK    O08    9   0.069   0.409   0.046
    1UNK    O09   10  -0.128   0.557   0.086
    1UNK    C0A   11  -0.166   0.341  -0.051
    1UNK    C0B   12  -0.170   0.431  -0.178
    1UNK    C0C   13  -0.172   0.343  -0.301
    1UNK    S0D   14  -0.063   0.210  -0.258
    1UNK    O0E   15   0.072   0.259  -0.260
    1UNK    O0F   16  -0.104   0.091  -0.330
    1UNK    C0G   17  -0.124   0.200  -0.092
    1UNK    H0H   18   0.140   0.048   0.088
    1UNK    H0I   19   0.144   0.200  -0.002
    1UNK    H0J   20   0.138   0.047  -0.088
    1UNK    H0K   21  -0.079   0.001  -0.041
    1UNK    H0M   22  -0.096   0.002   0.186
    1UNK    H0N   23  -0.223   0.110   0.136
    1UNK    H0O   24  -0.047   0.401   0.304
    1UNK    H0P   25  -0.320   0.302   0.205
    1UNK    H0Q   26  -0.285   0.460   0.277
    1UNK    H0R   27  -0.267   0.312   0.373
    1UNK    H0S   28  -0.268   0.337  -0.011
    1UNK    H0T   29  -0.080   0.494  -0.183
    1UNK    H0U   30  -0.256   0.499  -0.175
    1UNK    H0V   31  -0.137   0.393  -0.391
    1UNK    H0W   32  -0.272   0.300  -0.317
    1UNK    H0X   33  -0.222   0.151  -0.110
   1.00000   1.00000   1.00000

