LIGPARGEN GENERATED GRO FILE
   44
    1UNK    C00    1   0.100   0.100   0.000
    1UNK    C01    2  -0.052   0.100   0.000
    1UNK    C02    3  -0.108   0.100   0.143
    1UNK    C03    4  -0.265   0.100   0.152
    1UNK    C04    5  -0.314  -0.034   0.095
    1UNK    C05    6  -0.320   0.139   0.298
    1UNK    C06    7  -0.272   0.030   0.399
    1UNK    C07    8  -0.255   0.275   0.350
    1UNK    C08    9  -0.292   0.410   0.284
    1UNK    C09   10  -0.240   0.525   0.372
    1UNK    C0A   11  -0.237   0.432   0.143
    1UNK    C0B   12  -0.480   0.151   0.305
    1UNK    C0C   13  -0.562   0.028   0.264
    1UNK    C0D   14  -0.533   0.192   0.445
    1UNK    H0E   15   0.137   0.090  -0.102
    1UNK    H0F   16   0.139   0.016   0.059
    1UNK    H0G   17   0.140   0.193   0.041
    1UNK    H0H   18  -0.085   0.011  -0.055
    1UNK    H0I   19  -0.089   0.188  -0.054
    1UNK    H0J   20  -0.066   0.189   0.192
    1UNK    H0K   21  -0.069   0.013   0.197
    1UNK    H0M   22  -0.302   0.175   0.082
    1UNK    H0N   23  -0.303  -0.116   0.166
    1UNK    H0O   24  -0.261  -0.064   0.005
    1UNK    H0P   25  -0.418  -0.028   0.062
    1UNK    H0Q   26  -0.163   0.024   0.402
    1UNK    H0R   27  -0.310  -0.069   0.375
    1UNK    H0S   28  -0.304   0.053   0.501
    1UNK    H0T   29  -0.146   0.266   0.354
    1UNK    H0U   30  -0.282   0.283   0.457
    1UNK    H0V   31  -0.401   0.420   0.280
    1UNK    H0W   32  -0.131   0.533   0.365
    1UNK    H0X   33  -0.267   0.512   0.477
    1UNK    H0Y   34  -0.282   0.621   0.338
    1UNK    H0Z   35  -0.129   0.412   0.139
    1UNK    H10   36  -0.252   0.535   0.111
    1UNK    H11   37  -0.286   0.370   0.069
    1UNK    H12   38  -0.509   0.231   0.236
    1UNK    H13   39  -0.516  -0.066   0.295
    1UNK    H14   40  -0.579   0.027   0.156
    1UNK    H15   41  -0.663   0.030   0.308
    1UNK    H16   42  -0.513   0.116   0.520
    1UNK    H17   43  -0.642   0.207   0.441
    1UNK    H18   44  -0.492   0.288   0.479
   1.00000   1.00000   1.00000

