LIGPARGEN GENERATED GRO FILE
   26
    1UNK    C00    1   0.100   0.100   0.000
    1UNK    C01    2  -0.052   0.100   0.000
    1UNK    C02    3  -0.109   0.100   0.142
    1UNK    C03    4  -0.262   0.100   0.139
    1UNK    C04    5  -0.322   0.100   0.279
    1UNK    S05    6  -0.501   0.100   0.270
    1UNK    O06    7  -0.542   0.221   0.202
    1UNK    O07    8  -0.543  -0.031   0.222
    1UNK    C08    9  -0.550   0.114   0.441
    1UNK    C09   10  -0.701   0.116   0.455
    1UNK    H0A   11   0.138   0.100  -0.103
    1UNK    H0B   12   0.139   0.011   0.050
    1UNK    H0C   13   0.139   0.189   0.051
    1UNK    H0D   14  -0.088   0.012  -0.054
    1UNK    H0E   15  -0.088   0.188  -0.054
    1UNK    H0F   16  -0.073   0.189   0.196
    1UNK    H0G   17  -0.073   0.012   0.196
    1UNK    H0H   18  -0.297   0.012   0.083
    1UNK    H0I   19  -0.297   0.188   0.084
    1UNK    H0J   20  -0.292   0.190   0.334
    1UNK    H0K   21  -0.292   0.011   0.335
    1UNK    H0M   22  -0.507   0.207   0.480
    1UNK    H0N   23  -0.508   0.029   0.495
    1UNK    H0O   24  -0.745   0.200   0.400
    1UNK    H0P   25  -0.730   0.126   0.560
    1UNK    H0Q   26  -0.745   0.024   0.416
   1.00000   1.00000   1.00000

