
;
; GENERATED BY LigParGen Server
; Jorgensen Lab @ Yale University 
;
[ atomtypes ]
  opls_818  H818     1.0080     0.000    A    2.50000E-01   1.25520E-01
  opls_824  H824     1.0080     0.000    A    2.50000E-01   1.25520E-01
  opls_807  O807    15.9990     0.000    A    2.96000E-01   7.11280E-01
  opls_805  S805    32.0600     0.000    A    3.55000E-01   1.04600E+00
  opls_813  H813     1.0080     0.000    A    2.50000E-01   1.25520E-01
  opls_802  C802    12.0110     0.000    A    3.50000E-01   2.76144E-01
  opls_815  H815     1.0080     0.000    A    2.50000E-01   1.25520E-01
  opls_809  C809    12.0110     0.000    A    3.50000E-01   2.76144E-01
  opls_822  H822     1.0080     0.000    A    2.50000E-01   1.25520E-01
  opls_803  C803    12.0110     0.000    A    3.50000E-01   2.76144E-01
  opls_825  H825     1.0080     0.000    A    2.50000E-01   1.25520E-01
  opls_814  H814     1.0080     0.000    A    2.50000E-01   1.25520E-01
  opls_821  H821     1.0080     0.000    A    2.50000E-01   1.25520E-01
  opls_820  H820     1.0080     0.000    A    2.50000E-01   1.25520E-01
  opls_811  H811     1.0080     0.000    A    2.50000E-01   1.25520E-01
  opls_810  H810     1.0080     0.000    A    2.50000E-01   1.25520E-01
  opls_816  H816     1.0080     0.000    A    2.50000E-01   1.25520E-01
  opls_800  C800    12.0110     0.000    A    3.50000E-01   2.76144E-01
  opls_823  H823     1.0080     0.000    A    2.50000E-01   1.25520E-01
  opls_819  H819     1.0080     0.000    A    2.50000E-01   1.25520E-01
  opls_804  C804    12.0110     0.000    A    3.50000E-01   2.76144E-01
  opls_801  C801    12.0110     0.000    A    3.50000E-01   2.76144E-01
  opls_808  C808    12.0110     0.000    A    3.50000E-01   2.76144E-01
  opls_817  H817     1.0080     0.000    A    2.50000E-01   1.25520E-01
  opls_806  O806    15.9990     0.000    A    2.96000E-01   7.11280E-01
  opls_812  H812     1.0080     0.000    A    2.50000E-01   1.25520E-01
[ moleculetype ]
; Name               nrexcl
UNK                   3
[ atoms ]
;   nr       type  resnr residue  atom   cgnr     charge       mass  
     1   opls_800      1    UNK   C00      1    -0.2384    12.0110 
     2   opls_801      1    UNK   C01      1    -0.1804    12.0110 
     3   opls_802      1    UNK   C02      1    -0.1645    12.0110 
     4   opls_803      1    UNK   C03      1    -0.1479    12.0110 
     5   opls_804      1    UNK   C04      1    -0.4994    12.0110 
     6   opls_805      1    UNK   S05      1     1.2899    32.0600 
     7   opls_806      1    UNK   O06      1    -0.5655    15.9990 
     8   opls_807      1    UNK   O07      1    -0.5655    15.9990 
     9   opls_808      1    UNK   C08      1    -0.5028    12.0110 
    10   opls_809      1    UNK   C09      1    -0.2108    12.0110 
    11   opls_810      1    UNK   H0A      1     0.0826     1.0080 
    12   opls_811      1    UNK   H0B      1     0.0826     1.0080 
    13   opls_812      1    UNK   H0C      1     0.0826     1.0080 
    14   opls_813      1    UNK   H0D      1     0.0925     1.0080 
    15   opls_814      1    UNK   H0E      1     0.0925     1.0080 
    16   opls_815      1    UNK   H0F      1     0.0924     1.0080 
    17   opls_816      1    UNK   H0G      1     0.0924     1.0080 
    18   opls_817      1    UNK   H0H      1     0.1122     1.0080 
    19   opls_818      1    UNK   H0I      1     0.1122     1.0080 
    20   opls_819      1    UNK   H0J      1     0.1553     1.0080 
    21   opls_820      1    UNK   H0K      1     0.1553     1.0080 
    22   opls_821      1    UNK   H0M      1     0.1557     1.0080 
    23   opls_822      1    UNK   H0N      1     0.1557     1.0080 
    24   opls_823      1    UNK   H0O      1     0.1072     1.0080 
    25   opls_824      1    UNK   H0P      1     0.1072     1.0080 
    26   opls_825      1    UNK   H0Q      1     0.1072     1.0080 
[ bonds ]
    2     1     1      0.1529 224262.400
    3     2     1      0.1529 224262.400
    4     3     1      0.1529 224262.400
    5     4     1      0.1529 224262.400
    6     5     1      0.1770 284512.000
    7     6     1      0.1440 585760.000
    8     6     1      0.1440 585760.000
    9     6     1      0.1770 284512.000
   10     9     1      0.1529 224262.400
   11     1     1      0.1090 284512.000
   12     1     1      0.1090 284512.000
   13     1     1      0.1090 284512.000
   14     2     1      0.1090 284512.000
   15     2     1      0.1090 284512.000
   16     3     1      0.1090 284512.000
   17     3     1      0.1090 284512.000
   18     4     1      0.1090 284512.000
   19     4     1      0.1090 284512.000
   20     5     1      0.1090 284512.000
   21     5     1      0.1090 284512.000
   22     9     1      0.1090 284512.000
   23     9     1      0.1090 284512.000
   24    10     1      0.1090 284512.000
   25    10     1      0.1090 284512.000
   26    10     1      0.1090 284512.000

[ angles ]
;  ai    aj    ak funct            c0            c1            c2            c3 
    1     2     3     1    112.700    488.273
    2     3     4     1    112.700    488.273
    3     4     5     1    112.700    488.273
    4     5     6     1    108.600    418.400
    5     6     7     1    108.900    619.232
    5     6     8     1    108.900    619.232
    5     6     9     1    102.000    518.816
    6     9    10     1    108.600    418.400
    2     1    11     1    110.700    313.800
    2     1    12     1    110.700    313.800
    2     1    13     1    110.700    313.800
    1     2    14     1    110.700    313.800
    1     2    15     1    110.700    313.800
    2     3    16     1    110.700    313.800
    2     3    17     1    110.700    313.800
    3     4    18     1    110.700    313.800
    3     4    19     1    110.700    313.800
    4     5    20     1    110.700    313.800
    4     5    21     1    110.700    313.800
    6     9    22     1    109.500    292.880
    6     9    23     1    109.500    292.880
    9    10    24     1    110.700    313.800
    9    10    25     1    110.700    313.800
    9    10    26     1    110.700    313.800
    3     2    14     1    110.700    313.800
    3     2    15     1    110.700    313.800
   11     1    13     1    107.800    276.144
   10     9    23     1    110.700    313.800
   25    10    26     1    107.800    276.144
   24    10    25     1    107.800    276.144
   14     2    15     1    107.800    276.144
   22     9    23     1    107.800    276.144
   10     9    22     1    110.700    313.800
   11     1    12     1    107.800    276.144
   12     1    13     1    107.800    276.144
    6     5    20     1    109.500    292.880
    5     4    19     1    110.700    313.800
    7     6     8     1    119.000    870.272
   24    10    26     1    107.800    276.144
    6     5    21     1    109.500    292.880
    8     6     9     1    108.900    619.232
    7     6     9     1    108.900    619.232
    4     3    16     1    110.700    313.800
    4     3    17     1    110.700    313.800
   16     3    17     1    107.800    276.144
   20     5    21     1    107.800    276.144
    5     4    18     1    110.700    313.800
   18     4    19     1    107.800    276.144

[ dihedrals ]
; IMPROPER DIHEDRAL ANGLES 
;  ai    aj    ak    al funct            c0            c1            c2            c3            c4            c5

[ dihedrals ]
; PROPER DIHEDRAL ANGLES
;  ai    aj    ak    al funct            c0            c1            c2            c3            c4            c5
    4    3    2    1        3       2.301  -1.464   0.837  -1.674  -0.000   0.000
    5    4    3    2        3       2.301  -1.464   0.837  -1.674  -0.000   0.000
   10    9    6    5        3       0.000   0.000   0.000  -0.000  -0.000   0.000
   10    9    6    7        3       0.000   0.000   0.000  -0.000  -0.000   0.000
   10    9    6    8        3       0.000   0.000   0.000  -0.000  -0.000   0.000
    9    6    5    4        3       0.000   0.000   0.000  -0.000  -0.000   0.000
   19    4    3    2        3       0.628   1.883   0.000  -2.510  -0.000   0.000
   17    3    4    5        3       0.628   1.883   0.000  -2.510  -0.000   0.000
   17    3    2    1        3       0.628   1.883   0.000  -2.510  -0.000   0.000
   12    1    2    3        3       0.628   1.883   0.000  -2.510  -0.000   0.000
   15    2    3    4        3       0.628   1.883   0.000  -2.510  -0.000   0.000
   20    5    4    3        3       0.628   1.883   0.000  -2.510  -0.000   0.000
   21    5    4    3        3       0.628   1.883   0.000  -2.510  -0.000   0.000
   18    4    3    2        3       0.628   1.883   0.000  -2.510  -0.000   0.000
   16    3    2    1        3       0.628   1.883   0.000  -2.510  -0.000   0.000
   13    1    2    3        3       0.628   1.883   0.000  -2.510  -0.000   0.000
   11    1    2    3        3       0.628   1.883   0.000  -2.510  -0.000   0.000
   16    3    4    5        3       0.628   1.883   0.000  -2.510  -0.000   0.000
   14    2    3    4        3       0.628   1.883   0.000  -2.510  -0.000   0.000
   25   10    9   23        3       0.628   1.883   0.000  -2.510  -0.000   0.000
   24   10    9   23        3       0.628   1.883   0.000  -2.510  -0.000   0.000
   14    2    1   12        3       0.628   1.883   0.000  -2.510  -0.000   0.000
   15    2    1   11        3       0.628   1.883   0.000  -2.510  -0.000   0.000
   21    5    4   18        3       0.628   1.883   0.000  -2.510  -0.000   0.000
   19    4    3   17        3       0.628   1.883   0.000  -2.510  -0.000   0.000
   26   10    9   22        3       0.628   1.883   0.000  -2.510  -0.000   0.000
   16    3    2   15        3       0.628   1.883   0.000  -2.510  -0.000   0.000
   16    3    2   14        3       0.628   1.883   0.000  -2.510  -0.000   0.000
   20    5    4   18        3       0.628   1.883   0.000  -2.510  -0.000   0.000
   14    2    1   11        3       0.628   1.883   0.000  -2.510  -0.000   0.000
   25   10    9   22        3       0.628   1.883   0.000  -2.510  -0.000   0.000
   17    3    2   15        3       0.628   1.883   0.000  -2.510  -0.000   0.000
   15    2    1   12        3       0.628   1.883   0.000  -2.510  -0.000   0.000
   20    5    4   19        3       0.628   1.883   0.000  -2.510  -0.000   0.000
   24   10    9   22        3       0.628   1.883   0.000  -2.510  -0.000   0.000
   18    4    3   17        3       0.628   1.883   0.000  -2.510  -0.000   0.000
   14    2    1   13        3       0.628   1.883   0.000  -2.510  -0.000   0.000
   17    3    2   14        3       0.628   1.883   0.000  -2.510  -0.000   0.000
   19    4    3   16        3       0.628   1.883   0.000  -2.510  -0.000   0.000
   18    4    3   16        3       0.628   1.883   0.000  -2.510  -0.000   0.000
   21    5    4   19        3       0.628   1.883   0.000  -2.510  -0.000   0.000
   26   10    9   23        3       0.628   1.883   0.000  -2.510  -0.000   0.000
   15    2    1   13        3       0.628   1.883   0.000  -2.510  -0.000   0.000
   19    4    5    6        3       0.946   2.837   0.000  -3.782  -0.000   0.000
   18    4    5    6        3       0.946   2.837   0.000  -3.782  -0.000   0.000
   25   10    9    6        3       0.946   2.837   0.000  -3.782  -0.000   0.000
   26   10    9    6        3       0.946   2.837   0.000  -3.782  -0.000   0.000
   24   10    9    6        3       0.946   2.837   0.000  -3.782  -0.000   0.000
   23    9    6    5        3       0.732   2.197   0.000  -2.929  -0.000   0.000
   22    9    6    5        3       0.732   2.197   0.000  -2.929  -0.000   0.000
   21    5    6    9        3       0.732   2.197   0.000  -2.929  -0.000   0.000
   20    5    6    9        3       0.732   2.197   0.000  -2.929  -0.000   0.000
   20    5    6    7        3       0.732   2.197   0.000  -2.929  -0.000   0.000
   23    9    6    7        3       0.732   2.197   0.000  -2.929  -0.000   0.000
   22    9    6    7        3       0.732   2.197   0.000  -2.929  -0.000   0.000
   21    5    6    8        3       0.732   2.197   0.000  -2.929  -0.000   0.000
   20    5    6    8        3       0.732   2.197   0.000  -2.929  -0.000   0.000
   23    9    6    8        3       0.732   2.197   0.000  -2.929  -0.000   0.000
   21    5    6    7        3       0.732   2.197   0.000  -2.929  -0.000   0.000
   22    9    6    8        3       0.732   2.197   0.000  -2.929  -0.000   0.000
    7    6    5    4        3       0.000   0.000   0.000  -0.000  -0.000   0.000
    8    6    5    4        3       0.000   0.000   0.000  -0.000  -0.000   0.000
    6    5    4    3        3       2.784   0.278   0.828  -3.891  -0.000   0.000

[ pairs ]
     1     4    1
     2     5    1
     3     6    1
     4     7    1
     4     8    1
     4     9    1
     3    11    1
     5    10    1
     3    12    1
     3    13    1
     7    10    1
     1    16    1
     8    10    1
     4    14    1
     1    17    1
     4    15    1
     2    18    1
     5    16    1
     2    19    1
     5    17    1
     3    20    1
     6    18    1
     3    21    1
    11    14    1
     6    19    1
    12    14    1
    11    15    1
    13    14    1
    12    15    1
     7    20    1
     5    22    1
    13    15    1
     8    20    1
     7    21    1
     5    23    1
     9    20    1
     8    21    1
     7    22    1
    14    16    1
     9    21    1
     8    22    1
     7    23    1
     6    24    1
    15    16    1
    14    17    1
     8    23    1
     6    25    1
    15    17    1
     6    26    1
    16    18    1
    17    18    1
    16    19    1
    17    19    1
    18    20    1
    19    20    1
    18    21    1
    19    21    1
    22    24    1
    23    24    1
    22    25    1
    23    25    1
    22    26    1
    23    26    1

