LIGPARGEN GENERATED GRO FILE
   44
    1UNK    C00    1   0.100   0.100   0.000
    1UNK    C01    2  -0.052   0.100   0.000
    1UNK    C02    3  -0.107   0.100   0.143
    1UNK    C03    4  -0.261   0.100   0.148
    1UNK    C04    5  -0.316  -0.023   0.087
    1UNK    N05    6  -0.359  -0.119   0.038
    1UNK    C06    7  -0.315   0.111   0.293
    1UNK    C07    8  -0.273   0.240   0.366
    1UNK    C08    9  -0.317   0.373   0.303
    1UNK    C09   10  -0.470   0.370   0.320
    1UNK    C0A   11  -0.489   0.296   0.453
    1UNK    C0B   12  -0.344   0.271   0.499
    1UNK    C0C   13  -0.274   0.406   0.541
    1UNK    C0D   14  -0.359   0.492   0.637
    1UNK    C0E   15  -0.141   0.377   0.614
    1UNK    C0F   16  -0.258   0.478   0.402
    1UNK    C0G   17  -0.116   0.518   0.363
    1UNK    H0H   18   0.138   0.100  -0.103
    1UNK    H0I   19   0.139   0.011   0.051
    1UNK    H0J   20   0.139   0.189   0.051
    1UNK    H0K   21  -0.087   0.012  -0.055
    1UNK    H0M   22  -0.088   0.189  -0.054
    1UNK    H0N   23  -0.068   0.189   0.193
    1UNK    H0O   24  -0.068   0.013   0.197
    1UNK    H0P   25  -0.298   0.186   0.090
    1UNK    H0Q   26  -0.280   0.025   0.352
    1UNK    H0R   27  -0.424   0.101   0.289
    1UNK    H0S   28  -0.164   0.235   0.380
    1UNK    H0T   29  -0.285   0.389   0.199
    1UNK    H0U   30  -0.517   0.315   0.238
    1UNK    H0V   31  -0.513   0.470   0.322
    1UNK    H0W   32  -0.542   0.201   0.437
    1UNK    H0X   33  -0.549   0.352   0.524
    1UNK    H0Y   34  -0.336   0.193   0.575
    1UNK    H0Z   35  -0.385   0.435   0.727
    1UNK    H10   36  -0.451   0.528   0.591
    1UNK    H11   37  -0.303   0.581   0.668
    1UNK    H12   38  -0.160   0.322   0.707
    1UNK    H13   39  -0.090   0.469   0.640
    1UNK    H14   40  -0.072   0.316   0.555
    1UNK    H15   41  -0.320   0.569   0.398
    1UNK    H16   42  -0.048   0.433   0.357
    1UNK    H17   43  -0.076   0.591   0.434
    1UNK    H18   44  -0.117   0.566   0.264
   1.00000   1.00000   1.00000

