LIGPARGEN GENERATED GRO FILE
   28
    1UNK    C00    1   0.100   0.100   0.000
    1UNK    C01    2  -0.053   0.100   0.000
    1UNK    C02    3  -0.110   0.100   0.143
    1UNK    O03    4  -0.039   0.106   0.244
    1UNK    C04    5  -0.262   0.092   0.155
    1UNK    C05    6  -0.317   0.213   0.082
    1UNK    N06    7  -0.363   0.314   0.022
    1UNK    C07    8  -0.309  -0.035   0.080
    1UNK    C08    9  -0.261  -0.029  -0.066
    1UNK    C09   10  -0.297  -0.144  -0.158
    1UNK    C0A   11  -0.198  -0.127  -0.274
    1UNK    C0B   12  -0.086  -0.034  -0.223
    1UNK    C0C   13  -0.110  -0.022  -0.073
    1UNK    H0D   14   0.139   0.184   0.059
    1UNK    H0E   15   0.139   0.111  -0.102
    1UNK    H0F   16   0.140   0.008   0.043
    1UNK    H0G   17  -0.085   0.193  -0.048
    1UNK    H0H   18  -0.293   0.090   0.260
    1UNK    H0I   19  -0.419  -0.042   0.082
    1UNK    H0J   20  -0.269  -0.125   0.129
    1UNK    H0K   21  -0.302   0.062  -0.113
    1UNK    H0M   22  -0.401  -0.139  -0.192
    1UNK    H0N   23  -0.281  -0.240  -0.109
    1UNK    H0O   24  -0.247  -0.082  -0.361
    1UNK    H0P   25  -0.158  -0.224  -0.305
    1UNK    H0Q   26  -0.094   0.064  -0.272
    1UNK    H0R   27   0.014  -0.074  -0.246
    1UNK    H0S   28  -0.068  -0.113  -0.028
   1.00000   1.00000   1.00000

