
;
; GENERATED BY LigParGen Server
; Jorgensen Lab @ Yale University 
;
[ atomtypes ]
  opls_818  H818     1.0080     0.000    A    2.50000E-01   1.25520E-01
  opls_814  C814    12.0110     0.000    A    3.50000E-01   2.76144E-01
  opls_824  H824     1.0080     0.000    A    2.50000E-01   1.25520E-01
  opls_815  C815    12.0110     0.000    A    3.50000E-01   2.76144E-01
  opls_843  H843     1.0080     0.000    A    2.50000E-01   1.25520E-01
  opls_836  H836     1.0080     0.000    A    2.50000E-01   1.25520E-01
  opls_834  H834     1.0080     0.000    A    2.50000E-01   1.25520E-01
  opls_810  C810    12.0110     0.000    A    3.50000E-01   2.76144E-01
  opls_828  H828     1.0080     0.000    A    2.50000E-01   1.25520E-01
  opls_812  C812    12.0110     0.000    A    3.50000E-01   2.76144E-01
  opls_802  C802    12.0110     0.000    A    3.50000E-01   2.76144E-01
  opls_827  H827     1.0080     0.000    A    2.50000E-01   1.25520E-01
  opls_809  C809    12.0110     0.000    A    3.50000E-01   2.76144E-01
  opls_806  C806    12.0110     0.000    A    3.50000E-01   2.76144E-01
  opls_822  H822     1.0080     0.000    A    2.50000E-01   1.25520E-01
  opls_803  C803    12.0110     0.000    A    3.50000E-01   2.76144E-01
  opls_838  H838     1.0080     0.000    A    2.50000E-01   1.25520E-01
  opls_825  H825     1.0080     0.000    A    2.50000E-01   1.25520E-01
  opls_830  H830     1.0080     0.000    A    2.50000E-01   1.25520E-01
  opls_821  H821     1.0080     0.000    A    2.50000E-01   1.25520E-01
  opls_842  H842     1.0080     0.000    A    2.50000E-01   1.25520E-01
  opls_820  H820     1.0080     0.000    A    2.50000E-01   1.25520E-01
  opls_837  H837     1.0080     0.000    A    2.50000E-01   1.25520E-01
  opls_829  H829     1.0080     0.000    A    2.50000E-01   1.25520E-01
  opls_831  H831     1.0080     0.000    A    2.50000E-01   1.25520E-01
  opls_832  H832     1.0080     0.000    A    2.50000E-01   1.25520E-01
  opls_800  C800    12.0110     0.000    A    3.50000E-01   2.76144E-01
  opls_804  C804    12.0110     0.000    A    3.30000E-01   2.76144E-01
  opls_811  C811    12.0110     0.000    A    3.50000E-01   2.76144E-01
  opls_823  H823     1.0080     0.000    A    2.50000E-01   1.25520E-01
  opls_813  C813    12.0110     0.000    A    3.50000E-01   2.76144E-01
  opls_826  H826     1.0080     0.000    A    2.50000E-01   1.25520E-01
  opls_835  H835     1.0080     0.000    A    2.50000E-01   1.25520E-01
  opls_841  H841     1.0080     0.000    A    2.50000E-01   1.25520E-01
  opls_805  N805    14.0070     0.000    A    3.20000E-01   7.11280E-01
  opls_819  H819     1.0080     0.000    A    2.50000E-01   1.25520E-01
  opls_816  C816    12.0110     0.000    A    3.50000E-01   2.76144E-01
  opls_833  H833     1.0080     0.000    A    2.50000E-01   1.25520E-01
  opls_839  H839     1.0080     0.000    A    2.50000E-01   1.25520E-01
  opls_801  C801    12.0110     0.000    A    3.50000E-01   2.76144E-01
  opls_808  C808    12.0110     0.000    A    3.50000E-01   2.76144E-01
  opls_817  H817     1.0080     0.000    A    2.50000E-01   1.25520E-01
  opls_840  H840     1.0080     0.000    A    2.50000E-01   1.25520E-01
  opls_807  C807    12.0110     0.000    A    3.50000E-01   2.76144E-01
[ moleculetype ]
; Name               nrexcl
UNK                   3
[ atoms ]
;   nr       type  resnr residue  atom   cgnr     charge       mass  
     1   opls_800      1    UNK   C00      1    -0.2389    12.0110 
     2   opls_801      1    UNK   C01      1    -0.1846    12.0110 
     3   opls_802      1    UNK   C02      1     -0.173    12.0110 
     4   opls_803      1    UNK   C03      1    -0.0014    12.0110 
     5   opls_804      1    UNK   C04      1     0.1614    12.0110 
     6   opls_805      1    UNK   N05      1    -0.3949    14.0070 
     7   opls_806      1    UNK   C06      1    -0.1594    12.0110 
     8   opls_807      1    UNK   C07      1    -0.1289    12.0110 
     9   opls_808      1    UNK   C08      1    -0.1254    12.0110 
    10   opls_809      1    UNK   C09      1    -0.1811    12.0110 
    11   opls_810      1    UNK   C0A      1    -0.1823    12.0110 
    12   opls_811      1    UNK   C0B      1    -0.1075    12.0110 
    13   opls_812      1    UNK   C0C      1    -0.0453    12.0110 
    14   opls_813      1    UNK   C0D      1    -0.2262    12.0110 
    15   opls_814      1    UNK   C0E      1    -0.2251    12.0110 
    16   opls_815      1    UNK   C0F      1    -0.1092    12.0110 
    17   opls_816      1    UNK   C0G      1    -0.2294    12.0110 
    18   opls_817      1    UNK   H0H      1     0.0836     1.0080 
    19   opls_818      1    UNK   H0I      1     0.0836     1.0080 
    20   opls_819      1    UNK   H0J      1     0.0836     1.0080 
    21   opls_820      1    UNK   H0K      1     0.0948     1.0080 
    22   opls_821      1    UNK   H0M      1     0.0948     1.0080 
    23   opls_822      1    UNK   H0N      1     0.1032     1.0080 
    24   opls_823      1    UNK   H0O      1     0.1032     1.0080 
    25   opls_824      1    UNK   H0P      1     0.1341     1.0080 
    26   opls_825      1    UNK   H0Q      1      0.102     1.0080 
    27   opls_826      1    UNK   H0R      1      0.102     1.0080 
    28   opls_827      1    UNK   H0S      1      0.112     1.0080 
    29   opls_828      1    UNK   H0T      1     0.1133     1.0080 
    30   opls_829      1    UNK   H0U      1      0.094     1.0080 
    31   opls_830      1    UNK   H0V      1      0.094     1.0080 
    32   opls_831      1    UNK   H0W      1     0.0953     1.0080 
    33   opls_832      1    UNK   H0X      2     0.0953     1.0080 
    34   opls_833      1    UNK   H0Y      2      0.116     1.0080 
    35   opls_834      1    UNK   H0Z      2     0.0831     1.0080 
    36   opls_835      1    UNK   H10      2     0.0831     1.0080 
    37   opls_836      1    UNK   H11      2     0.0831     1.0080 
    38   opls_837      1    UNK   H12      2     0.0822     1.0080 
    39   opls_838      1    UNK   H13      2     0.0822     1.0080 
    40   opls_839      1    UNK   H14      2     0.0822     1.0080 
    41   opls_840      1    UNK   H15      2     0.1052     1.0080 
    42   opls_841      1    UNK   H16      2     0.0819     1.0080 
    43   opls_842      1    UNK   H17      2     0.0819     1.0080 
    44   opls_843      1    UNK   H18      2     0.0819     1.0080 
[ bonds ]
    2     1     1      0.1529 224262.400
    3     2     1      0.1529 224262.400
    4     3     1      0.1529 224262.400
    5     4     1      0.1470 326352.000
    6     5     1      0.1157 543920.000
    7     4     1      0.1529 224262.400
    8     7     1      0.1529 224262.400
    9     8     1      0.1529 224262.400
   10     9     1      0.1529 224262.400
   11    10     1      0.1529 224262.400
   12     8     1      0.1529 224262.400
   13    12     1      0.1529 224262.400
   14    13     1      0.1529 224262.400
   15    13     1      0.1529 224262.400
   16     9     1      0.1529 224262.400
   17    16     1      0.1529 224262.400
   18     1     1      0.1090 284512.000
   19     1     1      0.1090 284512.000
   20     1     1      0.1090 284512.000
   21     2     1      0.1090 284512.000
   22     2     1      0.1090 284512.000
   23     3     1      0.1090 284512.000
   24     3     1      0.1090 284512.000
   25     4     1      0.1090 284512.000
   26     7     1      0.1090 284512.000
   27     7     1      0.1090 284512.000
   28     8     1      0.1090 284512.000
   29     9     1      0.1090 284512.000
   30    10     1      0.1090 284512.000
   31    10     1      0.1090 284512.000
   32    11     1      0.1090 284512.000
   33    11     1      0.1090 284512.000
   34    12     1      0.1090 284512.000
   35    14     1      0.1090 284512.000
   36    14     1      0.1090 284512.000
   37    14     1      0.1090 284512.000
   38    15     1      0.1090 284512.000
   39    15     1      0.1090 284512.000
   40    15     1      0.1090 284512.000
   41    16     1      0.1090 284512.000
   42    17     1      0.1090 284512.000
   43    17     1      0.1090 284512.000
   44    17     1      0.1090 284512.000
   12    11     1      0.1529 224262.400
   16    13     1      0.1529 224262.400

[ angles ]
;  ai    aj    ak funct            c0            c1            c2            c3 
    1     2     3     1    112.700    488.273
    2     3     4     1    112.700    488.273
    3     4     5     1    112.700    488.273
    4     5     6     1    180.000   1255.200
    3     4     7     1    112.700    488.273
    4     7     8     1    112.700    488.273
    7     8     9     1    112.700    488.273
    8     9    10     1    112.700    488.273
    9    10    11     1    112.700    488.273
    7     8    12     1    112.700    488.273
    8    12    13     1    112.700    488.273
   12    13    14     1    112.700    488.273
   12    13    15     1    112.700    488.273
    8     9    16     1    112.700    488.273
    9    16    17     1    112.700    488.273
    2     1    18     1    110.700    313.800
    2     1    19     1    110.700    313.800
    2     1    20     1    110.700    313.800
    1     2    21     1    110.700    313.800
    1     2    22     1    110.700    313.800
    2     3    23     1    110.700    313.800
    2     3    24     1    110.700    313.800
    3     4    25     1    110.700    313.800
    4     7    26     1    110.700    313.800
    4     7    27     1    110.700    313.800
    7     8    28     1    110.700    313.800
    8     9    29     1    110.700    313.800
    9    10    30     1    110.700    313.800
    9    10    31     1    110.700    313.800
   10    11    32     1    110.700    313.800
   10    11    33     1    110.700    313.800
    8    12    34     1    110.700    313.800
   13    14    35     1    110.700    313.800
   13    14    36     1    110.700    313.800
   13    14    37     1    110.700    313.800
   13    15    38     1    110.700    313.800
   13    15    39     1    110.700    313.800
   13    15    40     1    110.700    313.800
    9    16    41     1    110.700    313.800
   16    17    42     1    110.700    313.800
   16    17    43     1    110.700    313.800
   16    17    44     1    110.700    313.800
   10     9    16     1    112.700    488.273
    5     4     7     1    112.700    488.273
    8    12    11     1    112.700    488.273
    8     7    26     1    110.700    313.800
    4     3    23     1    110.700    313.800
   32    11    33     1    107.800    276.144
   39    15    40     1    107.800    276.144
    4     3    24     1    110.700    313.800
   13    16    17     1    112.700    488.273
   35    14    36     1    107.800    276.144
    9    16    13     1    112.700    488.273
   42    17    43     1    107.800    276.144
   11    10    30     1    110.700    313.800
    8     7    27     1    110.700    313.800
   15    13    16     1    112.700    488.273
   12    11    32     1    110.700    313.800
   18     1    19     1    107.800    276.144
   42    17    44     1    107.800    276.144
   10    11    12     1    112.700    488.273
    5     4    25     1    108.500    292.880
   21     2    22     1    107.800    276.144
   43    17    44     1    107.800    276.144
   17    16    41     1    110.700    313.800
   14    13    15     1    112.700    488.273
   38    15    40     1    107.800    276.144
   12    13    16     1    112.700    488.273
   13    16    41     1    110.700    313.800
   35    14    37     1    107.800    276.144
   23     3    24     1    107.800    276.144
   12     8    28     1    110.700    313.800
   11    10    31     1    110.700    313.800
   18     1    20     1    107.800    276.144
   14    13    16     1    112.700    488.273
   12    11    33     1    110.700    313.800
    9     8    28     1    110.700    313.800
   10     9    29     1    110.700    313.800
    3     2    21     1    110.700    313.800
    9     8    12     1    112.700    488.273
   26     7    27     1    107.800    276.144
   11    12    34     1    110.700    313.800
    7     4    25     1    110.700    313.800
    3     2    22     1    110.700    313.800
   30    10    31     1    107.800    276.144
   13    12    34     1    110.700    313.800
   19     1    20     1    107.800    276.144
   11    12    13     1    112.700    488.273
   36    14    37     1    107.800    276.144
   16     9    29     1    110.700    313.800
   38    15    39     1    107.800    276.144

[ dihedrals ]
; IMPROPER DIHEDRAL ANGLES 
;  ai    aj    ak    al funct            c0            c1            c2            c3            c4            c5

[ dihedrals ]
; PROPER DIHEDRAL ANGLES
;  ai    aj    ak    al funct            c0            c1            c2            c3            c4            c5
    4    3    2    1        3       2.301  -1.464   0.837  -1.674  -0.000   0.000
   14   13   16    9        3       2.301  -1.464   0.837  -1.674  -0.000   0.000
   17   16   13   12        3       2.301  -1.464   0.837  -1.674  -0.000   0.000
   13   12    8    9        3       2.301  -1.464   0.837  -1.674  -0.000   0.000
   17   16   13   14        3       2.301  -1.464   0.837  -1.674  -0.000   0.000
   13   16    9    8        3       2.301  -1.464   0.837  -1.674  -0.000   0.000
   12   11   10    9        3       2.301  -1.464   0.837  -1.674  -0.000   0.000
   16    9    8    7        3       2.301  -1.464   0.837  -1.674  -0.000   0.000
   16    9    8   12        3       2.301  -1.464   0.837  -1.674  -0.000   0.000
   10   11   12    8        3       2.301  -1.464   0.837  -1.674  -0.000   0.000
   17   16   13   15        3       2.301  -1.464   0.837  -1.674  -0.000   0.000
    7    4    3    2        3       2.301  -1.464   0.837  -1.674  -0.000   0.000
   14   13   12   11        3       2.301  -1.464   0.837  -1.674  -0.000   0.000
   11   12    8    7        3       2.301  -1.464   0.837  -1.674  -0.000   0.000
   16   13   12   11        3       2.301  -1.464   0.837  -1.674  -0.000   0.000
   13   12    8    7        3       2.301  -1.464   0.837  -1.674  -0.000   0.000
   11   12    8    9        3       2.301  -1.464   0.837  -1.674  -0.000   0.000
   17   16    9    8        3       2.301  -1.464   0.837  -1.674  -0.000   0.000
   13   16    9   10        3       2.301  -1.464   0.837  -1.674  -0.000   0.000
   12    8    9   10        3       2.301  -1.464   0.837  -1.674  -0.000   0.000
   16   13   12    8        3       2.301  -1.464   0.837  -1.674  -0.000   0.000
   12   13   16    9        3       2.301  -1.464   0.837  -1.674  -0.000   0.000
   13   12   11   10        3       2.301  -1.464   0.837  -1.674  -0.000   0.000
   15   13   12   11        3       2.301  -1.464   0.837  -1.674  -0.000   0.000
   12    8    7    4        3       2.301  -1.464   0.837  -1.674  -0.000   0.000
   15   13   16    9        3       2.301  -1.464   0.837  -1.674  -0.000   0.000
   17   16    9   10        3       2.301  -1.464   0.837  -1.674  -0.000   0.000
   15   13   12    8        3       2.301  -1.464   0.837  -1.674  -0.000   0.000
   16    9   10   11        3       2.301  -1.464   0.837  -1.674  -0.000   0.000
   11   10    9    8        3       2.301  -1.464   0.837  -1.674  -0.000   0.000
    9    8    7    4        3       2.301  -1.464   0.837  -1.674  -0.000   0.000
    8    7    4    3        3       2.301  -1.464   0.837  -1.674  -0.000   0.000
   10    9    8    7        3       2.301  -1.464   0.837  -1.674  -0.000   0.000
   14   13   12    8        3       2.301  -1.464   0.837  -1.674  -0.000   0.000
    8    7    4    5        3      -2.720   0.000   2.720  -0.000  -0.000   0.000
    7    4    5    6        3       0.000   0.000   0.000  -0.000  -0.000   0.000
    5    4    3    2        3      -2.720   0.000   2.720  -0.000  -0.000   0.000
   29    9    8   12        3       0.628   1.883   0.000  -2.510  -0.000   0.000
   41   16   13   12        3       0.628   1.883   0.000  -2.510  -0.000   0.000
   40   15   13   12        3       0.628   1.883   0.000  -2.510  -0.000   0.000
   28    8   12   11        3       0.628   1.883   0.000  -2.510  -0.000   0.000
   26    7    8   12        3       0.628   1.883   0.000  -2.510  -0.000   0.000
   34   12   11   10        3       0.628   1.883   0.000  -2.510  -0.000   0.000
   43   17   16   13        3       0.628   1.883   0.000  -2.510  -0.000   0.000
   29    9   16   17        3       0.628   1.883   0.000  -2.510  -0.000   0.000
   25    4    3    2        3       0.628   1.883   0.000  -2.510  -0.000   0.000
   37   14   13   12        3       0.628   1.883   0.000  -2.510  -0.000   0.000
   18    1    2    3        3       0.628   1.883   0.000  -2.510  -0.000   0.000
   37   14   13   16        3       0.628   1.883   0.000  -2.510  -0.000   0.000
   29    9   10   11        3       0.628   1.883   0.000  -2.510  -0.000   0.000
   34   12   13   14        3       0.628   1.883   0.000  -2.510  -0.000   0.000
   26    7    4    3        3       0.628   1.883   0.000  -2.510  -0.000   0.000
   36   14   13   15        3       0.628   1.883   0.000  -2.510  -0.000   0.000
   44   17   16    9        3       0.628   1.883   0.000  -2.510  -0.000   0.000
   24    3    4    7        3       0.628   1.883   0.000  -2.510  -0.000   0.000
   33   11   12   13        3       0.628   1.883   0.000  -2.510  -0.000   0.000
   33   11   12    8        3       0.628   1.883   0.000  -2.510  -0.000   0.000
   34   12   13   15        3       0.628   1.883   0.000  -2.510  -0.000   0.000
   38   15   13   16        3       0.628   1.883   0.000  -2.510  -0.000   0.000
   30   10    9    8        3       0.628   1.883   0.000  -2.510  -0.000   0.000
   23    3    4    7        3       0.628   1.883   0.000  -2.510  -0.000   0.000
   22    2    3    4        3       0.628   1.883   0.000  -2.510  -0.000   0.000
   31   10    9    8        3       0.628   1.883   0.000  -2.510  -0.000   0.000
   28    8   12   13        3       0.628   1.883   0.000  -2.510  -0.000   0.000
   26    7    8    9        3       0.628   1.883   0.000  -2.510  -0.000   0.000
   35   14   13   15        3       0.628   1.883   0.000  -2.510  -0.000   0.000
   38   15   13   14        3       0.628   1.883   0.000  -2.510  -0.000   0.000
   36   14   13   16        3       0.628   1.883   0.000  -2.510  -0.000   0.000
   20    1    2    3        3       0.628   1.883   0.000  -2.510  -0.000   0.000
   28    8    7    4        3       0.628   1.883   0.000  -2.510  -0.000   0.000
   28    8    9   16        3       0.628   1.883   0.000  -2.510  -0.000   0.000
   24    3    2    1        3       0.628   1.883   0.000  -2.510  -0.000   0.000
   21    2    3    4        3       0.628   1.883   0.000  -2.510  -0.000   0.000
   32   11   12    8        3       0.628   1.883   0.000  -2.510  -0.000   0.000
   34   12    8    7        3       0.628   1.883   0.000  -2.510  -0.000   0.000
   33   11   10    9        3       0.628   1.883   0.000  -2.510  -0.000   0.000
   30   10   11   12        3       0.628   1.883   0.000  -2.510  -0.000   0.000
   23    3    2    1        3       0.628   1.883   0.000  -2.510  -0.000   0.000
   41   16   13   14        3       0.628   1.883   0.000  -2.510  -0.000   0.000
   37   14   13   15        3       0.628   1.883   0.000  -2.510  -0.000   0.000
   27    7    8   12        3       0.628   1.883   0.000  -2.510  -0.000   0.000
   41   16    9    8        3       0.628   1.883   0.000  -2.510  -0.000   0.000
   34   12    8    9        3       0.628   1.883   0.000  -2.510  -0.000   0.000
   29    9    8    7        3       0.628   1.883   0.000  -2.510  -0.000   0.000
   42   17   16   13        3       0.628   1.883   0.000  -2.510  -0.000   0.000
   19    1    2    3        3       0.628   1.883   0.000  -2.510  -0.000   0.000
   34   12   13   16        3       0.628   1.883   0.000  -2.510  -0.000   0.000
   43   17   16    9        3       0.628   1.883   0.000  -2.510  -0.000   0.000
   30   10    9   16        3       0.628   1.883   0.000  -2.510  -0.000   0.000
   32   11   12   13        3       0.628   1.883   0.000  -2.510  -0.000   0.000
   31   10   11   12        3       0.628   1.883   0.000  -2.510  -0.000   0.000
   28    8    9   10        3       0.628   1.883   0.000  -2.510  -0.000   0.000
   27    7    4    3        3       0.628   1.883   0.000  -2.510  -0.000   0.000
   42   17   16    9        3       0.628   1.883   0.000  -2.510  -0.000   0.000
   38   15   13   12        3       0.628   1.883   0.000  -2.510  -0.000   0.000
   35   14   13   12        3       0.628   1.883   0.000  -2.510  -0.000   0.000
   40   15   13   16        3       0.628   1.883   0.000  -2.510  -0.000   0.000
   27    7    8    9        3       0.628   1.883   0.000  -2.510  -0.000   0.000
   25    4    7    8        3       0.628   1.883   0.000  -2.510  -0.000   0.000
   40   15   13   14        3       0.628   1.883   0.000  -2.510  -0.000   0.000
   36   14   13   12        3       0.628   1.883   0.000  -2.510  -0.000   0.000
   29    9   16   13        3       0.628   1.883   0.000  -2.510  -0.000   0.000
   31   10    9   16        3       0.628   1.883   0.000  -2.510  -0.000   0.000
   39   15   13   12        3       0.628   1.883   0.000  -2.510  -0.000   0.000
   32   11   10    9        3       0.628   1.883   0.000  -2.510  -0.000   0.000
   35   14   13   16        3       0.628   1.883   0.000  -2.510  -0.000   0.000
   39   15   13   14        3       0.628   1.883   0.000  -2.510  -0.000   0.000
   41   16    9   10        3       0.628   1.883   0.000  -2.510  -0.000   0.000
   44   17   16   13        3       0.628   1.883   0.000  -2.510  -0.000   0.000
   39   15   13   16        3       0.628   1.883   0.000  -2.510  -0.000   0.000
   41   16   13   15        3       0.628   1.883   0.000  -2.510  -0.000   0.000
   24    3    4    5        3       0.766   2.297   0.000  -3.063  -0.000   0.000
   23    3    4    5        3       0.766   2.297   0.000  -3.063  -0.000   0.000
   27    7    4    5        3       0.766   2.297   0.000  -3.063  -0.000   0.000
   26    7    4    5        3       0.766   2.297   0.000  -3.063  -0.000   0.000
   22    2    1   19        3       0.628   1.883   0.000  -2.510  -0.000   0.000
   30   10    9   29        3       0.628   1.883   0.000  -2.510  -0.000   0.000
   22    2    1   18        3       0.628   1.883   0.000  -2.510  -0.000   0.000
   21    2    1   19        3       0.628   1.883   0.000  -2.510  -0.000   0.000
   32   11   10   31        3       0.628   1.883   0.000  -2.510  -0.000   0.000
   21    2    1   20        3       0.628   1.883   0.000  -2.510  -0.000   0.000
   43   17   16   41        3       0.628   1.883   0.000  -2.510  -0.000   0.000
   29    9    8   28        3       0.628   1.883   0.000  -2.510  -0.000   0.000
   26    7    4   25        3       0.628   1.883   0.000  -2.510  -0.000   0.000
   44   17   16   41        3       0.628   1.883   0.000  -2.510  -0.000   0.000
   31   10    9   29        3       0.628   1.883   0.000  -2.510  -0.000   0.000
   33   11   10   30        3       0.628   1.883   0.000  -2.510  -0.000   0.000
   23    3    2   22        3       0.628   1.883   0.000  -2.510  -0.000   0.000
   33   11   10   31        3       0.628   1.883   0.000  -2.510  -0.000   0.000
   25    4    3   23        3       0.628   1.883   0.000  -2.510  -0.000   0.000
   24    3    2   22        3       0.628   1.883   0.000  -2.510  -0.000   0.000
   34   12    8   28        3       0.628   1.883   0.000  -2.510  -0.000   0.000
   41   16    9   29        3       0.628   1.883   0.000  -2.510  -0.000   0.000
   25    4    3   24        3       0.628   1.883   0.000  -2.510  -0.000   0.000
   34   12   11   32        3       0.628   1.883   0.000  -2.510  -0.000   0.000
   42   17   16   41        3       0.628   1.883   0.000  -2.510  -0.000   0.000
   28    8    7   26        3       0.628   1.883   0.000  -2.510  -0.000   0.000
   34   12   11   33        3       0.628   1.883   0.000  -2.510  -0.000   0.000
   23    3    2   21        3       0.628   1.883   0.000  -2.510  -0.000   0.000
   32   11   10   30        3       0.628   1.883   0.000  -2.510  -0.000   0.000
   28    8    7   27        3       0.628   1.883   0.000  -2.510  -0.000   0.000
   27    7    4   25        3       0.628   1.883   0.000  -2.510  -0.000   0.000
   24    3    2   21        3       0.628   1.883   0.000  -2.510  -0.000   0.000
   22    2    1   20        3       0.628   1.883   0.000  -2.510  -0.000   0.000
   21    2    1   18        3       0.628   1.883   0.000  -2.510  -0.000   0.000
   25    4    5    6        3       0.000   0.000   0.000  -0.000  -0.000   0.000
    6    5    4    3        3       0.000   0.000   0.000  -0.000  -0.000   0.000

[ pairs ]
     1     4    1
     2     5    1
     3     6    1
     2     7    1
     3     8    1
     6     7    1
     5     8    1
     4     9    1
     4    12    1
     7    10    1
     7    11    1
     7    13    1
     3    18    1
     8    14    1
     3    19    1
    10    13    1
     9    14    1
     8    15    1
     7    16    1
     3    20    1
     9    15    1
     1    23    1
    11    14    1
     8    17    1
     4    21    1
     1    24    1
    11    15    1
     4    22    1
    11    16    1
    10    17    1
     2    25    1
     5    23    1
    12    17    1
     5    24    1
     3    26    1
     7    23    1
     3    27    1
    14    17    1
     7    24    1
     6    25    1
     5    26    1
    15    17    1
     5    27    1
     4    28    1
     8    25    1
     9    26    1
     9    27    1
     7    29    1
    12    26    1
    10    28    1
     8    30    1
    18    21    1
    12    27    1
    11    28    1
     8    31    1
    19    21    1
    18    22    1
    11    29    1
     8    32    1
    20    21    1
    19    22    1
    13    28    1
    12    29    1
     9    32    1
     8    33    1
     7    34    1
    20    22    1
    13    29    1
    12    30    1
     9    33    1
    12    31    1
     9    34    1
    21    23    1
    16    28    1
    10    34    1
    22    23    1
    21    24    1
    13    32    1
    22    24    1
    17    29    1
    16    30    1
    13    33    1
    16    31    1
    12    35    1
    23    25    1
    14    34    1
    12    36    1
    24    25    1
    15    34    1
    12    37    1
     8    41    1
    16    34    1
    15    35    1
    12    38    1
    25    26    1
    16    35    1
    15    36    1
    12    39    1
    10    41    1
     9    42    1
    25    27    1
    16    36    1
    15    37    1
    14    38    1
    12    40    1
     9    43    1
    16    37    1
    14    39    1
    12    41    1
     9    44    1
    26    28    1
    16    38    1
    14    40    1
    27    28    1
    16    39    1
    14    41    1
    13    42    1
    16    40    1
    15    41    1
    13    43    1
    28    29    1
    13    44    1
    29    30    1
    29    31    1
    30    32    1
    28    34    1
    31    32    1
    30    33    1
    31    33    1
    32    34    1
    33    34    1
    29    41    1
    41    42    1
    41    43    1
    41    44    1

