LIGPARGEN GENERATED GRO FILE
   49
    1UNK    C00    1   0.100   0.100   0.000
    1UNK    C01    2  -0.052   0.100   0.000
    1UNK    C02    3  -0.106   0.100   0.143
    1UNK    C03    4  -0.259   0.100   0.145
    1UNK    C04    5  -0.311   0.100   0.290
    1UNK    C05    6  -0.467   0.106   0.305
    1UNK    C06    7  -0.534  -0.020   0.231
    1UNK    C07    8  -0.483  -0.157   0.288
    1UNK    C08    9  -0.532  -0.283   0.217
    1UNK    C09   10  -0.688  -0.022   0.233
    1UNK    C0A   11  -0.760   0.088   0.159
    1UNK    C0B   12  -0.722   0.093   0.011
    1UNK    N0C   13  -0.691   0.098  -0.111
    1UNK    C0D   14  -0.504   0.103   0.457
    1UNK    C0E   15  -0.468   0.229   0.535
    1UNK    C0F   16  -0.524   0.355   0.470
    1UNK    C0G   17  -0.473   0.367   0.327
    1UNK    C0H   18  -0.513   0.244   0.247
    1UNK    H0I   19   0.138   0.100  -0.102
    1UNK    H0J   20   0.139   0.011   0.051
    1UNK    H0K   21   0.139   0.189   0.051
    1UNK    H0M   22  -0.088   0.012  -0.054
    1UNK    H0N   23  -0.088   0.188  -0.054
    1UNK    H0O   24  -0.069   0.189   0.196
    1UNK    H0P   25  -0.069   0.012   0.196
    1UNK    H0Q   26  -0.295   0.012   0.090
    1UNK    H0R   27  -0.294   0.189   0.091
    1UNK    H0S   28  -0.266   0.185   0.341
    1UNK    H0T   29  -0.272   0.012   0.341
    1UNK    H0U   30  -0.504  -0.017   0.126
    1UNK    H0V   31  -0.512  -0.166   0.394
    1UNK    H0W   32  -0.374  -0.161   0.284
    1UNK    H0X   33  -0.640  -0.296   0.224
    1UNK    H0Y   34  -0.487  -0.371   0.263
    1UNK    H0Z   35  -0.504  -0.282   0.111
    1UNK    H10   36  -0.727  -0.027   0.336
    1UNK    H11   37  -0.723  -0.114   0.186
    1UNK    H12   38  -0.772   0.185   0.205
    1UNK    H13   39  -0.865   0.056   0.156
    1UNK    H14   40  -0.456   0.017   0.505
    1UNK    H15   41  -0.612   0.089   0.468
    1UNK    H16   42  -0.360   0.237   0.546
    1UNK    H17   43  -0.509   0.220   0.636
    1UNK    H18   44  -0.494   0.443   0.528
    1UNK    H19   45  -0.634   0.352   0.471
    1UNK    H1A   46  -0.365   0.383   0.324
    1UNK    H1B   47  -0.520   0.455   0.281
    1UNK    H1C   48  -0.487   0.255   0.141
    1UNK    H1D   49  -0.620   0.250   0.253
   1.00000   1.00000   1.00000

