
;
; GENERATED BY LigParGen Server
; Jorgensen Lab @ Yale University 
;
[ atomtypes ]
  opls_818  H818     1.0080     0.000    A    2.50000E-01   1.25520E-01
  opls_824  H824     1.0080     0.000    A    2.50000E-01   1.25520E-01
  opls_805  C805    12.0110     0.000    A    3.50000E-01   2.76144E-01
  opls_828  H828     1.0080     0.000    A    2.50000E-01   1.25520E-01
  opls_813  H813     1.0080     0.000    A    2.50000E-01   1.25520E-01
  opls_832  H832     1.0080     0.000    A    2.50000E-01   1.25520E-01
  opls_806  C806    12.0110     0.000    A    3.50000E-01   2.76144E-01
  opls_815  H815     1.0080     0.000    A    2.50000E-01   1.25520E-01
  opls_809  C809    12.0110     0.000    A    3.50000E-01   2.76144E-01
  opls_830  H830     1.0080     0.000    A    2.50000E-01   1.25520E-01
  opls_802  O802    15.9990     0.000    A    2.96000E-01   8.78640E-01
  opls_822  H822     1.0080     0.000    A    2.50000E-01   1.25520E-01
  opls_803  C803    12.0110     0.000    A    3.50000E-01   2.76144E-01
  opls_825  H825     1.0080     0.000    A    2.50000E-01   1.25520E-01
  opls_814  H814     1.0080     0.000    A    2.50000E-01   1.25520E-01
  opls_821  H821     1.0080     0.000    A    2.50000E-01   1.25520E-01
  opls_820  H820     1.0080     0.000    A    2.50000E-01   1.25520E-01
  opls_801  C801    12.0110     0.000    A    3.55000E-01   2.92880E-01
  opls_829  H829     1.0080     0.000    A    2.50000E-01   1.25520E-01
  opls_831  H831     1.0080     0.000    A    2.50000E-01   1.25520E-01
  opls_810  C810    12.0110     0.000    A    3.55000E-01   2.92880E-01
  opls_812  O812    15.9990     0.000    A    2.96000E-01   8.78640E-01
  opls_816  H816     1.0080     0.000    A    2.50000E-01   1.25520E-01
  opls_800  C800    12.0110     0.000    A    3.50000E-01   2.76144E-01
  opls_811  C811    12.0110     0.000    A    3.50000E-01   2.76144E-01
  opls_823  H823     1.0080     0.000    A    2.50000E-01   1.25520E-01
  opls_826  H826     1.0080     0.000    A    2.50000E-01   1.25520E-01
  opls_819  H819     1.0080     0.000    A    2.50000E-01   1.25520E-01
  opls_804  C804    12.0110     0.000    A    3.50000E-01   2.76144E-01
  opls_827  H827     1.0080     0.000    A    2.50000E-01   1.25520E-01
  opls_808  C808    12.0110     0.000    A    3.50000E-01   2.76144E-01
  opls_817  H817     1.0080     0.000    A    2.50000E-01   1.25520E-01
  opls_807  C807    12.0110     0.000    A    3.50000E-01   2.76144E-01
[ moleculetype ]
; Name               nrexcl
UNK                   3
[ atoms ]
;   nr       type  resnr residue  atom   cgnr     charge       mass  
     1   opls_800      1    UNK   C00      1    -0.3062    12.0110 
     2   opls_801      1    UNK   C01      1     0.3609    12.0110 
     3   opls_802      1    UNK   O02      1    -0.4469    15.9990 
     4   opls_803      1    UNK   C03      1    -0.2354    12.0110 
     5   opls_804      1    UNK   C04      1    -0.1721    12.0110 
     6   opls_805      1    UNK   C05      1    -0.1788    12.0110 
     7   opls_806      1    UNK   C06      1    -0.1733    12.0110 
     8   opls_807      1    UNK   C07      1    -0.1051    12.0110 
     9   opls_808      1    UNK   C08      1    -0.2376    12.0110 
    10   opls_809      1    UNK   C09      1    -0.2296    12.0110 
    11   opls_810      1    UNK   C0A      1     0.3641    12.0110 
    12   opls_811      1    UNK   C0B      1    -0.3025    12.0110 
    13   opls_812      1    UNK   O0C      1    -0.4522    15.9990 
    14   opls_813      1    UNK   H0D      1     0.1166     1.0080 
    15   opls_814      1    UNK   H0E      1     0.1166     1.0080 
    16   opls_815      1    UNK   H0F      1     0.1166     1.0080 
    17   opls_816      1    UNK   H0G      1     0.1188     1.0080 
    18   opls_817      1    UNK   H0H      1     0.1188     1.0080 
    19   opls_818      1    UNK   H0I      1     0.1052     1.0080 
    20   opls_819      1    UNK   H0J      1     0.1052     1.0080 
    21   opls_820      1    UNK   H0K      1     0.0901     1.0080 
    22   opls_821      1    UNK   H0M      1     0.0901     1.0080 
    23   opls_822      1    UNK   H0N      1     0.0899     1.0080 
    24   opls_823      1    UNK   H0O      1     0.0899     1.0080 
    25   opls_824      1    UNK   H0P      1     0.1193     1.0080 
    26   opls_825      1    UNK   H0Q      1      0.085     1.0080 
    27   opls_826      1    UNK   H0R      1      0.085     1.0080 
    28   opls_827      1    UNK   H0S      1      0.085     1.0080 
    29   opls_828      1    UNK   H0T      1     0.1174     1.0080 
    30   opls_829      1    UNK   H0U      1     0.1174     1.0080 
    31   opls_830      1    UNK   H0V      1     0.1159     1.0080 
    32   opls_831      1    UNK   H0W      1     0.1159     1.0080 
    33   opls_832      1    UNK   H0X      2     0.1159     1.0080 
[ bonds ]
    2     1     1      0.1522 265265.600
    3     2     1      0.1229 476976.000
    4     2     1      0.1522 265265.600
    5     4     1      0.1529 224262.400
    6     5     1      0.1529 224262.400
    7     6     1      0.1529 224262.400
    8     7     1      0.1529 224262.400
    9     8     1      0.1529 224262.400
   10     8     1      0.1529 224262.400
   11    10     1      0.1522 265265.600
   12    11     1      0.1522 265265.600
   13    11     1      0.1229 476976.000
   14     1     1      0.1090 284512.000
   15     1     1      0.1090 284512.000
   16     1     1      0.1090 284512.000
   17     4     1      0.1090 284512.000
   18     4     1      0.1090 284512.000
   19     5     1      0.1090 284512.000
   20     5     1      0.1090 284512.000
   21     6     1      0.1090 284512.000
   22     6     1      0.1090 284512.000
   23     7     1      0.1090 284512.000
   24     7     1      0.1090 284512.000
   25     8     1      0.1090 284512.000
   26     9     1      0.1090 284512.000
   27     9     1      0.1090 284512.000
   28     9     1      0.1090 284512.000
   29    10     1      0.1090 284512.000
   30    10     1      0.1090 284512.000
   31    12     1      0.1090 284512.000
   32    12     1      0.1090 284512.000
   33    12     1      0.1090 284512.000

[ angles ]
;  ai    aj    ak funct            c0            c1            c2            c3 
    1     2     3     1    120.400    669.440
    1     2     4     1    116.000    585.760
    2     4     5     1    111.100    527.184
    4     5     6     1    112.700    488.273
    5     6     7     1    112.700    488.273
    6     7     8     1    112.700    488.273
    7     8     9     1    112.700    488.273
    7     8    10     1    112.700    488.273
    8    10    11     1    111.100    527.184
   10    11    12     1    116.000    585.760
   10    11    13     1    120.400    669.440
    2     1    14     1    109.500    292.880
    2     1    15     1    109.500    292.880
    2     1    16     1    109.500    292.880
    2     4    17     1    109.500    292.880
    2     4    18     1    109.500    292.880
    4     5    19     1    110.700    313.800
    4     5    20     1    110.700    313.800
    5     6    21     1    110.700    313.800
    5     6    22     1    110.700    313.800
    6     7    23     1    110.700    313.800
    6     7    24     1    110.700    313.800
    7     8    25     1    110.700    313.800
    8     9    26     1    110.700    313.800
    8     9    27     1    110.700    313.800
    8     9    28     1    110.700    313.800
    8    10    29     1    110.700    313.800
    8    10    30     1    110.700    313.800
   11    12    31     1    109.500    292.880
   11    12    32     1    109.500    292.880
   11    12    33     1    109.500    292.880
   23     7    24     1    107.800    276.144
   31    12    32     1    107.800    276.144
    9     8    25     1    110.700    313.800
   31    12    33     1    107.800    276.144
    9     8    10     1    112.700    488.273
    7     6    22     1    110.700    313.800
   21     6    22     1    107.800    276.144
    6     5    19     1    110.700    313.800
   29    10    30     1    107.800    276.144
   11    10    29     1    109.500    292.880
   26     9    27     1    107.800    276.144
   17     4    18     1    107.800    276.144
   14     1    15     1    107.800    276.144
   15     1    16     1    107.800    276.144
   10     8    25     1    110.700    313.800
    8     7    23     1    110.700    313.800
    6     5    20     1    110.700    313.800
   19     5    20     1    107.800    276.144
    3     2     4     1    120.400    669.440
   27     9    28     1    107.800    276.144
   32    12    33     1    107.800    276.144
   12    11    13     1    120.400    669.440
   14     1    16     1    107.800    276.144
    8     7    24     1    110.700    313.800
   26     9    28     1    107.800    276.144
    5     4    18     1    110.700    313.800
    7     6    21     1    110.700    313.800
   11    10    30     1    109.500    292.880
    5     4    17     1    110.700    313.800

[ dihedrals ]
; IMPROPER DIHEDRAL ANGLES 
;  ai    aj    ak    al funct            c0            c1            c2            c3            c4            c5
     4     2     1     3    4        180.000     43.932     2  
    13    11    10    12    4        180.000     43.932     2  

[ dihedrals ]
; PROPER DIHEDRAL ANGLES
;  ai    aj    ak    al funct            c0            c1            c2            c3            c4            c5
   11   10    8    9        3      -4.960   6.286   1.310  -2.636  -0.000   0.000
   11   10    8    7        3      -4.960   6.286   1.310  -2.636  -0.000   0.000
   12   11   10    8        3       0.818  -7.906   0.602   6.485  -0.000   0.000
    5    4    2    1        3       0.818  -7.906   0.602   6.485  -0.000   0.000
    5    4    2    3        3       0.000   0.000   0.000  -0.000  -0.000   0.000
    6    5    4    2        3      -4.960   6.286   1.310  -2.636  -0.000   0.000
   10    8    7    6        3       2.301  -1.464   0.837  -1.674  -0.000   0.000
    9    8    7    6        3       2.301  -1.464   0.837  -1.674  -0.000   0.000
    8    7    6    5        3       2.301  -1.464   0.837  -1.674  -0.000   0.000
    7    6    5    4        3       2.301  -1.464   0.837  -1.674  -0.000   0.000
   15    1    2    4        3       0.575   1.726   0.000  -2.301  -0.000   0.000
   16    1    2    4        3       0.575   1.726   0.000  -2.301  -0.000   0.000
   18    4    2    1        3       0.575   1.726   0.000  -2.301  -0.000   0.000
   30   10   11   12        3       0.575   1.726   0.000  -2.301  -0.000   0.000
   17    4    2    1        3       0.575   1.726   0.000  -2.301  -0.000   0.000
   31   12   11   10        3       0.575   1.726   0.000  -2.301  -0.000   0.000
   33   12   11   10        3       0.575   1.726   0.000  -2.301  -0.000   0.000
   32   12   11   10        3       0.575   1.726   0.000  -2.301  -0.000   0.000
   29   10   11   12        3       0.575   1.726   0.000  -2.301  -0.000   0.000
   14    1    2    4        3       0.575   1.726   0.000  -2.301  -0.000   0.000
   31   12   11   13        3       0.000   0.000   0.000  -0.000  -0.000   0.000
   14    1    2    3        3       0.000   0.000   0.000  -0.000  -0.000   0.000
   30   10   11   13        3       0.000   0.000   0.000  -0.000  -0.000   0.000
   32   12   11   13        3       0.000   0.000   0.000  -0.000  -0.000   0.000
   17    4    2    3        3       0.000   0.000   0.000  -0.000  -0.000   0.000
   33   12   11   13        3       0.000   0.000   0.000  -0.000  -0.000   0.000
   16    1    2    3        3       0.000   0.000   0.000  -0.000  -0.000   0.000
   29   10   11   13        3       0.000   0.000   0.000  -0.000  -0.000   0.000
   18    4    2    3        3       0.000   0.000   0.000  -0.000  -0.000   0.000
   15    1    2    3        3       0.000   0.000   0.000  -0.000  -0.000   0.000
   20    5    4    2        3      -0.209  -0.628   0.000   0.837  -0.000   0.000
   25    8   10   11        3      -0.209  -0.628   0.000   0.837  -0.000   0.000
   19    5    4    2        3      -0.209  -0.628   0.000   0.837  -0.000   0.000
   19    5    6    7        3       0.628   1.883   0.000  -2.510  -0.000   0.000
   22    6    5    4        3       0.628   1.883   0.000  -2.510  -0.000   0.000
   23    7    6    5        3       0.628   1.883   0.000  -2.510  -0.000   0.000
   27    9    8   10        3       0.628   1.883   0.000  -2.510  -0.000   0.000
   24    7    8    9        3       0.628   1.883   0.000  -2.510  -0.000   0.000
   30   10    8    9        3       0.628   1.883   0.000  -2.510  -0.000   0.000
   20    5    6    7        3       0.628   1.883   0.000  -2.510  -0.000   0.000
   21    6    7    8        3       0.628   1.883   0.000  -2.510  -0.000   0.000
   28    9    8    7        3       0.628   1.883   0.000  -2.510  -0.000   0.000
   22    6    7    8        3       0.628   1.883   0.000  -2.510  -0.000   0.000
   28    9    8   10        3       0.628   1.883   0.000  -2.510  -0.000   0.000
   24    7    6    5        3       0.628   1.883   0.000  -2.510  -0.000   0.000
   25    8    7    6        3       0.628   1.883   0.000  -2.510  -0.000   0.000
   23    7    8   10        3       0.628   1.883   0.000  -2.510  -0.000   0.000
   26    9    8   10        3       0.628   1.883   0.000  -2.510  -0.000   0.000
   29   10    8    7        3       0.628   1.883   0.000  -2.510  -0.000   0.000
   17    4    5    6        3       0.628   1.883   0.000  -2.510  -0.000   0.000
   21    6    5    4        3       0.628   1.883   0.000  -2.510  -0.000   0.000
   29   10    8    9        3       0.628   1.883   0.000  -2.510  -0.000   0.000
   23    7    8    9        3       0.628   1.883   0.000  -2.510  -0.000   0.000
   27    9    8    7        3       0.628   1.883   0.000  -2.510  -0.000   0.000
   26    9    8    7        3       0.628   1.883   0.000  -2.510  -0.000   0.000
   18    4    5    6        3       0.628   1.883   0.000  -2.510  -0.000   0.000
   30   10    8    7        3       0.628   1.883   0.000  -2.510  -0.000   0.000
   24    7    8   10        3       0.628   1.883   0.000  -2.510  -0.000   0.000
   29   10    8   25        3       0.628   1.883   0.000  -2.510  -0.000   0.000
   23    7    6   22        3       0.628   1.883   0.000  -2.510  -0.000   0.000
   24    7    6   21        3       0.628   1.883   0.000  -2.510  -0.000   0.000
   26    9    8   25        3       0.628   1.883   0.000  -2.510  -0.000   0.000
   22    6    5   20        3       0.628   1.883   0.000  -2.510  -0.000   0.000
   23    7    6   21        3       0.628   1.883   0.000  -2.510  -0.000   0.000
   20    5    4   18        3       0.628   1.883   0.000  -2.510  -0.000   0.000
   30   10    8   25        3       0.628   1.883   0.000  -2.510  -0.000   0.000
   22    6    5   19        3       0.628   1.883   0.000  -2.510  -0.000   0.000
   21    6    5   20        3       0.628   1.883   0.000  -2.510  -0.000   0.000
   20    5    4   17        3       0.628   1.883   0.000  -2.510  -0.000   0.000
   25    8    7   24        3       0.628   1.883   0.000  -2.510  -0.000   0.000
   19    5    4   17        3       0.628   1.883   0.000  -2.510  -0.000   0.000
   27    9    8   25        3       0.628   1.883   0.000  -2.510  -0.000   0.000
   24    7    6   22        3       0.628   1.883   0.000  -2.510  -0.000   0.000
   28    9    8   25        3       0.628   1.883   0.000  -2.510  -0.000   0.000
   21    6    5   19        3       0.628   1.883   0.000  -2.510  -0.000   0.000
   25    8    7   23        3       0.628   1.883   0.000  -2.510  -0.000   0.000
   19    5    4   18        3       0.628   1.883   0.000  -2.510  -0.000   0.000
   13   11   10    8        3       0.000   0.000   0.000  -0.000  -0.000   0.000

[ pairs ]
     1     5    1
     3     5    1
     2     6    1
     4     7    1
     5     8    1
     6     9    1
     6    10    1
     3    14    1
     7    11    1
     4    14    1
     3    15    1
     1    17    1
     4    15    1
     3    16    1
     1    18    1
     9    11    1
     8    12    1
     4    16    1
     3    17    1
     8    13    1
     3    18    1
     2    19    1
     2    20    1
     6    17    1
     6    18    1
     4    21    1
     7    19    1
     4    22    1
     7    20    1
     5    23    1
     8    21    1
     5    24    1
     8    22    1
     6    25    1
     9    23    1
    10    23    1
     9    24    1
     7    26    1
    10    24    1
     7    27    1
     7    28    1
    17    19    1
    11    25    1
    10    26    1
     7    29    1
    18    19    1
    17    20    1
    10    27    1
     7    30    1
    18    20    1
    10    28    1
     9    29    1
     9    30    1
    19    21    1
    20    21    1
    19    22    1
    12    29    1
    10    31    1
    20    22    1
    13    29    1
    12    30    1
    10    32    1
    13    30    1
    10    33    1
    21    23    1
    13    31    1
    22    23    1
    21    24    1
    13    32    1
    22    24    1
    13    33    1
    23    25    1
    24    25    1
    25    26    1
    25    27    1
    25    28    1
    25    29    1
    25    30    1

