LIGPARGEN GENERATED GRO FILE
   39
    1UNK    C00    1   0.100   0.100   0.000
    1UNK    C01    2  -0.053   0.100   0.000
    1UNK    C02    3  -0.099   0.100   0.145
    1UNK    O03    4  -0.163   0.190   0.198
    1UNK    C04    5  -0.112   0.220  -0.075
    1UNK    C05    6  -0.079   0.226  -0.224
    1UNK    O06    7  -0.117   0.111  -0.301
    1UNK    C07    8  -0.250   0.106  -0.329
    1UNK    O08    9  -0.340   0.136  -0.253
    1UNK    O09   10  -0.264   0.072  -0.460
    1UNK    C0A   11  -0.399   0.080  -0.511
    1UNK    C0B   12  -0.447   0.226  -0.524
    1UNK    C0C   13  -0.371   0.303  -0.631
    1UNK    C0D   14  -0.377   0.232  -0.766
    1UNK    C0E   15  -0.325   0.088  -0.756
    1UNK    C0F   16  -0.339   0.017  -0.890
    1UNK    C0G   17  -0.400   0.010  -0.647
    1UNK    H0H   18   0.139   0.017   0.060
    1UNK    H0I   19   0.139   0.193   0.043
    1UNK    H0J   20   0.140   0.090  -0.101
    1UNK    H0K   21  -0.089   0.007  -0.044
    1UNK    H0M   22  -0.071   0.011   0.203
    1UNK    H0N   23  -0.077   0.313  -0.029
    1UNK    H0O   24  -0.220   0.219  -0.062
    1UNK    H0P   25   0.029   0.237  -0.238
    1UNK    H0Q   26  -0.124   0.315  -0.269
    1UNK    H0R   27  -0.465   0.025  -0.443
    1UNK    H0S   28  -0.436   0.280  -0.429
    1UNK    H0T   29  -0.553   0.226  -0.549
    1UNK    H0U   30  -0.266   0.316  -0.601
    1UNK    H0V   31  -0.413   0.404  -0.641
    1UNK    H0W   32  -0.318   0.288  -0.839
    1UNK    H0X   33  -0.481   0.232  -0.802
    1UNK    H0Y   34  -0.218   0.092  -0.730
    1UNK    H0Z   35  -0.443   0.011  -0.921
    1UNK    H10   36  -0.298  -0.085  -0.885
    1UNK    H11   37  -0.284   0.071  -0.968
    1UNK    H12   38  -0.355  -0.089  -0.638
    1UNK    H13   39  -0.505  -0.005  -0.679
   1.00000   1.00000   1.00000

