
;
; GENERATED BY LigParGen Server
; Jorgensen Lab @ Yale University 
;
[ atomtypes ]
  opls_818  H818     1.0080     0.000    A    2.50000E-01   1.25520E-01
  opls_814  C814    12.0110     0.000    A    3.50000E-01   2.76144E-01
  opls_831  H831     1.0080     0.000    A    2.50000E-01   1.25520E-01
  opls_824  H824     1.0080     0.000    A    2.50000E-01   1.25520E-01
  opls_809  O809    15.9990     0.000    A    2.90000E-01   5.85760E-01
  opls_836  H836     1.0080     0.000    A    2.50000E-01   1.25520E-01
  opls_834  H834     1.0080     0.000    A    2.50000E-01   1.25520E-01
  opls_810  C810    12.0110     0.000    A    3.50000E-01   2.76144E-01
  opls_828  H828     1.0080     0.000    A    2.50000E-01   1.25520E-01
  opls_803  O803    15.9990     0.000    A    2.96000E-01   8.78640E-01
  opls_811  C811    12.0110     0.000    A    3.50000E-01   2.76144E-01
  opls_827  H827     1.0080     0.000    A    2.50000E-01   1.25520E-01
  opls_801  C801    12.0110     0.000    A    3.50000E-01   2.76144E-01
  opls_838  H838     1.0080     0.000    A    2.50000E-01   1.25520E-01
  opls_822  H822     1.0080     0.000    A    2.50000E-01   1.25520E-01
  opls_805  C805    12.0110     0.000    A    3.50000E-01   2.76144E-01
  opls_825  H825     1.0080     0.000    A    2.50000E-01   1.25520E-01
  opls_830  H830     1.0080     0.000    A    2.50000E-01   1.25520E-01
  opls_804  C804    12.0110     0.000    A    3.50000E-01   2.76144E-01
  opls_820  H820     1.0080     0.000    A    2.50000E-01   1.25520E-01
  opls_837  H837     1.0080     0.000    A    2.50000E-01   1.25520E-01
  opls_821  H821     1.0080     0.000    A    2.50000E-01   1.25520E-01
  opls_806  O806    15.9990     0.000    A    2.90000E-01   5.85760E-01
  opls_832  H832     1.0080     0.000    A    2.50000E-01   1.25520E-01
  opls_800  C800    12.0110     0.000    A    3.50000E-01   2.76144E-01
  opls_808  O808    15.9990     0.000    A    2.96000E-01   8.78640E-01
  opls_815  C815    12.0110     0.000    A    3.50000E-01   2.76144E-01
  opls_802  C802    12.0110     0.000    A    3.55000E-01   2.92880E-01
  opls_823  H823     1.0080     0.000    A    2.50000E-01   1.25520E-01
  opls_813  C813    12.0110     0.000    A    3.50000E-01   2.76144E-01
  opls_826  H826     1.0080     0.000    A    2.50000E-01   1.25520E-01
  opls_835  H835     1.0080     0.000    A    2.50000E-01   1.25520E-01
  opls_819  H819     1.0080     0.000    A    2.50000E-01   1.25520E-01
  opls_816  C816    12.0110     0.000    A    3.50000E-01   2.76144E-01
  opls_833  H833     1.0080     0.000    A    2.50000E-01   1.25520E-01
  opls_812  C812    12.0110     0.000    A    3.50000E-01   2.76144E-01
  opls_807  C807    12.0110     0.000    A    3.55000E-01   2.92880E-01
  opls_817  H817     1.0080     0.000    A    2.50000E-01   1.25520E-01
  opls_829  H829     1.0080     0.000    A    2.50000E-01   1.25520E-01
[ moleculetype ]
; Name               nrexcl
UNK                   3
[ atoms ]
;   nr       type  resnr residue  atom   cgnr     charge       mass  
     1   opls_800      1    UNK   C00      1    -0.2343    12.0110 
     2   opls_801      1    UNK   C01      1    -0.1806    12.0110 
     3   opls_802      1    UNK   C02      1      0.315    12.0110 
     4   opls_803      1    UNK   O03      1    -0.4409    15.9990 
     5   opls_804      1    UNK   C04      1    -0.2097    12.0110 
     6   opls_805      1    UNK   C05      1     0.0302    12.0110 
     7   opls_806      1    UNK   O06      1    -0.3341    15.9990 
     8   opls_807      1    UNK   C07      1     0.5768    12.0110 
     9   opls_808      1    UNK   O08      1    -0.4809    15.9990 
    10   opls_809      1    UNK   O09      1    -0.3329    15.9990 
    11   opls_810      1    UNK   C0A      1     0.0854    12.0110 
    12   opls_811      1    UNK   C0B      1    -0.2083    12.0110 
    13   opls_812      1    UNK   C0C      1    -0.1767    12.0110 
    14   opls_813      1    UNK   C0D      1     -0.174    12.0110 
    15   opls_814      1    UNK   C0E      1    -0.1165    12.0110 
    16   opls_815      1    UNK   C0F      1    -0.2377    12.0110 
    17   opls_816      1    UNK   C0G      1    -0.1704    12.0110 
    18   opls_817      1    UNK   H0H      1     0.0912     1.0080 
    19   opls_818      1    UNK   H0I      1     0.0912     1.0080 
    20   opls_819      1    UNK   H0J      1     0.0912     1.0080 
    21   opls_820      1    UNK   H0K      1     0.1375     1.0080 
    22   opls_821      1    UNK   H0M      1     0.1062     1.0080 
    23   opls_822      1    UNK   H0N      1     0.1295     1.0080 
    24   opls_823      1    UNK   H0O      1     0.1295     1.0080 
    25   opls_824      1    UNK   H0P      1     0.1113     1.0080 
    26   opls_825      1    UNK   H0Q      1     0.1113     1.0080 
    27   opls_826      1    UNK   H0R      1      0.119     1.0080 
    28   opls_827      1    UNK   H0S      1     0.1114     1.0080 
    29   opls_828      1    UNK   H0T      1     0.1114     1.0080 
    30   opls_829      1    UNK   H0U      1     0.0941     1.0080 
    31   opls_830      1    UNK   H0V      1     0.0941     1.0080 
    32   opls_831      1    UNK   H0W      1     0.0902     1.0080 
    33   opls_832      1    UNK   H0X      2     0.0902     1.0080 
    34   opls_833      1    UNK   H0Y      2     0.1151     1.0080 
    35   opls_834      1    UNK   H0Z      2      0.083     1.0080 
    36   opls_835      1    UNK   H10      2      0.083     1.0080 
    37   opls_836      1    UNK   H11      2      0.083     1.0080 
    38   opls_837      1    UNK   H12      2     0.1081     1.0080 
    39   opls_838      1    UNK   H13      2     0.1081     1.0080 
[ bonds ]
    2     1     1      0.1529 224262.400
    3     2     1      0.1522 265265.600
    4     3     1      0.1229 476976.000
    5     2     1      0.1529 224262.400
    6     5     1      0.1529 224262.400
    7     6     1      0.1410 267776.000
    8     7     1      0.1327 179075.200
    9     8     1      0.1229 476976.000
   10     8     1      0.1327 179075.200
   11    10     1      0.1410 267776.000
   12    11     1      0.1529 224262.400
   13    12     1      0.1529 224262.400
   14    13     1      0.1529 224262.400
   15    14     1      0.1529 224262.400
   16    15     1      0.1529 224262.400
   17    11     1      0.1529 224262.400
   18     1     1      0.1090 284512.000
   19     1     1      0.1090 284512.000
   20     1     1      0.1090 284512.000
   21     2     1      0.1090 284512.000
   22     3     1      0.1090 284512.000
   23     5     1      0.1090 284512.000
   24     5     1      0.1090 284512.000
   25     6     1      0.1090 284512.000
   26     6     1      0.1090 284512.000
   27    11     1      0.1090 284512.000
   28    12     1      0.1090 284512.000
   29    12     1      0.1090 284512.000
   30    13     1      0.1090 284512.000
   31    13     1      0.1090 284512.000
   32    14     1      0.1090 284512.000
   33    14     1      0.1090 284512.000
   34    15     1      0.1090 284512.000
   35    16     1      0.1090 284512.000
   36    16     1      0.1090 284512.000
   37    16     1      0.1090 284512.000
   38    17     1      0.1090 284512.000
   39    17     1      0.1090 284512.000
   17    15     1      0.1529 224262.400

[ angles ]
;  ai    aj    ak funct            c0            c1            c2            c3 
    1     2     3     1    111.100    527.184
    2     3     4     1    120.400    669.440
    1     2     5     1    112.700    488.273
    2     5     6     1    112.700    488.273
    5     6     7     1    109.500    418.400
    6     7     8     1    116.900    694.544
    7     8     9     1    123.400    694.544
    7     8    10     1    118.180    584.923
    8    10    11     1    116.900    694.544
   10    11    12     1    109.500    418.400
   11    12    13     1    112.700    488.273
   12    13    14     1    112.700    488.273
   13    14    15     1    112.700    488.273
   14    15    16     1    112.700    488.273
   10    11    17     1    109.500    418.400
    2     1    18     1    110.700    313.800
    2     1    19     1    110.700    313.800
    2     1    20     1    110.700    313.800
    1     2    21     1    110.700    313.800
    2     3    22     1    115.000    292.880
    2     5    23     1    110.700    313.800
    2     5    24     1    110.700    313.800
    5     6    25     1    110.700    313.800
    5     6    26     1    110.700    313.800
   10    11    27     1    109.500    292.880
   11    12    28     1    110.700    313.800
   11    12    29     1    110.700    313.800
   12    13    30     1    110.700    313.800
   12    13    31     1    110.700    313.800
   13    14    32     1    110.700    313.800
   13    14    33     1    110.700    313.800
   14    15    34     1    110.700    313.800
   15    16    35     1    110.700    313.800
   15    16    36     1    110.700    313.800
   15    16    37     1    110.700    313.800
   11    17    38     1    110.700    313.800
   11    17    39     1    110.700    313.800
    5     2    21     1    110.700    313.800
   14    15    17     1    112.700    488.273
   35    16    37     1    107.800    276.144
   38    17    39     1    107.800    276.144
   25     6    26     1    107.800    276.144
   17    11    27     1    110.700    313.800
    3     2    21     1    109.500    292.880
   14    13    30     1    110.700    313.800
   36    16    37     1    107.800    276.144
    7     6    25     1    109.500    292.880
    4     3    22     1    123.000    292.880
   13    12    28     1    110.700    313.800
   13    12    29     1    110.700    313.800
   15    14    33     1    110.700    313.800
   15    17    39     1    110.700    313.800
    6     5    24     1    110.700    313.800
    7     6    26     1    109.500    292.880
   17    15    34     1    110.700    313.800
   35    16    36     1    107.800    276.144
   18     1    19     1    107.800    276.144
   16    15    34     1    110.700    313.800
   23     5    24     1    107.800    276.144
   14    13    31     1    110.700    313.800
    3     2     5     1    111.100    527.184
   16    15    17     1    112.700    488.273
   12    11    17     1    112.700    488.273
   15    17    38     1    110.700    313.800
   18     1    20     1    107.800    276.144
   11    17    15     1    112.700    488.273
   12    11    27     1    110.700    313.800
    6     5    23     1    110.700    313.800
   28    12    29     1    107.800    276.144
   32    14    33     1    107.800    276.144
   19     1    20     1    107.800    276.144
   15    14    32     1    110.700    313.800
    9     8    10     1    123.400    694.544
   30    13    31     1    107.800    276.144

[ dihedrals ]
; IMPROPER DIHEDRAL ANGLES 
;  ai    aj    ak    al funct            c0            c1            c2            c3            c4            c5
    22     3     2     4    4        180.000     43.932     2  
    10     8     7     9    4        180.000     43.932     2  

[ dihedrals ]
; PROPER DIHEDRAL ANGLES
;  ai    aj    ak    al funct            c0            c1            c2            c3            c4            c5
    8    7    6    5        3      -2.197   5.201   0.527  -3.531  -0.000   0.000
    5    2    3    4        3       0.000   0.000   0.000  -0.000  -0.000   0.000
    6    5    2    3        3      -4.960   6.286   1.310  -2.636  -0.000   0.000
   17   15   14   13        3       2.301  -1.464   0.837  -1.674  -0.000   0.000
   14   15   17   11        3       2.301  -1.464   0.837  -1.674  -0.000   0.000
   17   11   12   13        3       2.301  -1.464   0.837  -1.674  -0.000   0.000
   15   17   11   12        3       2.301  -1.464   0.837  -1.674  -0.000   0.000
   16   15   14   13        3       2.301  -1.464   0.837  -1.674  -0.000   0.000
   14   13   12   11        3       2.301  -1.464   0.837  -1.674  -0.000   0.000
   15   14   13   12        3       2.301  -1.464   0.837  -1.674  -0.000   0.000
   16   15   17   11        3       2.301  -1.464   0.837  -1.674  -0.000   0.000
    6    5    2    1        3       2.301  -1.464   0.837  -1.674  -0.000   0.000
   15   17   11   10        3       2.874   0.582   2.092  -5.548  -0.000   0.000
   13   12   11   10        3       2.874   0.582   2.092  -5.548  -0.000   0.000
   12   11   10    8        3      -2.197   5.201   0.527  -3.531  -0.000   0.000
   17   11   10    8        3      -2.197   5.201   0.527  -3.531  -0.000   0.000
   11   10    8    9        3      21.439   0.000  -21.439  -0.000  -0.000   0.000
   11   10    8    7        3      31.206  -9.768  -21.439  -0.000  -0.000   0.000
   22    3    2    5        3       0.000   0.000   0.000  -0.000  -0.000   0.000
   22    3    2    1        3       0.000   0.000   0.000  -0.000  -0.000   0.000
   22    3    2   21        3       0.753   2.259   0.000  -3.012  -0.000   0.000
   21    2    3    4        3       0.000   0.000   0.000  -0.000  -0.000   0.000
   24    5    2    3        3      -0.209  -0.628   0.000   0.837  -0.000   0.000
   20    1    2    3        3      -0.209  -0.628   0.000   0.837  -0.000   0.000
   23    5    2    3        3      -0.209  -0.628   0.000   0.837  -0.000   0.000
   18    1    2    3        3      -0.209  -0.628   0.000   0.837  -0.000   0.000
   19    1    2    3        3      -0.209  -0.628   0.000   0.837  -0.000   0.000
   18    1    2    5        3       0.628   1.883   0.000  -2.510  -0.000   0.000
   36   16   15   17        3       0.628   1.883   0.000  -2.510  -0.000   0.000
   38   17   15   16        3       0.628   1.883   0.000  -2.510  -0.000   0.000
   39   17   11   12        3       0.628   1.883   0.000  -2.510  -0.000   0.000
   39   17   15   14        3       0.628   1.883   0.000  -2.510  -0.000   0.000
   30   13   12   11        3       0.628   1.883   0.000  -2.510  -0.000   0.000
   32   14   13   12        3       0.628   1.883   0.000  -2.510  -0.000   0.000
   19    1    2    5        3       0.628   1.883   0.000  -2.510  -0.000   0.000
   31   13   14   15        3       0.628   1.883   0.000  -2.510  -0.000   0.000
   27   11   12   13        3       0.628   1.883   0.000  -2.510  -0.000   0.000
   20    1    2    5        3       0.628   1.883   0.000  -2.510  -0.000   0.000
   30   13   14   15        3       0.628   1.883   0.000  -2.510  -0.000   0.000
   23    5    2    1        3       0.628   1.883   0.000  -2.510  -0.000   0.000
   34   15   17   11        3       0.628   1.883   0.000  -2.510  -0.000   0.000
   28   12   13   14        3       0.628   1.883   0.000  -2.510  -0.000   0.000
   31   13   12   11        3       0.628   1.883   0.000  -2.510  -0.000   0.000
   27   11   17   15        3       0.628   1.883   0.000  -2.510  -0.000   0.000
   26    6    5    2        3       0.628   1.883   0.000  -2.510  -0.000   0.000
   37   16   15   14        3       0.628   1.883   0.000  -2.510  -0.000   0.000
   21    2    5    6        3       0.628   1.883   0.000  -2.510  -0.000   0.000
   32   14   15   16        3       0.628   1.883   0.000  -2.510  -0.000   0.000
   33   14   13   12        3       0.628   1.883   0.000  -2.510  -0.000   0.000
   28   12   11   17        3       0.628   1.883   0.000  -2.510  -0.000   0.000
   39   17   15   16        3       0.628   1.883   0.000  -2.510  -0.000   0.000
   34   15   14   13        3       0.628   1.883   0.000  -2.510  -0.000   0.000
   38   17   15   14        3       0.628   1.883   0.000  -2.510  -0.000   0.000
   37   16   15   17        3       0.628   1.883   0.000  -2.510  -0.000   0.000
   29   12   11   17        3       0.628   1.883   0.000  -2.510  -0.000   0.000
   38   17   11   12        3       0.628   1.883   0.000  -2.510  -0.000   0.000
   33   14   15   17        3       0.628   1.883   0.000  -2.510  -0.000   0.000
   32   14   15   17        3       0.628   1.883   0.000  -2.510  -0.000   0.000
   24    5    2    1        3       0.628   1.883   0.000  -2.510  -0.000   0.000
   29   12   13   14        3       0.628   1.883   0.000  -2.510  -0.000   0.000
   36   16   15   14        3       0.628   1.883   0.000  -2.510  -0.000   0.000
   25    6    5    2        3       0.628   1.883   0.000  -2.510  -0.000   0.000
   33   14   15   16        3       0.628   1.883   0.000  -2.510  -0.000   0.000
   35   16   15   14        3       0.628   1.883   0.000  -2.510  -0.000   0.000
   35   16   15   17        3       0.628   1.883   0.000  -2.510  -0.000   0.000
   34   15   14   33        3       0.628   1.883   0.000  -2.510  -0.000   0.000
   25    6    5   24        3       0.628   1.883   0.000  -2.510  -0.000   0.000
   26    6    5   23        3       0.628   1.883   0.000  -2.510  -0.000   0.000
   39   17   15   34        3       0.628   1.883   0.000  -2.510  -0.000   0.000
   21    2    1   19        3       0.628   1.883   0.000  -2.510  -0.000   0.000
   36   16   15   34        3       0.628   1.883   0.000  -2.510  -0.000   0.000
   32   14   13   31        3       0.628   1.883   0.000  -2.510  -0.000   0.000
   33   14   13   30        3       0.628   1.883   0.000  -2.510  -0.000   0.000
   39   17   11   27        3       0.628   1.883   0.000  -2.510  -0.000   0.000
   33   14   13   31        3       0.628   1.883   0.000  -2.510  -0.000   0.000
   35   16   15   34        3       0.628   1.883   0.000  -2.510  -0.000   0.000
   24    5    2   21        3       0.628   1.883   0.000  -2.510  -0.000   0.000
   38   17   11   27        3       0.628   1.883   0.000  -2.510  -0.000   0.000
   30   13   12   29        3       0.628   1.883   0.000  -2.510  -0.000   0.000
   37   16   15   34        3       0.628   1.883   0.000  -2.510  -0.000   0.000
   32   14   13   30        3       0.628   1.883   0.000  -2.510  -0.000   0.000
   31   13   12   28        3       0.628   1.883   0.000  -2.510  -0.000   0.000
   23    5    2   21        3       0.628   1.883   0.000  -2.510  -0.000   0.000
   28   12   11   27        3       0.628   1.883   0.000  -2.510  -0.000   0.000
   25    6    5   23        3       0.628   1.883   0.000  -2.510  -0.000   0.000
   38   17   15   34        3       0.628   1.883   0.000  -2.510  -0.000   0.000
   21    2    1   18        3       0.628   1.883   0.000  -2.510  -0.000   0.000
   29   12   11   27        3       0.628   1.883   0.000  -2.510  -0.000   0.000
   34   15   14   32        3       0.628   1.883   0.000  -2.510  -0.000   0.000
   30   13   12   28        3       0.628   1.883   0.000  -2.510  -0.000   0.000
   31   13   12   29        3       0.628   1.883   0.000  -2.510  -0.000   0.000
   26    6    5   24        3       0.628   1.883   0.000  -2.510  -0.000   0.000
   21    2    1   20        3       0.628   1.883   0.000  -2.510  -0.000   0.000
   39   17   11   10        3       0.979   2.937   0.000  -3.916  -0.000   0.000
   38   17   11   10        3       0.979   2.937   0.000  -3.916  -0.000   0.000
   28   12   11   10        3       0.979   2.937   0.000  -3.916  -0.000   0.000
   24    5    6    7        3       0.979   2.937   0.000  -3.916  -0.000   0.000
   23    5    6    7        3       0.979   2.937   0.000  -3.916  -0.000   0.000
   29   12   11   10        3       0.979   2.937   0.000  -3.916  -0.000   0.000
   26    6    7    8        3       0.414   1.243   0.000  -1.657  -0.000   0.000
   25    6    7    8        3       0.414   1.243   0.000  -1.657  -0.000   0.000
   27   11   10    8        3       0.414   1.243   0.000  -1.657  -0.000   0.000
    4    3    2    1        3       0.000   0.000   0.000  -0.000  -0.000   0.000
    9    8    7    6        3      21.439   0.000  -21.439  -0.000  -0.000   0.000
   10    8    7    6        3      31.206  -9.768  -21.439  -0.000  -0.000   0.000
    7    6    5    2        3       2.874   0.582   2.092  -5.548  -0.000   0.000

[ pairs ]
     1     4    1
     1     6    1
     4     5    1
     3     6    1
     2     7    1
     5     8    1
     6     9    1
     6    10    1
     7    11    1
     9    11    1
     8    12    1
     3    18    1
     3    19    1
    10    13    1
     5    18    1
     3    20    1
     1    22    1
     5    19    1
     1    23    1
    11    14    1
    10    15    1
     8    17    1
     5    20    1
     4    21    1
     1    24    1
     3    23    1
    12    15    1
    11    16    1
     6    21    1
     5    22    1
     3    24    1
     2    25    1
     2    26    1
    13    16    1
    13    17    1
     7    23    1
     7    24    1
     8    25    1
     8    26    1
     8    27    1
    10    28    1
    18    21    1
    10    29    1
    19    21    1
    13    27    1
    20    21    1
    11    30    1
    15    27    1
    14    28    1
    11    31    1
    21    22    1
    14    29    1
    21    23    1
    12    32    1
    21    24    1
    17    28    1
    15    30    1
    12    33    1
    11    34    1
    17    29    1
    15    31    1
    13    34    1
    23    25    1
    16    32    1
    10    38    1
    24    25    1
    23    26    1
    17    32    1
    16    33    1
    14    35    1
    10    39    1
    24    26    1
    17    33    1
    14    36    1
    12    38    1
    14    37    1
    12    39    1
    17    35    1
    14    38    1
    17    36    1
    14    39    1
    17    37    1
    16    38    1
    27    28    1
    16    39    1
    27    29    1
    28    30    1
    29    30    1
    28    31    1
    29    31    1
    30    32    1
    31    32    1
    30    33    1
    31    33    1
    27    38    1
    32    34    1
    27    39    1
    33    34    1
    34    35    1
    34    36    1
    34    37    1
    34    38    1
    34    39    1

