LIGPARGEN GENERATED GRO FILE
   39
    1UNK    C00    1   0.100   0.100   0.000
    1UNK    C01    2  -0.052   0.100   0.000
    1UNK    C02    3  -0.118   0.100   0.141
    1UNK    C03    4  -0.061   0.214   0.230
    1UNK    C04    5  -0.097   0.355   0.184
    1UNK    C05    6  -0.275   0.100   0.131
    1UNK    C06    7  -0.325  -0.015   0.043
    1UNK    C07    8  -0.341   0.096   0.271
    1UNK    C08    9  -0.497   0.095   0.281
    1UNK    C09   10  -0.485   0.007   0.407
    1UNK    C0A   11  -0.500   0.081   0.539
    1UNK    C0B   12  -0.343  -0.035   0.357
    1UNK    C0C   13  -0.233  -0.051   0.460
    1UNK    H0D   14   0.137   0.088  -0.102
    1UNK    H0E   15   0.139   0.017   0.060
    1UNK    H0F   16   0.141   0.194   0.038
    1UNK    H0G   17  -0.083   0.010  -0.054
    1UNK    H0H   18  -0.088   0.185  -0.058
    1UNK    H0I   19  -0.088   0.006   0.189
    1UNK    H0J   20   0.048   0.205   0.235
    1UNK    H0K   21  -0.094   0.201   0.334
    1UNK    H0M   22  -0.093   0.366   0.075
    1UNK    H0N   23  -0.026   0.427   0.227
    1UNK    H0O   24  -0.197   0.383   0.218
    1UNK    H0P   25  -0.306   0.193   0.083
    1UNK    H0Q   26  -0.286  -0.112   0.078
    1UNK    H0R   27  -0.295  -0.002  -0.061
    1UNK    H0S   28  -0.434  -0.022   0.041
    1UNK    H0T   29  -0.305   0.182   0.329
    1UNK    H0U   30  -0.551   0.045   0.200
    1UNK    H0V   31  -0.542   0.194   0.295
    1UNK    H0W   32  -0.555  -0.078   0.406
    1UNK    H0X   33  -0.433   0.168   0.544
    1UNK    H0Y   34  -0.476   0.015   0.623
    1UNK    H0Z   35  -0.603   0.117   0.551
    1UNK    H10   36  -0.348  -0.126   0.296
    1UNK    H11   37  -0.223   0.038   0.524
    1UNK    H12   38  -0.136  -0.067   0.412
    1UNK    H13   39  -0.253  -0.137   0.525
   1.00000   1.00000   1.00000

