
;
; GENERATED BY LigParGen Server
; Jorgensen Lab @ Yale University 
;
[ atomtypes ]
  opls_818  H818     1.0080     0.000    A    2.50000E-01   1.25520E-01
  opls_824  H824     1.0080     0.000    A    2.50000E-01   1.25520E-01
  opls_805  C805    12.0110     0.000    A    3.50000E-01   2.76144E-01
  opls_833  H833     1.0080     0.000    A    2.50000E-01   1.25520E-01
  opls_836  H836     1.0080     0.000    A    2.50000E-01   1.25520E-01
  opls_828  H828     1.0080     0.000    A    2.50000E-01   1.25520E-01
  opls_810  C810    12.0110     0.000    A    3.50000E-01   2.76144E-01
  opls_813  H813     1.0080     0.000    A    2.50000E-01   1.25520E-01
  opls_807  C807    12.0110     0.000    A    3.45000E-01   3.47272E-01
  opls_802  C802    12.0110     0.000    A    3.50000E-01   2.76144E-01
  opls_815  H815     1.0080     0.000    A    2.50000E-01   1.25520E-01
  opls_801  C801    12.0110     0.000    A    3.50000E-01   2.76144E-01
  opls_830  H830     1.0080     0.000    A    2.50000E-01   1.25520E-01
  opls_822  H822     1.0080     0.000    A    2.50000E-01   1.25520E-01
  opls_803  C803    12.0110     0.000    A    3.50000E-01   2.76144E-01
  opls_808  C808    12.0110     0.000    A    3.45000E-01   3.47272E-01
  opls_838  H838     1.0080     0.000    A    2.50000E-01   1.25520E-01
  opls_825  H825     1.0080     0.000    A    2.50000E-01   1.25520E-01
  opls_826  H826     1.0080     0.000    A    2.50000E-01   1.25520E-01
  opls_814  H814     1.0080     0.000    A    2.50000E-01   1.25520E-01
  opls_821  H821     1.0080     0.000    A    2.50000E-01   1.25520E-01
  opls_820  H820     1.0080     0.000    A    2.50000E-01   1.25520E-01
  opls_837  H837     1.0080     0.000    A    2.50000E-01   1.25520E-01
  opls_829  H829     1.0080     0.000    A    2.50000E-01   1.25520E-01
  opls_834  H834     1.0080     0.000    A    2.50000E-01   1.25520E-01
  opls_831  H831     1.0080     0.000    A    2.50000E-01   1.25520E-01
  opls_832  H832     1.0080     0.000    A    2.50000E-01   1.25520E-01
  opls_816  H816     1.0080     0.000    A    2.50000E-01   1.25520E-01
  opls_800  C800    12.0110     0.000    A    3.50000E-01   2.76144E-01
  opls_806  C806    12.0110     0.000    A    3.50000E-01   2.76144E-01
  opls_823  H823     1.0080     0.000    A    2.50000E-01   1.25520E-01
  opls_811  C811    12.0110     0.000    A    3.45000E-01   3.47272E-01
  opls_835  H835     1.0080     0.000    A    2.50000E-01   1.25520E-01
  opls_819  H819     1.0080     0.000    A    2.50000E-01   1.25520E-01
  opls_804  C804    12.0110     0.000    A    3.50000E-01   2.76144E-01
  opls_827  H827     1.0080     0.000    A    2.50000E-01   1.25520E-01
  opls_812  C812    12.0110     0.000    A    3.50000E-01   2.76144E-01
  opls_817  H817     1.0080     0.000    A    2.50000E-01   1.25520E-01
  opls_809  C809    12.0110     0.000    A    3.45000E-01   3.47272E-01
[ moleculetype ]
; Name               nrexcl
UNK                   3
[ atoms ]
;   nr       type  resnr residue  atom   cgnr     charge       mass  
     1   opls_800      1    UNK   C00      1    -0.2377    12.0110 
     2   opls_801      1    UNK   C01      1    -0.1759    12.0110 
     3   opls_802      1    UNK   C02      1    -0.0996    12.0110 
     4   opls_803      1    UNK   C03      1    -0.1732    12.0110 
     5   opls_804      1    UNK   C04      1    -0.2357    12.0110 
     6   opls_805      1    UNK   C05      1    -0.0897    12.0110 
     7   opls_806      1    UNK   C06      1    -0.2362    12.0110 
     8   opls_807      1    UNK   C07      1    -0.1278    12.0110 
     9   opls_808      1    UNK   C08      1    -0.1964    12.0110 
    10   opls_809      1    UNK   C09      1    -0.1384    12.0110 
    11   opls_810      1    UNK   C0A      1    -0.2186    12.0110 
    12   opls_811      1    UNK   C0B      1    -0.1192    12.0110 
    13   opls_812      1    UNK   C0C      1    -0.2271    12.0110 
    14   opls_813      1    UNK   H0D      1     0.0803     1.0080 
    15   opls_814      1    UNK   H0E      1     0.0803     1.0080 
    16   opls_815      1    UNK   H0F      1     0.0803     1.0080 
    17   opls_816      1    UNK   H0G      1     0.0869     1.0080 
    18   opls_817      1    UNK   H0H      1     0.0869     1.0080 
    19   opls_818      1    UNK   H0I      1     0.0941     1.0080 
    20   opls_819      1    UNK   H0J      1     0.0865     1.0080 
    21   opls_820      1    UNK   H0K      1     0.0865     1.0080 
    22   opls_821      1    UNK   H0M      1     0.0799     1.0080 
    23   opls_822      1    UNK   H0N      1     0.0799     1.0080 
    24   opls_823      1    UNK   H0O      1     0.0799     1.0080 
    25   opls_824      1    UNK   H0P      1        0.1     1.0080 
    26   opls_825      1    UNK   H0Q      1     0.0804     1.0080 
    27   opls_826      1    UNK   H0R      1     0.0804     1.0080 
    28   opls_827      1    UNK   H0S      1     0.0804     1.0080 
    29   opls_828      1    UNK   H0T      1     0.1102     1.0080 
    30   opls_829      1    UNK   H0U      1      0.098     1.0080 
    31   opls_830      1    UNK   H0V      1      0.098     1.0080 
    32   opls_831      1    UNK   H0W      1     0.0991     1.0080 
    33   opls_832      1    UNK   H0X      2     0.0828     1.0080 
    34   opls_833      1    UNK   H0Y      2     0.0828     1.0080 
    35   opls_834      1    UNK   H0Z      2     0.0828     1.0080 
    36   opls_835      1    UNK   H10      2     0.1124     1.0080 
    37   opls_836      1    UNK   H11      2     0.0822     1.0080 
    38   opls_837      1    UNK   H12      2     0.0822     1.0080 
    39   opls_838      1    UNK   H13      2     0.0822     1.0080 
[ bonds ]
    2     1     1      0.1529 224262.400
    3     2     1      0.1529 224262.400
    4     3     1      0.1529 224262.400
    5     4     1      0.1529 224262.400
    6     3     1      0.1529 224262.400
    7     6     1      0.1529 224262.400
    8     6     1      0.1510 234304.000
    9     8     1      0.1520 217568.000
   10     9     1      0.1520 217568.000
   11    10     1      0.1510 234304.000
   12     8     1      0.1520 217568.000
   13    12     1      0.1510 234304.000
   14     1     1      0.1090 284512.000
   15     1     1      0.1090 284512.000
   16     1     1      0.1090 284512.000
   17     2     1      0.1090 284512.000
   18     2     1      0.1090 284512.000
   19     3     1      0.1090 284512.000
   20     4     1      0.1090 284512.000
   21     4     1      0.1090 284512.000
   22     5     1      0.1090 284512.000
   23     5     1      0.1090 284512.000
   24     5     1      0.1090 284512.000
   25     6     1      0.1090 284512.000
   26     7     1      0.1090 284512.000
   27     7     1      0.1090 284512.000
   28     7     1      0.1090 284512.000
   29     8     1      0.1088 284512.000
   30     9     1      0.1088 284512.000
   31     9     1      0.1088 284512.000
   32    10     1      0.1088 284512.000
   33    11     1      0.1090 284512.000
   34    11     1      0.1090 284512.000
   35    11     1      0.1090 284512.000
   36    12     1      0.1088 284512.000
   37    13     1      0.1090 284512.000
   38    13     1      0.1090 284512.000
   39    13     1      0.1090 284512.000
   12    10     1      0.1520 217568.000

[ angles ]
;  ai    aj    ak funct            c0            c1            c2            c3 
    1     2     3     1    112.700    488.273
    2     3     4     1    112.700    488.273
    3     4     5     1    112.700    488.273
    2     3     6     1    112.700    488.273
    3     6     7     1    112.700    488.273
    3     6     8     1    112.700    488.273
    6     8     9     1    117.200    313.800
    8     9    10     1     83.000    251.040
    9    10    11     1    117.200    313.800
    6     8    12     1    117.200    313.800
    8    12    13     1    117.200    313.800
    2     1    14     1    110.700    313.800
    2     1    15     1    110.700    313.800
    2     1    16     1    110.700    313.800
    1     2    17     1    110.700    313.800
    1     2    18     1    110.700    313.800
    2     3    19     1    110.700    313.800
    3     4    20     1    110.700    313.800
    3     4    21     1    110.700    313.800
    4     5    22     1    110.700    313.800
    4     5    23     1    110.700    313.800
    4     5    24     1    110.700    313.800
    3     6    25     1    110.700    313.800
    6     7    26     1    110.700    313.800
    6     7    27     1    110.700    313.800
    6     7    28     1    110.700    313.800
    6     8    29     1    114.300    292.880
    8     9    30     1    117.200    313.800
    8     9    31     1    117.200    313.800
    9    10    32     1    117.200    313.800
   10    11    33     1    110.700    313.800
   10    11    34     1    110.700    313.800
   10    11    35     1    110.700    313.800
    8    12    36     1    117.200    313.800
   12    13    37     1    110.700    313.800
   12    13    38     1    110.700    313.800
   12    13    39     1    110.700    313.800
   37    13    38     1    107.800    276.144
   10     9    30     1    117.200    313.800
   33    11    34     1    107.800    276.144
   22     5    23     1    107.800    276.144
    3     2    18     1    110.700    313.800
   27     7    28     1    107.800    276.144
   11    10    12     1    117.200    313.800
    9     8    29     1    117.200    313.800
    9     8    12     1     83.000    251.040
   26     7    28     1    107.800    276.144
    3     2    17     1    110.700    313.800
   20     4    21     1    107.800    276.144
   13    12    36     1    114.300    292.880
   37    13    39     1    107.800    276.144
   23     5    24     1    107.800    276.144
    4     3    19     1    110.700    313.800
    7     6    25     1    110.700    313.800
    8    12    10     1     83.000    251.040
   34    11    35     1    107.800    276.144
   26     7    27     1    107.800    276.144
   30     9    31     1    114.300    292.880
    9    10    12     1     83.000    251.040
   12     8    29     1    117.200    313.800
   33    11    35     1    107.800    276.144
   15     1    16     1    107.800    276.144
   14     1    15     1    107.800    276.144
    7     6     8     1    112.700    488.273
    4     3     6     1    112.700    488.273
   17     2    18     1    107.800    276.144
    8     6    25     1    110.700    313.800
    5     4    20     1    110.700    313.800
   38    13    39     1    107.800    276.144
   22     5    24     1    107.800    276.144
   11    10    32     1    114.300    292.880
   14     1    16     1    107.800    276.144
    5     4    21     1    110.700    313.800
   10    12    36     1    117.200    313.800
   10    12    13     1    117.200    313.800
   10     9    31     1    117.200    313.800
    6     3    19     1    110.700    313.800
   12    10    32     1    117.200    313.800

[ dihedrals ]
; IMPROPER DIHEDRAL ANGLES 
;  ai    aj    ak    al funct            c0            c1            c2            c3            c4            c5

[ dihedrals ]
; PROPER DIHEDRAL ANGLES
;  ai    aj    ak    al funct            c0            c1            c2            c3            c4            c5
    4    3    2    1        3       2.301  -1.464   0.837  -1.674  -0.000   0.000
    5    4    3    2        3       2.301  -1.464   0.837  -1.674  -0.000   0.000
    7    6    3    2        3       2.301  -1.464   0.837  -1.674  -0.000   0.000
    6    3    2    1        3       2.301  -1.464   0.837  -1.674  -0.000   0.000
    7    6    3    4        3       2.301  -1.464   0.837  -1.674  -0.000   0.000
    6    3    4    5        3       2.301  -1.464   0.837  -1.674  -0.000   0.000
   13   12   10   11        3       0.000   0.000   0.000  -0.000  -0.000   0.000
   13   12    8    6        3       0.000   0.000   0.000  -0.000  -0.000   0.000
   13   12   10    9        3       0.000   0.000   0.000  -0.000  -0.000   0.000
   11   10   12    8        3       0.000   0.000   0.000  -0.000  -0.000   0.000
   13   12    8    9        3       0.000   0.000   0.000  -0.000  -0.000   0.000
   11   10    9    8        3       0.000   0.000   0.000  -0.000  -0.000   0.000
    8    6    3    2        3       2.301  -1.464   0.837  -1.674  -0.000   0.000
    8    6    3    4        3       2.301  -1.464   0.837  -1.674  -0.000   0.000
   12    8    6    3        3       0.000   0.000   0.000  -0.000  -0.000   0.000
   12    8    6    7        3       0.000   0.000   0.000  -0.000  -0.000   0.000
    9    8    6    7        3       0.000   0.000   0.000  -0.000  -0.000   0.000
    9    8    6    3        3       0.000   0.000   0.000  -0.000  -0.000   0.000
   10   12    8    6        3       0.000   0.000   0.000  -0.000  -0.000   0.000
   10    9    8    6        3       0.000   0.000   0.000  -0.000  -0.000   0.000
   21    4    3    6        3       0.628   1.883   0.000  -2.510  -0.000   0.000
   20    4    3    6        3       0.628   1.883   0.000  -2.510  -0.000   0.000
   15    1    2    3        3       0.628   1.883   0.000  -2.510  -0.000   0.000
   17    2    3    4        3       0.628   1.883   0.000  -2.510  -0.000   0.000
   14    1    2    3        3       0.628   1.883   0.000  -2.510  -0.000   0.000
   18    2    3    6        3       0.628   1.883   0.000  -2.510  -0.000   0.000
   21    4    3    2        3       0.628   1.883   0.000  -2.510  -0.000   0.000
   16    1    2    3        3       0.628   1.883   0.000  -2.510  -0.000   0.000
   19    3    6    7        3       0.628   1.883   0.000  -2.510  -0.000   0.000
   23    5    4    3        3       0.628   1.883   0.000  -2.510  -0.000   0.000
   25    6    3    2        3       0.628   1.883   0.000  -2.510  -0.000   0.000
   27    7    6    3        3       0.628   1.883   0.000  -2.510  -0.000   0.000
   22    5    4    3        3       0.628   1.883   0.000  -2.510  -0.000   0.000
   25    6    3    4        3       0.628   1.883   0.000  -2.510  -0.000   0.000
   19    3    2    1        3       0.628   1.883   0.000  -2.510  -0.000   0.000
   20    4    3    2        3       0.628   1.883   0.000  -2.510  -0.000   0.000
   19    3    4    5        3       0.628   1.883   0.000  -2.510  -0.000   0.000
   18    2    3    4        3       0.628   1.883   0.000  -2.510  -0.000   0.000
   28    7    6    3        3       0.628   1.883   0.000  -2.510  -0.000   0.000
   26    7    6    3        3       0.628   1.883   0.000  -2.510  -0.000   0.000
   17    2    3    6        3       0.628   1.883   0.000  -2.510  -0.000   0.000
   24    5    4    3        3       0.628   1.883   0.000  -2.510  -0.000   0.000
   27    7    6    8        3       0.628   1.883   0.000  -2.510  -0.000   0.000
   28    7    6    8        3       0.628   1.883   0.000  -2.510  -0.000   0.000
   19    3    6    8        3       0.628   1.883   0.000  -2.510  -0.000   0.000
   26    7    6    8        3       0.628   1.883   0.000  -2.510  -0.000   0.000
   21    4    3   19        3       0.628   1.883   0.000  -2.510  -0.000   0.000
   17    2    1   14        3       0.628   1.883   0.000  -2.510  -0.000   0.000
   24    5    4   21        3       0.628   1.883   0.000  -2.510  -0.000   0.000
   20    4    3   19        3       0.628   1.883   0.000  -2.510  -0.000   0.000
   19    3    2   17        3       0.628   1.883   0.000  -2.510  -0.000   0.000
   19    3    2   18        3       0.628   1.883   0.000  -2.510  -0.000   0.000
   25    6    3   19        3       0.628   1.883   0.000  -2.510  -0.000   0.000
   22    5    4   20        3       0.628   1.883   0.000  -2.510  -0.000   0.000
   27    7    6   25        3       0.628   1.883   0.000  -2.510  -0.000   0.000
   24    5    4   20        3       0.628   1.883   0.000  -2.510  -0.000   0.000
   23    5    4   21        3       0.628   1.883   0.000  -2.510  -0.000   0.000
   22    5    4   21        3       0.628   1.883   0.000  -2.510  -0.000   0.000
   17    2    1   15        3       0.628   1.883   0.000  -2.510  -0.000   0.000
   18    2    1   16        3       0.628   1.883   0.000  -2.510  -0.000   0.000
   26    7    6   25        3       0.628   1.883   0.000  -2.510  -0.000   0.000
   18    2    1   14        3       0.628   1.883   0.000  -2.510  -0.000   0.000
   17    2    1   16        3       0.628   1.883   0.000  -2.510  -0.000   0.000
   28    7    6   25        3       0.628   1.883   0.000  -2.510  -0.000   0.000
   23    5    4   20        3       0.628   1.883   0.000  -2.510  -0.000   0.000
   18    2    1   15        3       0.628   1.883   0.000  -2.510  -0.000   0.000
   38   13   12   10        3       0.628   1.883   0.000  -2.510  -0.000   0.000
   33   11   10   12        3       0.628   1.883   0.000  -2.510  -0.000   0.000
   35   11   10    9        3       0.628   1.883   0.000  -2.510  -0.000   0.000
   38   13   12    8        3       0.628   1.883   0.000  -2.510  -0.000   0.000
   39   13   12   10        3       0.628   1.883   0.000  -2.510  -0.000   0.000
   37   13   12   10        3       0.628   1.883   0.000  -2.510  -0.000   0.000
   25    6    8   12        3       0.628   1.883   0.000  -2.510  -0.000   0.000
   25    6    8    9        3       0.628   1.883   0.000  -2.510  -0.000   0.000
   35   11   10   12        3       0.628   1.883   0.000  -2.510  -0.000   0.000
   39   13   12    8        3       0.628   1.883   0.000  -2.510  -0.000   0.000
   34   11   10   12        3       0.628   1.883   0.000  -2.510  -0.000   0.000
   37   13   12    8        3       0.628   1.883   0.000  -2.510  -0.000   0.000
   34   11   10    9        3       0.628   1.883   0.000  -2.510  -0.000   0.000
   33   11   10    9        3       0.628   1.883   0.000  -2.510  -0.000   0.000
   33   11   10   32        3       0.628   1.883   0.000  -2.510  -0.000   0.000
   39   13   12   36        3       0.628   1.883   0.000  -2.510  -0.000   0.000
   38   13   12   36        3       0.628   1.883   0.000  -2.510  -0.000   0.000
   35   11   10   32        3       0.628   1.883   0.000  -2.510  -0.000   0.000
   37   13   12   36        3       0.628   1.883   0.000  -2.510  -0.000   0.000
   34   11   10   32        3       0.628   1.883   0.000  -2.510  -0.000   0.000
   29    8    6    3        3       0.628   1.883   0.000  -2.510  -0.000   0.000
   29    8    6    7        3       0.628   1.883   0.000  -2.510  -0.000   0.000
   29    8    6   25        3       0.628   1.883   0.000  -2.510  -0.000   0.000
   30    9    8    6        3       0.000   0.000   0.000  -0.000  -0.000   0.000
   30    9   10   11        3       0.000   0.000   0.000  -0.000  -0.000   0.000
   32   10   12   13        3       0.000   0.000   0.000  -0.000  -0.000   0.000
   36   12   10   11        3       0.000   0.000   0.000  -0.000  -0.000   0.000
   31    9   10   11        3       0.000   0.000   0.000  -0.000  -0.000   0.000
   29    8   12   13        3       0.000   0.000   0.000  -0.000  -0.000   0.000
   31    9    8    6        3       0.000   0.000   0.000  -0.000  -0.000   0.000
   36   12    8    6        3       0.000   0.000   0.000  -0.000  -0.000   0.000
   36   12   10    9        3       0.000   0.000   0.000  -0.000  -0.000   0.000
   30    9    8   12        3       0.000   0.000   0.000  -0.000  -0.000   0.000
   36   12    8    9        3       0.000   0.000   0.000  -0.000  -0.000   0.000
   29    8    9   10        3       0.000   0.000   0.000  -0.000  -0.000   0.000
   32   10    9    8        3       0.000   0.000   0.000  -0.000  -0.000   0.000
   30    9   10   12        3       0.000   0.000   0.000  -0.000  -0.000   0.000
   32   10   12    8        3       0.000   0.000   0.000  -0.000  -0.000   0.000
   31    9    8   12        3       0.000   0.000   0.000  -0.000  -0.000   0.000
   31    9   10   12        3       0.000   0.000   0.000  -0.000  -0.000   0.000
   29    8   12   10        3       0.000   0.000   0.000  -0.000  -0.000   0.000
   36   12   10   32        3       0.000   0.000   0.000  -0.000  -0.000   0.000
   32   10    9   31        3       0.000   0.000   0.000  -0.000  -0.000   0.000
   31    9    8   29        3       0.000   0.000   0.000  -0.000  -0.000   0.000
   32   10    9   30        3       0.000   0.000   0.000  -0.000  -0.000   0.000
   36   12    8   29        3       0.000   0.000   0.000  -0.000  -0.000   0.000
   30    9    8   29        3       0.000   0.000   0.000  -0.000  -0.000   0.000

[ pairs ]
     1     4    1
     2     5    1
     1     6    1
     2     7    1
     2     8    1
     5     6    1
     4     7    1
     4     8    1
     3     9    1
     3    12    1
     7     9    1
     6    10    1
     3    14    1
     3    15    1
     8    11    1
     7    12    1
     6    13    1
     3    16    1
     1    19    1
     4    17    1
     9    13    1
     4    18    1
     2    20    1
     6    17    1
     2    21    1
    11    13    1
     6    18    1
     5    19    1
     3    22    1
     7    19    1
     6    20    1
     3    23    1
     8    19    1
     6    21    1
     3    24    1
     2    25    1
     4    25    1
     3    26    1
     3    27    1
    14    17    1
     3    28    1
    15    17    1
    14    18    1
     3    29    1
    16    17    1
    15    18    1
    16    18    1
     9    25    1
     8    26    1
     8    27    1
    17    19    1
     8    28    1
     7    29    1
     6    30    1
    18    19    1
    12    25    1
     6    31    1
    19    20    1
    10    29    1
    19    21    1
     8    32    1
    11    30    1
    20    22    1
    13    29    1
    12    30    1
    11    31    1
     9    33    1
     6    36    1
    21    22    1
    20    23    1
    12    31    1
     9    34    1
    21    23    1
    20    24    1
    19    25    1
     9    35    1
    21    24    1
    13    32    1
    12    33    1
     9    36    1
     8    37    1
    12    34    1
     8    38    1
    12    35    1
    11    36    1
    10    37    1
     8    39    1
    10    38    1
    10    39    1
    25    26    1
    25    27    1
    25    28    1
    25    29    1
    29    30    1
    29    31    1
    30    32    1
    31    32    1
    32    33    1
    29    36    1
    32    34    1
    32    35    1
    32    36    1
    36    37    1
    36    38    1
    36    39    1

