LIGPARGEN GENERATED GRO FILE
   39
    1UNK    C00    1   0.100   0.100   0.000
    1UNK    C01    2  -0.052   0.100   0.000
    1UNK    C02    3  -0.107   0.100   0.142
    1UNK    C03    4  -0.260   0.106   0.145
    1UNK    C04    5  -0.308   0.106   0.290
    1UNK    C05    6  -0.265   0.228   0.376
    1UNK    C06    7  -0.401   0.218   0.448
    1UNK    C07    8  -0.407   0.132   0.575
    1UNK    C08    9  -0.317   0.190   0.684
    1UNK    C09   10  -0.316   0.110   0.816
    1UNK    C0A   11  -0.272  -0.035   0.796
    1UNK    C0B   12  -0.223   0.178   0.916
    1UNK    C0C   13  -0.454   0.149   0.319
    1UNK    H0D   14   0.138   0.100  -0.103
    1UNK    H0E   15   0.139   0.011   0.051
    1UNK    H0F   16   0.139   0.189   0.051
    1UNK    H0G   17  -0.089   0.012  -0.054
    1UNK    H0H   18  -0.088   0.189  -0.054
    1UNK    H0I   19  -0.065   0.186   0.196
    1UNK    H0J   20  -0.072   0.010   0.195
    1UNK    H0K   21  -0.302   0.020   0.092
    1UNK    H0M   22  -0.294   0.197   0.093
    1UNK    H0N   23  -0.283   0.010   0.338
    1UNK    H0O   24  -0.253   0.321   0.319
    1UNK    H0P   25  -0.174   0.212   0.435
    1UNK    H0Q   26  -0.447   0.316   0.467
    1UNK    H0R   27  -0.378   0.029   0.552
    1UNK    H0S   28  -0.511   0.128   0.612
    1UNK    H0T   29  -0.347   0.294   0.704
    1UNK    H0U   30  -0.213   0.196   0.647
    1UNK    H0V   31  -0.418   0.111   0.857
    1UNK    H0W   32  -0.175  -0.041   0.746
    1UNK    H0X   33  -0.345  -0.091   0.736
    1UNK    H0Y   34  -0.264  -0.086   0.892
    1UNK    H0Z   35  -0.120   0.180   0.879
    1UNK    H10   36  -0.224   0.126   1.012
    1UNK    H11   37  -0.254   0.282   0.934
    1UNK    H12   38  -0.496   0.220   0.246
    1UNK    H13   39  -0.526   0.068   0.333
   1.00000   1.00000   1.00000

