LIGPARGEN GENERATED GRO FILE
   38
    1UNK    C00    1   0.100   0.100   0.000
    1UNK    C01    2  -0.052   0.100   0.000
    1UNK    N02    3  -0.111   0.100   0.134
    1UNK    C03    4  -0.128  -0.029   0.199
    1UNK    C04    5  -0.115   0.221   0.202
    1UNK    O05    6  -0.070   0.324   0.149
    1UNK    C06    7  -0.176   0.229   0.344
    1UNK    C07    8  -0.066   0.281   0.437
    1UNK    C08    9  -0.310   0.311   0.349
    1UNK    C09   10  -0.369   0.303   0.492
    1UNK    C0A   11  -0.289   0.461   0.313
    1UNK    C0B   12  -0.417   0.541   0.292
    1UNK    O0C   13  -0.486   0.498   0.174
    1UNK    C0D   14  -0.583   0.405   0.193
    1UNK    O0E   15  -0.696   0.415   0.146
    1UNK    O0F   16  -0.545   0.299   0.270
    1UNK    C0G   17  -0.412   0.248   0.250
    1UNK    H0H   18   0.137   0.100  -0.103
    1UNK    H0I   19   0.140   0.012   0.051
    1UNK    H0J   20   0.140   0.189   0.050
    1UNK    H0K   21  -0.090   0.013  -0.055
    1UNK    H0M   22  -0.087   0.189  -0.053
    1UNK    H0N   23  -0.130  -0.109   0.124
    1UNK    H0O   24  -0.222  -0.032   0.253
    1UNK    H0P   25  -0.045  -0.046   0.268
    1UNK    H0Q   26  -0.199   0.128   0.379
    1UNK    H0R   27  -0.028   0.379   0.406
    1UNK    H0S   28   0.020   0.212   0.436
    1UNK    H0T   29  -0.100   0.288   0.541
    1UNK    H0U   30  -0.304   0.350   0.566
    1UNK    H0V   31  -0.385   0.199   0.522
    1UNK    H0W   32  -0.466   0.354   0.501
    1UNK    H0X   33  -0.234   0.469   0.219
    1UNK    H0Y   34  -0.229   0.510   0.391
    1UNK    H0Z   35  -0.391   0.646   0.276
    1UNK    H10   36  -0.483   0.539   0.380
    1UNK    H11   37  -0.382   0.261   0.146
    1UNK    H12   38  -0.419   0.141   0.268
   1.00000   1.00000   1.00000

