LIGPARGEN GENERATED GRO FILE
   47
    1UNK    C00    1   0.100   0.100   0.000
    1UNK    C01    2  -0.053   0.100   0.000
    1UNK    C02    3  -0.117   0.100   0.144
    1UNK    C03    4  -0.085   0.238   0.204
    1UNK    C04    5  -0.267   0.038   0.140
    1UNK    C05    6  -0.263  -0.113   0.104
    1UNK    C06    7  -0.205  -0.219   0.200
    1UNK    C07    8  -0.067  -0.200   0.263
    1UNK    C08    9  -0.091  -0.124   0.395
    1UNK    C09   10  -0.240  -0.141   0.428
    1UNK    C0A   11  -0.288  -0.245   0.324
    1UNK    C0B   12  -0.332  -0.016   0.452
    1UNK    C0C   13  -0.289   0.133   0.446
    1UNK    C0D   14  -0.361   0.196   0.321
    1UNK    C0E   15  -0.393   0.076   0.237
    1UNK    C0F   16  -0.522   0.086   0.150
    1UNK    C0G   17  -0.444  -0.013   0.353
    1UNK    H0H   18   0.138   0.084  -0.102
    1UNK    H0I   19   0.139   0.020   0.063
    1UNK    H0J   20   0.141   0.195   0.034
    1UNK    H0K   21  -0.084   0.013  -0.058
    1UNK    H0M   22  -0.088   0.188  -0.055
    1UNK    H0N   23  -0.055   0.033   0.201
    1UNK    H0O   24  -0.136   0.317   0.149
    1UNK    H0P   25   0.023   0.259   0.197
    1UNK    H0Q   26  -0.103   0.246   0.310
    1UNK    H0R   27  -0.301   0.085   0.046
    1UNK    H0S   28  -0.208  -0.125   0.010
    1UNK    H0T   29  -0.365  -0.144   0.078
    1UNK    H0U   30  -0.202  -0.313   0.141
    1UNK    H0V   31   0.007  -0.155   0.195
    1UNK    H0W   32  -0.027  -0.299   0.287
    1UNK    H0X   33  -0.058  -0.020   0.392
    1UNK    H0Y   34  -0.030  -0.171   0.472
    1UNK    H0Z   35  -0.242  -0.193   0.524
    1UNK    H10   36  -0.394  -0.252   0.301
    1UNK    H11   37  -0.263  -0.345   0.363
    1UNK    H12   38  -0.372  -0.030   0.553
    1UNK    H13   39  -0.182   0.147   0.451
    1UNK    H14   40  -0.330   0.187   0.533
    1UNK    H15   41  -0.307   0.275   0.269
    1UNK    H16   42  -0.453   0.246   0.354
    1UNK    H17   43  -0.507   0.142   0.059
    1UNK    H18   44  -0.605   0.131   0.206
    1UNK    H19   45  -0.554  -0.016   0.121
    1UNK    H1A   46  -0.492  -0.106   0.326
    1UNK    H1B   47  -0.528   0.039   0.403
   1.00000   1.00000   1.00000

