LIGPARGEN GENERATED GRO FILE
   48
    1UNK    C00    1   0.100   0.100   0.000
    1UNK    C01    2  -0.052   0.100   0.000
    1UNK    C02    3  -0.119   0.100   0.138
    1UNK    C03    4  -0.085  -0.024   0.223
    1UNK    O04    5  -0.163  -0.019   0.343
    1UNK    C05    6  -0.296  -0.031   0.320
    1UNK    O06    7  -0.349  -0.123   0.259
    1UNK    O07    8  -0.363   0.073   0.375
    1UNK    C08    9  -0.333   0.211   0.335
    1UNK    C09   10  -0.405   0.243   0.204
    1UNK    C0A   11  -0.182   0.252   0.344
    1UNK    C0B   12  -0.161   0.396   0.403
    1UNK    C0C   13  -0.219   0.508   0.315
    1UNK    C0D   14  -0.217   0.414   0.547
    1UNK    C0E   15  -0.159   0.320   0.654
    1UNK    N0F   16  -0.014   0.332   0.674
    1UNK    C0G   17   0.023   0.464   0.723
    1UNK    C0H   18   0.031   0.230   0.769
    1UNK    C0I   19  -0.099   0.233   0.216
    1UNK    H0J   20   0.136   0.100  -0.103
    1UNK    H0K   21   0.140   0.011   0.049
    1UNK    H0M   22   0.140   0.189   0.050
    1UNK    H0N   23  -0.087   0.012  -0.056
    1UNK    H0O   24  -0.087   0.187  -0.056
    1UNK    H0P   25  -0.225   0.093   0.113
    1UNK    H0Q   26   0.021  -0.022   0.253
    1UNK    H0R   27  -0.103  -0.117   0.169
    1UNK    H0S   28  -0.387   0.268   0.411
    1UNK    H0T   29  -0.411   0.158   0.136
    1UNK    H0U   30  -0.361   0.328   0.151
    1UNK    H0V   31  -0.510   0.269   0.225
    1UNK    H0W   32  -0.135   0.187   0.419
    1UNK    H0X   33  -0.053   0.413   0.407
    1UNK    H0Y   34  -0.328   0.501   0.307
    1UNK    H0Z   35  -0.176   0.507   0.214
    1UNK    H10   36  -0.196   0.606   0.358
    1UNK    H11   37  -0.326   0.403   0.547
    1UNK    H12   38  -0.201   0.518   0.578
    1UNK    H13   39  -0.184   0.217   0.626
    1UNK    H14   40  -0.212   0.339   0.748
    1UNK    H15   41   0.005   0.541   0.647
    1UNK    H16   42   0.131   0.469   0.745
    1UNK    H17   43  -0.032   0.492   0.814
    1UNK    H18   44   0.010   0.129   0.731
    1UNK    H19   45  -0.016   0.241   0.867
    1UNK    H1A   46   0.140   0.235   0.783
    1UNK    H1B   47   0.007   0.242   0.243
    1UNK    H1C   48  -0.120   0.315   0.146
   1.00000   1.00000   1.00000

