LIGPARGEN GENERATED GRO FILE
   25
    1UNK    C00    1   0.100   0.100   0.000
    1UNK    O01    2  -0.043   0.100   0.000
    1UNK    C02    3  -0.098   0.100   0.123
    1UNK    O03    4  -0.040   0.100   0.230
    1UNK    C04    5  -0.252   0.100   0.113
    1UNK    O05    6  -0.308   0.100   0.004
    1UNK    C06    7  -0.327   0.100   0.245
    1UNK    C07    8  -0.343   0.245   0.292
    1UNK    C08    9  -0.464   0.032   0.233
    1UNK    C09   10  -0.461  -0.116   0.191
    1UNK    C0A   11  -0.381  -0.204   0.286
    1UNK    Cl0   12  -0.629  -0.176   0.183
    1UNK    H0C   13   0.134   0.085  -0.103
    1UNK    H0D   14   0.139   0.018   0.062
    1UNK    H0E   15   0.137   0.197   0.035
    1UNK    H0F   16  -0.267   0.046   0.319
    1UNK    H0G   17  -0.420   0.297   0.235
    1UNK    H0H   18  -0.250   0.302   0.281
    1UNK    H0I   19  -0.371   0.247   0.398
    1UNK    H0J   20  -0.525   0.088   0.160
    1UNK    H0K   21  -0.516   0.041   0.330
    1UNK    H0M   22  -0.420  -0.126   0.090
    1UNK    H0N   23  -0.411  -0.187   0.390
    1UNK    H0O   24  -0.274  -0.184   0.278
    1UNK    H0P   25  -0.396  -0.310   0.263
   1.00000   1.00000   1.00000

