LIGPARGEN GENERATED GRO FILE
   45
    1UNK    C00    1   0.100   0.100   0.000
    1UNK    C01    2  -0.053   0.100   0.000
    1UNK    C02    3  -0.106   0.100   0.143
    1UNK    C03    4  -0.261   0.106   0.161
    1UNK    C04    5  -0.321  -0.019   0.095
    1UNK    O05    6  -0.279   0.091   0.304
    1UNK    C06    7  -0.275   0.195   0.392
    1UNK    O07    8  -0.278   0.176   0.513
    1UNK    O08    9  -0.274   0.320   0.340
    1UNK    C09   10  -0.263   0.349   0.200
    1UNK    C0A   11  -0.306   0.494   0.174
    1UNK    C0B   12  -0.225   0.602   0.251
    1UNK    C0C   13  -0.074   0.596   0.227
    1UNK    C0D   14  -0.277   0.741   0.211
    1UNK    C0E   15  -0.332   0.238   0.114
    1UNK    N0F   16  -0.481   0.228   0.112
    1UNK    C0G   17  -0.549   0.204   0.238
    1UNK    C0H   18  -0.550   0.332   0.035
    1UNK    H0I   19   0.138   0.091  -0.102
    1UNK    H0J   20   0.140   0.016   0.059
    1UNK    H0K   21   0.139   0.193   0.043
    1UNK    H0M   22  -0.087   0.011  -0.053
    1UNK    H0N   23  -0.088   0.188  -0.055
    1UNK    H0O   24  -0.056   0.179   0.201
    1UNK    H0P   25  -0.070   0.009   0.193
    1UNK    H0Q   26  -0.263  -0.109   0.122
    1UNK    H0R   27  -0.321  -0.011  -0.014
    1UNK    H0S   28  -0.422  -0.040   0.129
    1UNK    H0T   29  -0.156   0.348   0.177
    1UNK    H0U   30  -0.409   0.507   0.208
    1UNK    H0V   31  -0.301   0.514   0.067
    1UNK    H0W   32  -0.243   0.589   0.358
    1UNK    H0X   33  -0.049   0.609   0.122
    1UNK    H0Y   34  -0.031   0.502   0.262
    1UNK    H0Z   35  -0.024   0.676   0.283
    1UNK    H10   36  -0.263   0.759   0.104
    1UNK    H11   37  -0.224   0.819   0.266
    1UNK    H12   38  -0.384   0.750   0.233
    1UNK    H13   39  -0.302   0.254   0.009
    1UNK    H14   40  -0.517   0.110   0.284
    1UNK    H15   41  -0.657   0.190   0.221
    1UNK    H16   42  -0.537   0.286   0.309
    1UNK    H17   43  -0.521   0.328  -0.071
    1UNK    H18   44  -0.534   0.433   0.071
    1UNK    H19   45  -0.659   0.316   0.037
   1.00000   1.00000   1.00000

