
;
; GENERATED BY LigParGen Server
; Jorgensen Lab @ Yale University 
;
[ atomtypes ]
  opls_818  H818     1.0080     0.000    A    2.50000E-01   1.25520E-01
  opls_812  C812    12.0110     0.000    A    3.45000E-01   3.47272E-01
  opls_824  H824     1.0080     0.000    A    2.50000E-01   1.25520E-01
  opls_833  H833     1.0080     0.000    A    2.50000E-01   1.25520E-01
  opls_810  C810    12.0110     0.000    A    3.45000E-01   3.47272E-01
  opls_834  H834     1.0080     0.000    A    2.50000E-01   1.25520E-01
  opls_828  H828     1.0080     0.000    A    2.50000E-01   1.25520E-01
  opls_807  C807    12.0110     0.000    A    3.45000E-01   3.47272E-01
  opls_806  C806    12.0110     0.000    A    3.50000E-01   2.76144E-01
  opls_815  H815     1.0080     0.000    A    2.50000E-01   1.25520E-01
  opls_801  C801    12.0110     0.000    A    3.50000E-01   2.76144E-01
  opls_830  H830     1.0080     0.000    A    2.50000E-01   1.25520E-01
  opls_822  H822     1.0080     0.000    A    2.50000E-01   1.25520E-01
  opls_808  C808    12.0110     0.000    A    3.45000E-01   3.47272E-01
  opls_825  H825     1.0080     0.000    A    2.50000E-01   1.25520E-01
  opls_826  H826     1.0080     0.000    A    2.50000E-01   1.25520E-01
  opls_814  H814     1.0080     0.000    A    2.50000E-01   1.25520E-01
  opls_821  H821     1.0080     0.000    A    2.50000E-01   1.25520E-01
  opls_820  H820     1.0080     0.000    A    2.50000E-01   1.25520E-01
  opls_803  C803    12.0110     0.000    A    3.45000E-01   3.47272E-01
  opls_829  H829     1.0080     0.000    A    2.50000E-01   1.25520E-01
  opls_831  H831     1.0080     0.000    A    2.50000E-01   1.25520E-01
  opls_832  H832     1.0080     0.000    A    2.50000E-01   1.25520E-01
  opls_816  H816     1.0080     0.000    A    2.50000E-01   1.25520E-01
  opls_800  C800    12.0110     0.000    A    3.50000E-01   2.76144E-01
  opls_811  C811    12.0110     0.000    A    3.50000E-01   2.76144E-01
  opls_823  H823     1.0080     0.000    A    2.50000E-01   1.25520E-01
  opls_813  C813    12.0110     0.000    A    3.50000E-01   2.76144E-01
  opls_805  O805    15.9990     0.000    A    2.90000E-01   5.85760E-01
  opls_802  C802    12.0110     0.000    A    3.45000E-01   3.47272E-01
  opls_835  H835     1.0080     0.000    A    2.50000E-01   1.25520E-01
  opls_819  H819     1.0080     0.000    A    2.50000E-01   1.25520E-01
  opls_804  C804    12.0110     0.000    A    3.50000E-01   2.76144E-01
  opls_827  H827     1.0080     0.000    A    2.50000E-01   1.25520E-01
  opls_817  H817     1.0080     0.000    A    2.50000E-01   1.25520E-01
  opls_809  C809    12.0110     0.000    A    3.45000E-01   3.47272E-01
[ moleculetype ]
; Name               nrexcl
UNK                   3
[ atoms ]
;   nr       type  resnr residue  atom   cgnr     charge       mass  
     1   opls_800      1    UNK   C00      1    -0.2378    12.0110 
     2   opls_801      1    UNK   C01      1    -0.1677    12.0110 
     3   opls_802      1    UNK   C02      1    -0.1042    12.0110 
     4   opls_803      1    UNK   C03      1    -0.1294    12.0110 
     5   opls_804      1    UNK   C04      1     0.0282    12.0110 
     6   opls_805      1    UNK   O05      1    -0.3842    15.9990 
     7   opls_806      1    UNK   C06      1    -0.0499    12.0110 
     8   opls_807      1    UNK   C07      1    -0.0952    12.0110 
     9   opls_808      1    UNK   C08      1     -0.194    12.0110 
    10   opls_809      1    UNK   C09      1    -0.1732    12.0110 
    11   opls_810      1    UNK   C0A      1    -0.2199    12.0110 
    12   opls_811      1    UNK   C0B      1    -0.1352    12.0110 
    13   opls_812      1    UNK   C0C      1    -0.0801    12.0110 
    14   opls_813      1    UNK   C0D      1    -0.2064    12.0110 
    15   opls_814      1    UNK   H0E      1     0.0811     1.0080 
    16   opls_815      1    UNK   H0F      1     0.0811     1.0080 
    17   opls_816      1    UNK   H0G      1     0.0811     1.0080 
    18   opls_817      1    UNK   H0H      1     0.0909     1.0080 
    19   opls_818      1    UNK   H0I      1     0.0909     1.0080 
    20   opls_819      1    UNK   H0J      1     0.1151     1.0080 
    21   opls_820      1    UNK   H0K      1     0.1191     1.0080 
    22   opls_821      1    UNK   H0M      1     0.0808     1.0080 
    23   opls_822      1    UNK   H0N      1     0.0808     1.0080 
    24   opls_823      1    UNK   H0O      1     0.0804     1.0080 
    25   opls_824      1    UNK   H0P      1     0.0804     1.0080 
    26   opls_825      1    UNK   H0Q      1     0.0804     1.0080 
    27   opls_826      1    UNK   H0R      1     0.1173     1.0080 
    28   opls_827      1    UNK   H0S      1     0.1349     1.0080 
    29   opls_828      1    UNK   H0T      1      0.127     1.0080 
    30   opls_829      1    UNK   H0U      1      0.127     1.0080 
    31   opls_830      1    UNK   H0V      1     0.1337     1.0080 
    32   opls_831      1    UNK   H0W      1     0.0963     1.0080 
    33   opls_832      1    UNK   H0X      2     0.0963     1.0080 
    34   opls_833      1    UNK   H0Y      2     0.0848     1.0080 
    35   opls_834      1    UNK   H0Z      2     0.0848     1.0080 
    36   opls_835      1    UNK   H10      2     0.0848     1.0080 
[ bonds ]
    2     1     1      0.1529 224262.400
    3     2     1      0.1510 234304.000
    4     3     1      0.1520 217568.000
    5     4     1      0.1510 234304.000
    6     5     1      0.1410 267776.000
    7     6     1      0.1410 267776.000
    8     4     1      0.1520 217568.000
    9     8     1      0.1520 217568.000
   10     9     1      0.1520 217568.000
   11     9     1      0.1520 217568.000
   12    11     1      0.1510 234304.000
   13     3     1      0.1520 217568.000
   14    13     1      0.1510 234304.000
   15     1     1      0.1090 284512.000
   16     1     1      0.1090 284512.000
   17     1     1      0.1090 284512.000
   18     2     1      0.1090 284512.000
   19     2     1      0.1090 284512.000
   20     3     1      0.1088 284512.000
   21     4     1      0.1088 284512.000
   22     5     1      0.1090 284512.000
   23     5     1      0.1090 284512.000
   24     7     1      0.1090 284512.000
   25     7     1      0.1090 284512.000
   26     7     1      0.1090 284512.000
   27     8     1      0.1088 284512.000
   28     9     1      0.1088 284512.000
   29    10     1      0.1088 284512.000
   30    10     1      0.1088 284512.000
   31    11     1      0.1088 284512.000
   32    12     1      0.1090 284512.000
   33    12     1      0.1090 284512.000
   34    14     1      0.1090 284512.000
   35    14     1      0.1090 284512.000
   36    14     1      0.1090 284512.000
   13     8     1      0.1520 217568.000
   11    10     1      0.1520 217568.000
   13    12     1      0.1510 234304.000

[ angles ]
;  ai    aj    ak funct            c0            c1            c2            c3 
    1     2     3     1    112.700    488.273
    2     3     4     1    117.200    313.800
    3     4     5     1    117.200    313.800
    4     5     6     1    109.500    418.400
    5     6     7     1    109.500    502.080
    3     4     8     1     83.000    251.040
    4     8     9     1     83.000    251.040
    8     9    10     1     83.000    251.040
    8     9    11     1     83.000    251.040
    9    11    12     1    117.200    313.800
    2     3    13     1    117.200    313.800
    3    13    14     1    117.200    313.800
    2     1    15     1    110.700    313.800
    2     1    16     1    110.700    313.800
    2     1    17     1    110.700    313.800
    1     2    18     1    110.700    313.800
    1     2    19     1    110.700    313.800
    2     3    20     1    114.300    292.880
    3     4    21     1    117.200    313.800
    4     5    22     1    110.700    313.800
    4     5    23     1    110.700    313.800
    6     7    24     1    109.500    292.880
    6     7    25     1    109.500    292.880
    6     7    26     1    109.500    292.880
    4     8    27     1    117.200    313.800
    8     9    28     1    117.200    313.800
    9    10    29     1    117.200    313.800
    9    10    30     1    117.200    313.800
    9    11    31     1    117.200    313.800
   11    12    32     1    110.700    313.800
   11    12    33     1    110.700    313.800
   13    14    34     1    110.700    313.800
   13    14    35     1    110.700    313.800
   13    14    36     1    110.700    313.800
   18     2    19     1    107.800    276.144
   12    11    31     1    114.300    292.880
   10    11    12     1    117.200    313.800
    8    13    12     1    117.200    313.800
    4     3    20     1    117.200    313.800
    9    11    10     1     83.000    251.040
   11     9    28     1    117.200    313.800
   11    12    13     1    112.700    488.273
   22     5    23     1    107.800    276.144
    3     2    18     1    110.700    313.800
   34    14    36     1    107.800    276.144
    6     5    22     1    109.500    292.880
    9    10    11     1     83.000    251.040
    8     4    21     1    117.200    313.800
   13     3    20     1    117.200    313.800
    9     8    13     1     83.000    251.040
   32    12    33     1    107.800    276.144
   13    12    33     1    110.700    313.800
   15     1    16     1    107.800    276.144
   29    10    30     1    114.300    292.880
    5     4     8     1    117.200    313.800
    9     8    27     1    117.200    313.800
    3     2    19     1    110.700    313.800
    4     8    13     1     83.000    251.040
   34    14    35     1    107.800    276.144
   25     7    26     1    107.800    276.144
    8    13    14     1    117.200    313.800
   11    10    29     1    117.200    313.800
   15     1    17     1    107.800    276.144
   16     1    17     1    107.800    276.144
   10     9    11     1     83.000    251.040
    3    13     8     1     83.000    251.040
   13     8    27     1    117.200    313.800
   35    14    36     1    107.800    276.144
    6     5    23     1    109.500    292.880
   13    12    32     1    110.700    313.800
   10     9    28     1    117.200    313.800
    5     4    21     1    114.300    292.880
   24     7    26     1    107.800    276.144
    4     3    13     1     83.000    251.040
   10    11    31     1    117.200    313.800
   24     7    25     1    107.800    276.144
   12    13    14     1    114.300    292.880
   11    10    30     1    117.200    313.800
    3    13    12     1    117.200    313.800

[ dihedrals ]
; IMPROPER DIHEDRAL ANGLES 
;  ai    aj    ak    al funct            c0            c1            c2            c3            c4            c5

[ dihedrals ]
; PROPER DIHEDRAL ANGLES
;  ai    aj    ak    al funct            c0            c1            c2            c3            c4            c5
   14   13   12   11        3       0.000   0.000   0.000  -0.000  -0.000   0.000
    5    4    3    2        3       0.000   0.000   0.000  -0.000  -0.000   0.000
   12   13    3    2        3       0.000   0.000   0.000  -0.000  -0.000   0.000
   14   13    3    2        3       0.000   0.000   0.000  -0.000  -0.000   0.000
   12   11   10    9        3       0.000   0.000   0.000  -0.000  -0.000   0.000
   12   13    8    9        3       0.000   0.000   0.000  -0.000  -0.000   0.000
   12   13    8    4        3       0.000   0.000   0.000  -0.000  -0.000   0.000
   12   11    9    8        3       0.000   0.000   0.000  -0.000  -0.000   0.000
   14   13    3    4        3       0.000   0.000   0.000  -0.000  -0.000   0.000
   14   13    8    9        3       0.000   0.000   0.000  -0.000  -0.000   0.000
   12   11    9   10        3       0.000   0.000   0.000  -0.000  -0.000   0.000
   14   13    8    4        3       0.000   0.000   0.000  -0.000  -0.000   0.000
   12   13    3    4        3       0.000   0.000   0.000  -0.000  -0.000   0.000
    7    6    5    4        3       1.715   2.845   1.046  -5.607  -0.000   0.000
   11   12   13    3        3       0.000   0.000   0.000  -0.000  -0.000   0.000
   11   12   13    8        3       0.000   0.000   0.000  -0.000  -0.000   0.000
   13   12   11   10        3       0.000   0.000   0.000  -0.000  -0.000   0.000
   13   12   11    9        3       0.000   0.000   0.000  -0.000  -0.000   0.000
    4    3    2    1        3       0.000   0.000   0.000  -0.000  -0.000   0.000
   13    3    2    1        3       0.000   0.000   0.000  -0.000  -0.000   0.000
    8    4    5    6        3       0.000   0.000   0.000  -0.000  -0.000   0.000
   13    3    4    5        3       0.000   0.000   0.000  -0.000  -0.000   0.000
   13    8    4    5        3       0.000   0.000   0.000  -0.000  -0.000   0.000
    8    4    3    2        3       0.000   0.000   0.000  -0.000  -0.000   0.000
    9    8    4    5        3       0.000   0.000   0.000  -0.000  -0.000   0.000
    8   13    3    2        3       0.000   0.000   0.000  -0.000  -0.000   0.000
   13    8    9   10        3       0.000   0.000   0.000  -0.000  -0.000   0.000
    9    8    4    3        3       0.000   0.000   0.000  -0.000  -0.000   0.000
   10    9    8    4        3       0.000   0.000   0.000  -0.000  -0.000   0.000
   11    9    8   10        3       0.000   0.000   0.000  -0.000  -0.000   0.000
    9    8   13    3        3       0.000   0.000   0.000  -0.000  -0.000   0.000
   11    9    8    4        3       0.000   0.000   0.000  -0.000  -0.000   0.000
   13    8    9   11        3       0.000   0.000   0.000  -0.000  -0.000   0.000
   15    1    2    3        3       0.628   1.883   0.000  -2.510  -0.000   0.000
   17    1    2    3        3       0.628   1.883   0.000  -2.510  -0.000   0.000
   16    1    2    3        3       0.628   1.883   0.000  -2.510  -0.000   0.000
   19    2    1   17        3       0.628   1.883   0.000  -2.510  -0.000   0.000
   18    2    1   15        3       0.628   1.883   0.000  -2.510  -0.000   0.000
   19    2    1   16        3       0.628   1.883   0.000  -2.510  -0.000   0.000
   18    2    1   16        3       0.628   1.883   0.000  -2.510  -0.000   0.000
   19    2    1   15        3       0.628   1.883   0.000  -2.510  -0.000   0.000
   18    2    1   17        3       0.628   1.883   0.000  -2.510  -0.000   0.000
   33   12   13   14        3       0.628   1.883   0.000  -2.510  -0.000   0.000
   35   14   13   12        3       0.628   1.883   0.000  -2.510  -0.000   0.000
   32   12   13   14        3       0.628   1.883   0.000  -2.510  -0.000   0.000
   36   14   13   12        3       0.628   1.883   0.000  -2.510  -0.000   0.000
   34   14   13   12        3       0.628   1.883   0.000  -2.510  -0.000   0.000
   33   12   13    3        3       0.628   1.883   0.000  -2.510  -0.000   0.000
   35   14   13    3        3       0.628   1.883   0.000  -2.510  -0.000   0.000
   22    5    4    3        3       0.628   1.883   0.000  -2.510  -0.000   0.000
   32   12   11   10        3       0.628   1.883   0.000  -2.510  -0.000   0.000
   33   12   11    9        3       0.628   1.883   0.000  -2.510  -0.000   0.000
   18    2    3    4        3       0.628   1.883   0.000  -2.510  -0.000   0.000
   19    2    3    4        3       0.628   1.883   0.000  -2.510  -0.000   0.000
   18    2    3   13        3       0.628   1.883   0.000  -2.510  -0.000   0.000
   22    5    4    8        3       0.628   1.883   0.000  -2.510  -0.000   0.000
   33   12   13    8        3       0.628   1.883   0.000  -2.510  -0.000   0.000
   23    5    4    3        3       0.628   1.883   0.000  -2.510  -0.000   0.000
   34   14   13    3        3       0.628   1.883   0.000  -2.510  -0.000   0.000
   19    2    3   13        3       0.628   1.883   0.000  -2.510  -0.000   0.000
   36   14   13    3        3       0.628   1.883   0.000  -2.510  -0.000   0.000
   34   14   13    8        3       0.628   1.883   0.000  -2.510  -0.000   0.000
   36   14   13    8        3       0.628   1.883   0.000  -2.510  -0.000   0.000
   35   14   13    8        3       0.628   1.883   0.000  -2.510  -0.000   0.000
   33   12   11   10        3       0.628   1.883   0.000  -2.510  -0.000   0.000
   32   12   13    3        3       0.628   1.883   0.000  -2.510  -0.000   0.000
   32   12   11    9        3       0.628   1.883   0.000  -2.510  -0.000   0.000
   32   12   13    8        3       0.628   1.883   0.000  -2.510  -0.000   0.000
   23    5    4    8        3       0.628   1.883   0.000  -2.510  -0.000   0.000
   32   12   11   31        3       0.628   1.883   0.000  -2.510  -0.000   0.000
   33   12   11   31        3       0.628   1.883   0.000  -2.510  -0.000   0.000
   22    5    4   21        3       0.628   1.883   0.000  -2.510  -0.000   0.000
   23    5    4   21        3       0.628   1.883   0.000  -2.510  -0.000   0.000
   25    7    6    5        3       1.590   4.770   0.000  -6.360  -0.000   0.000
   22    5    6    7        3       1.590   4.770   0.000  -6.360  -0.000   0.000
   23    5    6    7        3       1.590   4.770   0.000  -6.360  -0.000   0.000
   26    7    6    5        3       1.590   4.770   0.000  -6.360  -0.000   0.000
   24    7    6    5        3       1.590   4.770   0.000  -6.360  -0.000   0.000
   20    3    2    1        3       0.628   1.883   0.000  -2.510  -0.000   0.000
   31   11   12   13        3       0.000   0.000   0.000  -0.000  -0.000   0.000
   20    3    2   18        3       0.628   1.883   0.000  -2.510  -0.000   0.000
   20    3    2   19        3       0.628   1.883   0.000  -2.510  -0.000   0.000
   21    4    5    6        3       0.979   2.937   0.000  -3.916  -0.000   0.000
   27    8   13   14        3       0.000   0.000   0.000  -0.000  -0.000   0.000
   27    8    4    5        3       0.000   0.000   0.000  -0.000  -0.000   0.000
   30   10   11   12        3       0.000   0.000   0.000  -0.000  -0.000   0.000
   20    3   13   14        3       0.000   0.000   0.000  -0.000  -0.000   0.000
   29   10   11   12        3       0.000   0.000   0.000  -0.000  -0.000   0.000
   20    3    4    5        3       0.000   0.000   0.000  -0.000  -0.000   0.000
   20    3   13   12        3       0.000   0.000   0.000  -0.000  -0.000   0.000
   27    8   13   12        3       0.000   0.000   0.000  -0.000  -0.000   0.000
   28    9   11   12        3       0.000   0.000   0.000  -0.000  -0.000   0.000
   21    4    3    2        3       0.000   0.000   0.000  -0.000  -0.000   0.000
   21    4    8   13        3       0.000   0.000   0.000  -0.000  -0.000   0.000
   28    9   10   11        3       0.000   0.000   0.000  -0.000  -0.000   0.000
   29   10    9    8        3       0.000   0.000   0.000  -0.000  -0.000   0.000
   20    3    4    8        3       0.000   0.000   0.000  -0.000  -0.000   0.000
   30   10    9    8        3       0.000   0.000   0.000  -0.000  -0.000   0.000
   20    3   13    8        3       0.000   0.000   0.000  -0.000  -0.000   0.000
   28    9   11   10        3       0.000   0.000   0.000  -0.000  -0.000   0.000
   27    8   13    3        3       0.000   0.000   0.000  -0.000  -0.000   0.000
   29   10   11    9        3       0.000   0.000   0.000  -0.000  -0.000   0.000
   21    4    3   13        3       0.000   0.000   0.000  -0.000  -0.000   0.000
   27    8    9   10        3       0.000   0.000   0.000  -0.000  -0.000   0.000
   31   11    9    8        3       0.000   0.000   0.000  -0.000  -0.000   0.000
   31   11   10    9        3       0.000   0.000   0.000  -0.000  -0.000   0.000
   28    9    8    4        3       0.000   0.000   0.000  -0.000  -0.000   0.000
   31   11    9   10        3       0.000   0.000   0.000  -0.000  -0.000   0.000
   21    4    8    9        3       0.000   0.000   0.000  -0.000  -0.000   0.000
   30   10    9   11        3       0.000   0.000   0.000  -0.000  -0.000   0.000
   28    9    8   13        3       0.000   0.000   0.000  -0.000  -0.000   0.000
   29   10    9   11        3       0.000   0.000   0.000  -0.000  -0.000   0.000
   27    8    9   11        3       0.000   0.000   0.000  -0.000  -0.000   0.000
   27    8    4    3        3       0.000   0.000   0.000  -0.000  -0.000   0.000
   30   10   11    9        3       0.000   0.000   0.000  -0.000  -0.000   0.000
   31   11   10   30        3       0.000   0.000   0.000  -0.000  -0.000   0.000
   31   11    9   28        3       0.000   0.000   0.000  -0.000  -0.000   0.000
   28    9    8   27        3       0.000   0.000   0.000  -0.000  -0.000   0.000
   21    4    3   20        3       0.000   0.000   0.000  -0.000  -0.000   0.000
   30   10    9   28        3       0.000   0.000   0.000  -0.000  -0.000   0.000
   31   11   10   29        3       0.000   0.000   0.000  -0.000  -0.000   0.000
   29   10    9   28        3       0.000   0.000   0.000  -0.000  -0.000   0.000
   27    8    4   21        3       0.000   0.000   0.000  -0.000  -0.000   0.000
    6    5    4    3        3       0.000   0.000   0.000  -0.000  -0.000   0.000

[ pairs ]
     1     4    1
     2     5    1
     3     6    1
     2     8    1
     4     7    1
     3     9    1
     6     8    1
     5     9    1
     4    10    1
     3    11    1
     2    12    1
     1    13    1
     4    11    1
     4    12    1
     2    14    1
     5    13    1
     4    14    1
     3    15    1
     3    16    1
     3    17    1
     1    20    1
     4    18    1
    10    13    1
     9    14    1
     4    19    1
     2    21    1
    11    14    1
     5    20    1
     3    22    1
     3    23    1
     6    21    1
     8    20    1
     7    22    1
     5    24    1
     9    21    1
     8    22    1
     7    23    1
     5    25    1
     3    27    1
    13    18    1
     8    23    1
     5    26    1
    13    19    1
    12    20    1
     5    27    1
     4    28    1
    15    18    1
    16    18    1
    15    19    1
    14    20    1
    13    21    1
    17    18    1
    16    19    1
     3    32    1
    17    19    1
     3    33    1
    10    27    1
     8    29    1
     3    34    1
    18    20    1
    11    27    1
     8    30    1
     3    35    1
    19    20    1
    12    27    1
     8    31    1
     3    36    1
    12    28    1
     8    32    1
    20    21    1
    14    27    1
    13    28    1
    12    29    1
     9    32    1
     8    33    1
    12    30    1
    10    32    1
     9    33    1
     8    34    1
    21    22    1
    10    33    1
     8    35    1
    21    23    1
    13    31    1
     8    36    1
    14    32    1
    12    34    1
    14    33    1
    12    35    1
    21    27    1
    12    36    1
    27    28    1
    28    29    1
    28    30    1
    28    31    1
    29    31    1
    30    31    1
    31    32    1
    31    33    1

