LIGPARGEN GENERATED GRO FILE
   36
    1UNK    C00    1   0.100   0.100   0.000
    1UNK    C01    2  -0.052   0.100   0.000
    1UNK    C02    3  -0.106   0.100   0.142
    1UNK    C03    4  -0.263   0.100   0.160
    1UNK    C04    5  -0.356   0.010   0.078
    1UNK    O05    6  -0.491   0.040   0.115
    1UNK    C06    7  -0.582  -0.059   0.068
    1UNK    C07    8  -0.236   0.043   0.302
    1UNK    C08    9  -0.193   0.140   0.413
    1UNK    C09   10  -0.158   0.105   0.554
    1UNK    C0A   11  -0.050   0.102   0.449
    1UNK    C0B   12  -0.014  -0.020   0.371
    1UNK    C0C   13  -0.103  -0.023   0.244
    1UNK    C0D   14  -0.094  -0.159   0.176
    1UNK    H0E   15   0.138   0.111  -0.102
    1UNK    H0F   16   0.139   0.006   0.041
    1UNK    H0G   17   0.140   0.182   0.060
    1UNK    H0H   18  -0.089   0.015  -0.058
    1UNK    H0I   19  -0.086   0.191  -0.051
    1UNK    H0J   20  -0.063   0.191   0.189
    1UNK    H0K   21  -0.302   0.203   0.158
    1UNK    H0M   22  -0.338  -0.096   0.099
    1UNK    H0N   23  -0.344   0.027  -0.029
    1UNK    H0O   24  -0.683  -0.030   0.094
    1UNK    H0P   25  -0.560  -0.155   0.115
    1UNK    H0Q   26  -0.575  -0.069  -0.041
    1UNK    H0R   27  -0.311  -0.027   0.340
    1UNK    H0S   28  -0.213   0.243   0.387
    1UNK    H0T   29  -0.196   0.012   0.594
    1UNK    H0U   30  -0.154   0.186   0.626
    1UNK    H0V   31   0.026   0.179   0.447
    1UNK    H0W   32  -0.037  -0.109   0.432
    1UNK    H0X   33   0.092  -0.024   0.346
    1UNK    H0Y   34   0.011  -0.184   0.156
    1UNK    H0Z   35  -0.144  -0.162   0.079
    1UNK    H10   36  -0.136  -0.238   0.238
   1.00000   1.00000   1.00000

