LIGPARGEN GENERATED GRO FILE
   47
    1UNK    C00    1   0.100   0.100   0.000
    1UNK    C01    2  -0.052   0.100   0.000
    1UNK    C02    3  -0.108   0.100   0.142
    1UNK    C03    4  -0.261   0.100   0.142
    1UNK    C04    5  -0.316   0.100   0.284
    1UNK    C05    6  -0.470   0.100   0.287
    1UNK    C06    7  -0.519   0.100   0.432
    1UNK    C07    8  -0.673   0.109   0.453
    1UNK    C08    9  -0.744  -0.009   0.381
    1UNK    C09   10  -0.898  -0.015   0.392
    1UNK    C0A   11  -0.967   0.106   0.330
    1UNK    C0B   12  -0.951  -0.143   0.324
    1UNK    C0C   13  -0.706   0.109   0.604
    1UNK    S0D   14  -0.644   0.251   0.694
    1UNK    C0E   15  -0.705   0.223   0.859
    1UNK    O0F   16  -0.500   0.244   0.704
    1UNK    O0G   17  -0.710   0.370   0.642
    1UNK    H0H   18   0.138   0.100  -0.103
    1UNK    H0I   19   0.139   0.011   0.051
    1UNK    H0J   20   0.139   0.189   0.051
    1UNK    H0K   21  -0.088   0.012  -0.054
    1UNK    H0M   22  -0.088   0.188  -0.054
    1UNK    H0N   23  -0.071   0.188   0.196
    1UNK    H0O   24  -0.071   0.012   0.196
    1UNK    H0P   25  -0.298   0.011   0.088
    1UNK    H0Q   26  -0.298   0.188   0.088
    1UNK    H0R   27  -0.279   0.188   0.338
    1UNK    H0S   28  -0.279   0.012   0.338
    1UNK    H0T   29  -0.506   0.011   0.234
    1UNK    H0U   30  -0.508   0.188   0.235
    1UNK    H0V   31  -0.472   0.187   0.479
    1UNK    H0W   32  -0.481   0.011   0.483
    1UNK    H0X   33  -0.706   0.203   0.408
    1UNK    H0Y   34  -0.703  -0.103   0.421
    1UNK    H0Z   35  -0.719  -0.008   0.274
    1UNK    H10   36  -0.927  -0.021   0.497
    1UNK    H11   37  -0.961   0.104   0.220
    1UNK    H12   38  -0.924   0.200   0.365
    1UNK    H13   39  -1.074   0.107   0.356
    1UNK    H14   40  -0.931  -0.141   0.216
    1UNK    H15   41  -1.059  -0.152   0.338
    1UNK    H16   42  -0.903  -0.232   0.366
    1UNK    H17   43  -0.665   0.020   0.653
    1UNK    H18   44  -0.814   0.112   0.619
    1UNK    H19   45  -0.665   0.129   0.895
    1UNK    H1A   46  -0.814   0.221   0.856
    1UNK    H1B   47  -0.670   0.305   0.922
   1.00000   1.00000   1.00000

