
;
; GENERATED BY LigParGen Server
; Jorgensen Lab @ Yale University 
;
[ atomtypes ]
  opls_818  H818     1.0080     0.000    A    2.50000E-01   1.25520E-01
  opls_814  C814    12.0110     0.000    A    3.50000E-01   2.76144E-01
  opls_824  H824     1.0080     0.000    A    2.50000E-01   1.25520E-01
  opls_805  C805    12.0110     0.000    A    3.50000E-01   2.76144E-01
  opls_816  O816    15.9990     0.000    A    2.96000E-01   7.11280E-01
  opls_843  H843     1.0080     0.000    A    2.50000E-01   1.25520E-01
  opls_836  H836     1.0080     0.000    A    2.50000E-01   1.25520E-01
  opls_834  H834     1.0080     0.000    A    2.50000E-01   1.25520E-01
  opls_810  C810    12.0110     0.000    A    3.50000E-01   2.76144E-01
  opls_828  H828     1.0080     0.000    A    2.50000E-01   1.25520E-01
  opls_812  C812    12.0110     0.000    A    3.50000E-01   2.76144E-01
  opls_844  H844     1.0080     0.000    A    2.50000E-01   1.25520E-01
  opls_802  C802    12.0110     0.000    A    3.50000E-01   2.76144E-01
  opls_827  H827     1.0080     0.000    A    2.50000E-01   1.25520E-01
  opls_809  C809    12.0110     0.000    A    3.50000E-01   2.76144E-01
  opls_806  C806    12.0110     0.000    A    3.50000E-01   2.76144E-01
  opls_822  H822     1.0080     0.000    A    2.50000E-01   1.25520E-01
  opls_803  C803    12.0110     0.000    A    3.50000E-01   2.76144E-01
  opls_838  H838     1.0080     0.000    A    2.50000E-01   1.25520E-01
  opls_825  H825     1.0080     0.000    A    2.50000E-01   1.25520E-01
  opls_830  H830     1.0080     0.000    A    2.50000E-01   1.25520E-01
  opls_821  H821     1.0080     0.000    A    2.50000E-01   1.25520E-01
  opls_842  H842     1.0080     0.000    A    2.50000E-01   1.25520E-01
  opls_820  H820     1.0080     0.000    A    2.50000E-01   1.25520E-01
  opls_837  H837     1.0080     0.000    A    2.50000E-01   1.25520E-01
  opls_829  H829     1.0080     0.000    A    2.50000E-01   1.25520E-01
  opls_831  H831     1.0080     0.000    A    2.50000E-01   1.25520E-01
  opls_832  H832     1.0080     0.000    A    2.50000E-01   1.25520E-01
  opls_800  C800    12.0110     0.000    A    3.50000E-01   2.76144E-01
  opls_846  H846     1.0080     0.000    A    2.50000E-01   1.25520E-01
  opls_811  C811    12.0110     0.000    A    3.50000E-01   2.76144E-01
  opls_823  H823     1.0080     0.000    A    2.50000E-01   1.25520E-01
  opls_813  S813    32.0600     0.000    A    3.55000E-01   1.04600E+00
  opls_826  H826     1.0080     0.000    A    2.50000E-01   1.25520E-01
  opls_835  H835     1.0080     0.000    A    2.50000E-01   1.25520E-01
  opls_841  H841     1.0080     0.000    A    2.50000E-01   1.25520E-01
  opls_819  H819     1.0080     0.000    A    2.50000E-01   1.25520E-01
  opls_804  C804    12.0110     0.000    A    3.50000E-01   2.76144E-01
  opls_833  H833     1.0080     0.000    A    2.50000E-01   1.25520E-01
  opls_839  H839     1.0080     0.000    A    2.50000E-01   1.25520E-01
  opls_801  C801    12.0110     0.000    A    3.50000E-01   2.76144E-01
  opls_808  C808    12.0110     0.000    A    3.50000E-01   2.76144E-01
  opls_817  H817     1.0080     0.000    A    2.50000E-01   1.25520E-01
  opls_815  O815    15.9990     0.000    A    2.96000E-01   7.11280E-01
  opls_840  H840     1.0080     0.000    A    2.50000E-01   1.25520E-01
  opls_845  H845     1.0080     0.000    A    2.50000E-01   1.25520E-01
  opls_807  C807    12.0110     0.000    A    3.50000E-01   2.76144E-01
[ moleculetype ]
; Name               nrexcl
UNK                   3
[ atoms ]
;   nr       type  resnr residue  atom   cgnr     charge       mass  
     1   opls_800      1    UNK   C00      1    -0.2388    12.0110 
     2   opls_801      1    UNK   C01      1     -0.179    12.0110 
     3   opls_802      1    UNK   C02      1    -0.1781    12.0110 
     4   opls_803      1    UNK   C03      1    -0.1779    12.0110 
     5   opls_804      1    UNK   C04      1    -0.1814    12.0110 
     6   opls_805      1    UNK   C05      1     -0.171    12.0110 
     7   opls_806      1    UNK   C06      1    -0.1984    12.0110 
     8   opls_807      1    UNK   C07      1    -0.0624    12.0110 
     9   opls_808      1    UNK   C08      1    -0.1614    12.0110 
    10   opls_809      1    UNK   C09      1     -0.116    12.0110 
    11   opls_810      1    UNK   C0A      1    -0.2382    12.0110 
    12   opls_811      1    UNK   C0B      1    -0.2374    12.0110 
    13   opls_812      1    UNK   C0C      1    -0.4862    12.0110 
    14   opls_813      1    UNK   S0D      1     1.2897    32.0600 
    15   opls_814      1    UNK   C0E      1    -0.5857    12.0110 
    16   opls_815      1    UNK   O0F      1    -0.5683    15.9990 
    17   opls_816      1    UNK   O0G      1    -0.5683    15.9990 
    18   opls_817      1    UNK   H0H      1     0.0809     1.0080 
    19   opls_818      1    UNK   H0I      1     0.0809     1.0080 
    20   opls_819      1    UNK   H0J      1     0.0809     1.0080 
    21   opls_820      1    UNK   H0K      1     0.0877     1.0080 
    22   opls_821      1    UNK   H0M      1     0.0877     1.0080 
    23   opls_822      1    UNK   H0N      1     0.0906     1.0080 
    24   opls_823      1    UNK   H0O      1     0.0906     1.0080 
    25   opls_824      1    UNK   H0P      1     0.0886     1.0080 
    26   opls_825      1    UNK   H0Q      1     0.0886     1.0080 
    27   opls_826      1    UNK   H0R      1     0.0937     1.0080 
    28   opls_827      1    UNK   H0S      1     0.0937     1.0080 
    29   opls_828      1    UNK   H0T      1      0.091     1.0080 
    30   opls_829      1    UNK   H0U      1      0.091     1.0080 
    31   opls_830      1    UNK   H0V      1     0.1043     1.0080 
    32   opls_831      1    UNK   H0W      1     0.1043     1.0080 
    33   opls_832      1    UNK   H0X      2     0.1187     1.0080 
    34   opls_833      1    UNK   H0Y      2      0.095     1.0080 
    35   opls_834      1    UNK   H0Z      2      0.095     1.0080 
    36   opls_835      1    UNK   H10      2     0.0894     1.0080 
    37   opls_836      1    UNK   H11      2     0.0849     1.0080 
    38   opls_837      1    UNK   H12      2     0.0849     1.0080 
    39   opls_838      1    UNK   H13      2     0.0849     1.0080 
    40   opls_839      1    UNK   H14      2     0.0829     1.0080 
    41   opls_840      1    UNK   H15      2     0.0829     1.0080 
    42   opls_841      1    UNK   H16      2     0.0829     1.0080 
    43   opls_842      1    UNK   H17      2     0.1541     1.0080 
    44   opls_843      1    UNK   H18      2     0.1541     1.0080 
    45   opls_844      1    UNK   H19      2     0.1649     1.0080 
    46   opls_845      1    UNK   H1A      2     0.1649     1.0080 
    47   opls_846      1    UNK   H1B      2     0.1649     1.0080 
[ bonds ]
    2     1     1      0.1529 224262.400
    3     2     1      0.1529 224262.400
    4     3     1      0.1529 224262.400
    5     4     1      0.1529 224262.400
    6     5     1      0.1529 224262.400
    7     6     1      0.1529 224262.400
    8     7     1      0.1529 224262.400
    9     8     1      0.1529 224262.400
   10     9     1      0.1529 224262.400
   11    10     1      0.1529 224262.400
   12    10     1      0.1529 224262.400
   13     8     1      0.1529 224262.400
   14    13     1      0.1770 284512.000
   15    14     1      0.1770 284512.000
   16    14     1      0.1440 585760.000
   17    14     1      0.1440 585760.000
   18     1     1      0.1090 284512.000
   19     1     1      0.1090 284512.000
   20     1     1      0.1090 284512.000
   21     2     1      0.1090 284512.000
   22     2     1      0.1090 284512.000
   23     3     1      0.1090 284512.000
   24     3     1      0.1090 284512.000
   25     4     1      0.1090 284512.000
   26     4     1      0.1090 284512.000
   27     5     1      0.1090 284512.000
   28     5     1      0.1090 284512.000
   29     6     1      0.1090 284512.000
   30     6     1      0.1090 284512.000
   31     7     1      0.1090 284512.000
   32     7     1      0.1090 284512.000
   33     8     1      0.1090 284512.000
   34     9     1      0.1090 284512.000
   35     9     1      0.1090 284512.000
   36    10     1      0.1090 284512.000
   37    11     1      0.1090 284512.000
   38    11     1      0.1090 284512.000
   39    11     1      0.1090 284512.000
   40    12     1      0.1090 284512.000
   41    12     1      0.1090 284512.000
   42    12     1      0.1090 284512.000
   43    13     1      0.1090 284512.000
   44    13     1      0.1090 284512.000
   45    15     1      0.1090 284512.000
   46    15     1      0.1090 284512.000
   47    15     1      0.1090 284512.000

[ angles ]
;  ai    aj    ak funct            c0            c1            c2            c3 
    1     2     3     1    112.700    488.273
    2     3     4     1    112.700    488.273
    3     4     5     1    112.700    488.273
    4     5     6     1    112.700    488.273
    5     6     7     1    112.700    488.273
    6     7     8     1    112.700    488.273
    7     8     9     1    112.700    488.273
    8     9    10     1    112.700    488.273
    9    10    11     1    112.700    488.273
    9    10    12     1    112.700    488.273
    7     8    13     1    112.700    488.273
    8    13    14     1    108.600    418.400
   13    14    15     1    102.000    518.816
   13    14    16     1    108.900    619.232
   13    14    17     1    108.900    619.232
    2     1    18     1    110.700    313.800
    2     1    19     1    110.700    313.800
    2     1    20     1    110.700    313.800
    1     2    21     1    110.700    313.800
    1     2    22     1    110.700    313.800
    2     3    23     1    110.700    313.800
    2     3    24     1    110.700    313.800
    3     4    25     1    110.700    313.800
    3     4    26     1    110.700    313.800
    4     5    27     1    110.700    313.800
    4     5    28     1    110.700    313.800
    5     6    29     1    110.700    313.800
    5     6    30     1    110.700    313.800
    6     7    31     1    110.700    313.800
    6     7    32     1    110.700    313.800
    7     8    33     1    110.700    313.800
    8     9    34     1    110.700    313.800
    8     9    35     1    110.700    313.800
    9    10    36     1    110.700    313.800
   10    11    37     1    110.700    313.800
   10    11    38     1    110.700    313.800
   10    11    39     1    110.700    313.800
   10    12    40     1    110.700    313.800
   10    12    41     1    110.700    313.800
   10    12    42     1    110.700    313.800
    8    13    43     1    110.700    313.800
    8    13    44     1    110.700    313.800
   14    15    45     1    109.500    292.880
   14    15    46     1    109.500    292.880
   14    15    47     1    109.500    292.880
   11    10    12     1    112.700    488.273
   40    12    41     1    107.800    276.144
   25     4    26     1    107.800    276.144
   37    11    39     1    107.800    276.144
    4     3    23     1    110.700    313.800
   11    10    36     1    110.700    313.800
   16    14    17     1    119.000    870.272
    4     3    24     1    110.700    313.800
   45    15    46     1    107.800    276.144
   15    14    16     1    108.900    619.232
    5     4    26     1    110.700    313.800
   27     5    28     1    107.800    276.144
   38    11    39     1    107.800    276.144
   18     1    19     1    107.800    276.144
   31     7    32     1    107.800    276.144
   45    15    47     1    107.800    276.144
    8     7    32     1    110.700    313.800
    5     4    25     1    110.700    313.800
    8     7    31     1    110.700    313.800
   21     2    22     1    107.800    276.144
   46    15    47     1    107.800    276.144
   14    13    43     1    109.500    292.880
   13     8    33     1    110.700    313.800
   15    14    17     1    108.900    619.232
   23     3    24     1    107.800    276.144
   40    12    42     1    107.800    276.144
    6     5    27     1    110.700    313.800
   43    13    44     1    107.800    276.144
    7     6    29     1    110.700    313.800
   10     9    35     1    110.700    313.800
   29     6    30     1    107.800    276.144
   18     1    20     1    107.800    276.144
   12    10    36     1    110.700    313.800
   41    12    42     1    107.800    276.144
   34     9    35     1    107.800    276.144
   37    11    38     1    107.800    276.144
    9     8    33     1    110.700    313.800
    3     2    21     1    110.700    313.800
    7     6    30     1    110.700    313.800
   10     9    34     1    110.700    313.800
    9     8    13     1    112.700    488.273
    3     2    22     1    110.700    313.800
    6     5    28     1    110.700    313.800
   19     1    20     1    107.800    276.144
   14    13    44     1    109.500    292.880

[ dihedrals ]
; IMPROPER DIHEDRAL ANGLES 
;  ai    aj    ak    al funct            c0            c1            c2            c3            c4            c5

[ dihedrals ]
; PROPER DIHEDRAL ANGLES
;  ai    aj    ak    al funct            c0            c1            c2            c3            c4            c5
    4    3    2    1        3       2.301  -1.464   0.837  -1.674  -0.000   0.000
   13    8    9   10        3       2.301  -1.464   0.837  -1.674  -0.000   0.000
   12   10    9    8        3       2.301  -1.464   0.837  -1.674  -0.000   0.000
   11   10    9    8        3       2.301  -1.464   0.837  -1.674  -0.000   0.000
   13    8    7    6        3       2.301  -1.464   0.837  -1.674  -0.000   0.000
    9    8    7    6        3       2.301  -1.464   0.837  -1.674  -0.000   0.000
    8    7    6    5        3       2.301  -1.464   0.837  -1.674  -0.000   0.000
    7    6    5    4        3       2.301  -1.464   0.837  -1.674  -0.000   0.000
    6    5    4    3        3       2.301  -1.464   0.837  -1.674  -0.000   0.000
   10    9    8    7        3       2.301  -1.464   0.837  -1.674  -0.000   0.000
    5    4    3    2        3       2.301  -1.464   0.837  -1.674  -0.000   0.000
   15   14   13    8        3       0.000   0.000   0.000  -0.000  -0.000   0.000
   43   13    8    7        3       0.628   1.883   0.000  -2.510  -0.000   0.000
   21    2    3    4        3       0.628   1.883   0.000  -2.510  -0.000   0.000
   34    9    8   13        3       0.628   1.883   0.000  -2.510  -0.000   0.000
   23    3    4    5        3       0.628   1.883   0.000  -2.510  -0.000   0.000
   28    5    4    3        3       0.628   1.883   0.000  -2.510  -0.000   0.000
   25    4    5    6        3       0.628   1.883   0.000  -2.510  -0.000   0.000
   39   11   10   12        3       0.628   1.883   0.000  -2.510  -0.000   0.000
   20    1    2    3        3       0.628   1.883   0.000  -2.510  -0.000   0.000
   33    8    7    6        3       0.628   1.883   0.000  -2.510  -0.000   0.000
   35    9    8   13        3       0.628   1.883   0.000  -2.510  -0.000   0.000
   19    1    2    3        3       0.628   1.883   0.000  -2.510  -0.000   0.000
   38   11   10   12        3       0.628   1.883   0.000  -2.510  -0.000   0.000
   40   12   10   11        3       0.628   1.883   0.000  -2.510  -0.000   0.000
   24    3    2    1        3       0.628   1.883   0.000  -2.510  -0.000   0.000
   41   12   10    9        3       0.628   1.883   0.000  -2.510  -0.000   0.000
   23    3    2    1        3       0.628   1.883   0.000  -2.510  -0.000   0.000
   31    7    8   13        3       0.628   1.883   0.000  -2.510  -0.000   0.000
   24    3    4    5        3       0.628   1.883   0.000  -2.510  -0.000   0.000
   27    5    6    7        3       0.628   1.883   0.000  -2.510  -0.000   0.000
   30    6    5    4        3       0.628   1.883   0.000  -2.510  -0.000   0.000
   39   11   10    9        3       0.628   1.883   0.000  -2.510  -0.000   0.000
   29    6    7    8        3       0.628   1.883   0.000  -2.510  -0.000   0.000
   35    9    8    7        3       0.628   1.883   0.000  -2.510  -0.000   0.000
   34    9    8    7        3       0.628   1.883   0.000  -2.510  -0.000   0.000
   43   13    8    9        3       0.628   1.883   0.000  -2.510  -0.000   0.000
   32    7    6    5        3       0.628   1.883   0.000  -2.510  -0.000   0.000
   36   10    9    8        3       0.628   1.883   0.000  -2.510  -0.000   0.000
   35    9   10   12        3       0.628   1.883   0.000  -2.510  -0.000   0.000
   30    6    7    8        3       0.628   1.883   0.000  -2.510  -0.000   0.000
   34    9   10   11        3       0.628   1.883   0.000  -2.510  -0.000   0.000
   32    7    8    9        3       0.628   1.883   0.000  -2.510  -0.000   0.000
   28    5    6    7        3       0.628   1.883   0.000  -2.510  -0.000   0.000
   26    4    3    2        3       0.628   1.883   0.000  -2.510  -0.000   0.000
   41   12   10   11        3       0.628   1.883   0.000  -2.510  -0.000   0.000
   34    9   10   12        3       0.628   1.883   0.000  -2.510  -0.000   0.000
   26    4    5    6        3       0.628   1.883   0.000  -2.510  -0.000   0.000
   29    6    5    4        3       0.628   1.883   0.000  -2.510  -0.000   0.000
   44   13    8    9        3       0.628   1.883   0.000  -2.510  -0.000   0.000
   18    1    2    3        3       0.628   1.883   0.000  -2.510  -0.000   0.000
   33    8    9   10        3       0.628   1.883   0.000  -2.510  -0.000   0.000
   32    7    8   13        3       0.628   1.883   0.000  -2.510  -0.000   0.000
   37   11   10    9        3       0.628   1.883   0.000  -2.510  -0.000   0.000
   22    2    3    4        3       0.628   1.883   0.000  -2.510  -0.000   0.000
   37   11   10   12        3       0.628   1.883   0.000  -2.510  -0.000   0.000
   31    7    6    5        3       0.628   1.883   0.000  -2.510  -0.000   0.000
   31    7    8    9        3       0.628   1.883   0.000  -2.510  -0.000   0.000
   42   12   10   11        3       0.628   1.883   0.000  -2.510  -0.000   0.000
   42   12   10    9        3       0.628   1.883   0.000  -2.510  -0.000   0.000
   38   11   10    9        3       0.628   1.883   0.000  -2.510  -0.000   0.000
   35    9   10   11        3       0.628   1.883   0.000  -2.510  -0.000   0.000
   40   12   10    9        3       0.628   1.883   0.000  -2.510  -0.000   0.000
   44   13    8    7        3       0.628   1.883   0.000  -2.510  -0.000   0.000
   25    4    3    2        3       0.628   1.883   0.000  -2.510  -0.000   0.000
   27    5    4    3        3       0.628   1.883   0.000  -2.510  -0.000   0.000
   37   11   10   36        3       0.628   1.883   0.000  -2.510  -0.000   0.000
   44   13    8   33        3       0.628   1.883   0.000  -2.510  -0.000   0.000
   33    8    7   31        3       0.628   1.883   0.000  -2.510  -0.000   0.000
   27    5    4   25        3       0.628   1.883   0.000  -2.510  -0.000   0.000
   26    4    3   24        3       0.628   1.883   0.000  -2.510  -0.000   0.000
   41   12   10   36        3       0.628   1.883   0.000  -2.510  -0.000   0.000
   31    7    6   29        3       0.628   1.883   0.000  -2.510  -0.000   0.000
   27    5    4   26        3       0.628   1.883   0.000  -2.510  -0.000   0.000
   36   10    9   34        3       0.628   1.883   0.000  -2.510  -0.000   0.000
   28    5    4   25        3       0.628   1.883   0.000  -2.510  -0.000   0.000
   28    5    4   26        3       0.628   1.883   0.000  -2.510  -0.000   0.000
   29    6    5   28        3       0.628   1.883   0.000  -2.510  -0.000   0.000
   30    6    5   28        3       0.628   1.883   0.000  -2.510  -0.000   0.000
   29    6    5   27        3       0.628   1.883   0.000  -2.510  -0.000   0.000
   30    6    5   27        3       0.628   1.883   0.000  -2.510  -0.000   0.000
   23    3    2   21        3       0.628   1.883   0.000  -2.510  -0.000   0.000
   25    4    3   23        3       0.628   1.883   0.000  -2.510  -0.000   0.000
   22    2    1   19        3       0.628   1.883   0.000  -2.510  -0.000   0.000
   22    2    1   18        3       0.628   1.883   0.000  -2.510  -0.000   0.000
   40   12   10   36        3       0.628   1.883   0.000  -2.510  -0.000   0.000
   31    7    6   30        3       0.628   1.883   0.000  -2.510  -0.000   0.000
   24    3    2   22        3       0.628   1.883   0.000  -2.510  -0.000   0.000
   43   13    8   33        3       0.628   1.883   0.000  -2.510  -0.000   0.000
   39   11   10   36        3       0.628   1.883   0.000  -2.510  -0.000   0.000
   38   11   10   36        3       0.628   1.883   0.000  -2.510  -0.000   0.000
   25    4    3   24        3       0.628   1.883   0.000  -2.510  -0.000   0.000
   24    3    2   21        3       0.628   1.883   0.000  -2.510  -0.000   0.000
   23    3    2   22        3       0.628   1.883   0.000  -2.510  -0.000   0.000
   21    2    1   20        3       0.628   1.883   0.000  -2.510  -0.000   0.000
   33    8    7   32        3       0.628   1.883   0.000  -2.510  -0.000   0.000
   34    9    8   33        3       0.628   1.883   0.000  -2.510  -0.000   0.000
   22    2    1   20        3       0.628   1.883   0.000  -2.510  -0.000   0.000
   21    2    1   18        3       0.628   1.883   0.000  -2.510  -0.000   0.000
   26    4    3   23        3       0.628   1.883   0.000  -2.510  -0.000   0.000
   32    7    6   30        3       0.628   1.883   0.000  -2.510  -0.000   0.000
   35    9    8   33        3       0.628   1.883   0.000  -2.510  -0.000   0.000
   42   12   10   36        3       0.628   1.883   0.000  -2.510  -0.000   0.000
   32    7    6   29        3       0.628   1.883   0.000  -2.510  -0.000   0.000
   36   10    9   35        3       0.628   1.883   0.000  -2.510  -0.000   0.000
   21    2    1   19        3       0.628   1.883   0.000  -2.510  -0.000   0.000
   33    8   13   14        3       0.946   2.837   0.000  -3.782  -0.000   0.000
   46   15   14   13        3       0.732   2.197   0.000  -2.929  -0.000   0.000
   43   13   14   15        3       0.732   2.197   0.000  -2.929  -0.000   0.000
   47   15   14   13        3       0.732   2.197   0.000  -2.929  -0.000   0.000
   44   13   14   15        3       0.732   2.197   0.000  -2.929  -0.000   0.000
   45   15   14   13        3       0.732   2.197   0.000  -2.929  -0.000   0.000
   47   15   14   16        3       0.732   2.197   0.000  -2.929  -0.000   0.000
   46   15   14   17        3       0.732   2.197   0.000  -2.929  -0.000   0.000
   45   15   14   16        3       0.732   2.197   0.000  -2.929  -0.000   0.000
   44   13   14   16        3       0.732   2.197   0.000  -2.929  -0.000   0.000
   43   13   14   17        3       0.732   2.197   0.000  -2.929  -0.000   0.000
   46   15   14   16        3       0.732   2.197   0.000  -2.929  -0.000   0.000
   44   13   14   17        3       0.732   2.197   0.000  -2.929  -0.000   0.000
   43   13   14   16        3       0.732   2.197   0.000  -2.929  -0.000   0.000
   47   15   14   17        3       0.732   2.197   0.000  -2.929  -0.000   0.000
   45   15   14   17        3       0.732   2.197   0.000  -2.929  -0.000   0.000
   17   14   13    8        3       0.000   0.000   0.000  -0.000  -0.000   0.000
   16   14   13    8        3       0.000   0.000   0.000  -0.000  -0.000   0.000
   14   13    8    9        3       2.784   0.278   0.828  -3.891  -0.000   0.000
   14   13    8    7        3       2.784   0.278   0.828  -3.891  -0.000   0.000

[ pairs ]
     1     4    1
     2     5    1
     3     6    1
     4     7    1
     5     8    1
     6     9    1
     7    10    1
     8    11    1
     6    13    1
     8    12    1
     7    14    1
     3    18    1
     3    19    1
    10    13    1
     9    14    1
     8    15    1
     3    20    1
     8    16    1
     1    23    1
     8    17    1
     4    21    1
     1    24    1
     4    22    1
     2    25    1
     5    23    1
     2    26    1
     5    24    1
     3    27    1
     6    25    1
     3    28    1
     6    26    1
     4    29    1
     7    27    1
     4    30    1
     7    28    1
     5    31    1
     8    29    1
     5    32    1
     8    30    1
    18    21    1
     6    33    1
    19    21    1
    18    22    1
     9    31    1
    20    21    1
    19    22    1
     9    32    1
     7    34    1
    20    22    1
     7    35    1
    10    33    1
    21    23    1
    13    31    1
     8    36    1
    22    23    1
    21    24    1
    13    32    1
    11    34    1
    22    24    1
    12    34    1
    11    35    1
     9    37    1
    14    33    1
    13    34    1
    12    35    1
     9    38    1
    23    25    1
    13    35    1
     9    39    1
    24    25    1
    23    26    1
    12    37    1
     9    40    1
    24    26    1
    12    38    1
     9    41    1
     7    43    1
    12    39    1
    11    40    1
     9    42    1
     7    44    1
    25    27    1
    11    41    1
     9    43    1
    26    27    1
    25    28    1
    11    42    1
     9    44    1
    26    28    1
    27    29    1
    28    29    1
    27    30    1
    28    30    1
    15    43    1
    13    45    1
    16    43    1
    15    44    1
    13    46    1
    29    31    1
    17    43    1
    16    44    1
    13    47    1
    30    31    1
    29    32    1
    17    44    1
    16    45    1
    30    32    1
    17    45    1
    16    46    1
    17    46    1
    16    47    1
    31    33    1
    17    47    1
    32    33    1
    33    34    1
    33    35    1
    34    36    1
    35    36    1
    36    37    1
    36    38    1
    36    39    1
    36    40    1
    33    43    1
    36    41    1
    33    44    1
    36    42    1

