LIGPARGEN GENERATED GRO FILE
   36
    1UNK    C00    1   0.100   0.100   0.000
    1UNK    C01    2  -0.051   0.100   0.000
    1UNK    O02    3  -0.114   0.100   0.105
    1UNK    C03    4  -0.118   0.100  -0.136
    1UNK    C04    5  -0.270   0.100  -0.123
    1UNK    C05    6  -0.340   0.100  -0.259
    1UNK    C06    7  -0.495   0.100  -0.246
    1UNK    C07    8  -0.531   0.226  -0.169
    1UNK    O08    9  -0.515   0.339  -0.213
    1UNK    C09   10  -0.568   0.097  -0.383
    1UNK    C0A   11  -0.526  -0.027  -0.460
    1UNK    N0B   12  -0.491  -0.130  -0.524
    1UNK    C0C   13  -0.725   0.094  -0.375
    1UNK    C0D   14  -0.791   0.216  -0.311
    1UNK    C0E   15  -0.785   0.084  -0.516
    1UNK    C0F   16  -0.920   0.018  -0.529
    1UNK    O0G   17  -0.729   0.134  -0.613
    1UNK    H0H   18   0.137   0.105   0.103
    1UNK    H0I   19   0.137   0.187  -0.054
    1UNK    H0J   20   0.136   0.008  -0.047
    1UNK    H0K   21  -0.085   0.011  -0.191
    1UNK    H0M   22  -0.085   0.189  -0.191
    1UNK    H0N   23  -0.300   0.188  -0.065
    1UNK    H0O   24  -0.302   0.012  -0.066
    1UNK    H0P   25  -0.307   0.012  -0.315
    1UNK    H0Q   26  -0.308   0.188  -0.317
    1UNK    H0R   27  -0.526   0.014  -0.185
    1UNK    H0S   28  -0.574   0.209  -0.069
    1UNK    H0T   29  -0.537   0.185  -0.442
    1UNK    H0U   30  -0.754   0.004  -0.320
    1UNK    H0V   31  -0.750   0.309  -0.352
    1UNK    H0W   32  -0.779   0.216  -0.202
    1UNK    H0X   33  -0.899   0.218  -0.330
    1UNK    H0Y   34  -0.953  -0.024  -0.434
    1UNK    H0Z   35  -0.914  -0.062  -0.603
    1UNK    H10   36  -0.993   0.093  -0.561
   1.00000   1.00000   1.00000

