LIGPARGEN GENERATED GRO FILE
   35
    1UNK    C00    1   0.100   0.100   0.000
    1UNK    C01    2  -0.052   0.100   0.000
    1UNK    C02    3  -0.116   0.100   0.141
    1UNK    C03    4  -0.268   0.113   0.137
    1UNK    O04    5  -0.339  -0.012   0.155
    1UNK    C05    6  -0.321  -0.102   0.047
    1UNK    C06    7  -0.448  -0.173   0.011
    1UNK    C07    8  -0.200  -0.193   0.072
    1UNK    C08    9  -0.131  -0.336   0.087
    1UNK    C09   10   0.000  -0.245   0.097
    1UNK    C0A   11  -0.093  -0.154   0.185
    1UNK    C0B   12  -0.065  -0.012   0.235
    1UNK    C0C   13  -0.131   0.003   0.375
    1UNK    H0D   14   0.137   0.095  -0.103
    1UNK    H0E   15   0.142   0.014   0.053
    1UNK    H0F   16   0.139   0.192   0.046
    1UNK    H0G   17  -0.086   0.015  -0.059
    1UNK    H0H   18  -0.086   0.189  -0.054
    1UNK    H0I   19  -0.082   0.195   0.186
    1UNK    H0J   20  -0.305   0.161   0.046
    1UNK    H0K   21  -0.302   0.176   0.220
    1UNK    H0M   22  -0.298  -0.041  -0.042
    1UNK    H0N   23  -0.490  -0.229   0.095
    1UNK    H0O   24  -0.433  -0.241  -0.073
    1UNK    H0P   25  -0.523  -0.099  -0.019
    1UNK    H0Q   26  -0.169  -0.180  -0.033
    1UNK    H0R   27  -0.135  -0.403   0.001
    1UNK    H0S   28  -0.149  -0.395   0.178
    1UNK    H0T   29   0.031  -0.201   0.001
    1UNK    H0U   30   0.089  -0.288   0.144
    1UNK    H0V   31  -0.106  -0.211   0.280
    1UNK    H0W   32   0.043   0.001   0.249
    1UNK    H0X   33  -0.233  -0.035   0.378
    1UNK    H0Y   34  -0.132   0.107   0.408
    1UNK    H0Z   35  -0.074  -0.055   0.449
   1.00000   1.00000   1.00000

