LIGPARGEN GENERATED GRO FILE
   32
    1UNK    C00    1   0.100   0.100   0.000
    1UNK    C01    2  -0.052   0.100   0.000
    1UNK    C02    3  -0.103   0.100   0.144
    1UNK    C03    4  -0.255   0.100   0.156
    1UNK    C04    5  -0.304   0.100   0.302
    1UNK    O05    6  -0.256  -0.020   0.369
    1UNK    C06    7  -0.324  -0.135   0.349
    1UNK    C07    8  -0.264  -0.246   0.430
    1UNK    O08    9  -0.424  -0.147   0.279
    1UNK    C09   10  -0.260   0.223   0.387
    1UNK    C0A   11  -0.305   0.356   0.326
    1UNK    C0B   12  -0.306   0.213   0.532
    1UNK    F0C   13  -0.123   0.227   0.393
    1UNK    H0D   14   0.139   0.105  -0.102
    1UNK    H0E   15   0.139   0.009   0.048
    1UNK    H0F   16   0.139   0.186   0.055
    1UNK    H0G   17  -0.089   0.012  -0.054
    1UNK    H0H   18  -0.089   0.189  -0.053
    1UNK    H0I   19  -0.062   0.190   0.192
    1UNK    H0J   20  -0.062   0.013   0.197
    1UNK    H0K   21  -0.293   0.011   0.105
    1UNK    H0M   22  -0.297   0.186   0.102
    1UNK    H0N   23  -0.414   0.098   0.302
    1UNK    H0O   24  -0.157  -0.228   0.446
    1UNK    H0P   25  -0.274  -0.340   0.376
    1UNK    H0Q   26  -0.315  -0.251   0.526
    1UNK    H0R   27  -0.414   0.362   0.321
    1UNK    H0S   28  -0.264   0.370   0.226
    1UNK    H0T   29  -0.269   0.440   0.386
    1UNK    H0U   30  -0.416   0.212   0.539
    1UNK    H0V   31  -0.268   0.297   0.590
    1UNK    H0W   32  -0.267   0.122   0.579
   1.00000   1.00000   1.00000

