LIGPARGEN GENERATED GRO FILE
   32
    1UNK    C00    1   0.100   0.100   0.000
    1UNK    C01    2  -0.052   0.100   0.000
    1UNK    C02    3  -0.109   0.100   0.142
    1UNK    C03    4  -0.262   0.100   0.137
    1UNK    C04    5  -0.325   0.106   0.278
    1UNK    C05    6  -0.481   0.107   0.280
    1UNK    C06    7  -0.528   0.232   0.206
    1UNK    N07    8  -0.566   0.335   0.146
    1UNK    C08    9  -0.542  -0.017   0.208
    1UNK    C09   10  -0.510  -0.151   0.272
    1UNK    C0A   11  -0.533   0.116   0.424
    1UNK    C0B   12  -0.682   0.123   0.449
    1UNK    O0C   13  -0.456   0.116   0.521
    1UNK    H0D   14   0.138   0.100  -0.103
    1UNK    H0E   15   0.139   0.011   0.050
    1UNK    H0F   16   0.139   0.189   0.051
    1UNK    H0G   17  -0.088   0.012  -0.055
    1UNK    H0H   18  -0.088   0.188  -0.054
    1UNK    H0I   19  -0.074   0.188   0.196
    1UNK    H0J   20  -0.074   0.012   0.196
    1UNK    H0K   21  -0.295   0.009   0.086
    1UNK    H0M   22  -0.296   0.185   0.078
    1UNK    H0N   23  -0.288   0.197   0.328
    1UNK    H0O   24  -0.287   0.022   0.337
    1UNK    H0P   25  -0.508  -0.020   0.103
    1UNK    H0Q   26  -0.651  -0.008   0.200
    1UNK    H0R   27  -0.404  -0.163   0.294
    1UNK    H0S   28  -0.539  -0.232   0.205
    1UNK    H0T   29  -0.567  -0.164   0.365
    1UNK    H0U   30  -0.739   0.117   0.357
    1UNK    H0V   31  -0.705   0.218   0.498
    1UNK    H0W   32  -0.711   0.040   0.513
   1.00000   1.00000   1.00000

