
;
; GENERATED BY LigParGen Server
; Jorgensen Lab @ Yale University 
;
[ atomtypes ]
  opls_818  H818     1.0080     0.000    A    2.50000E-01   1.25520E-01
  opls_806  C806    12.0110     0.000    A    3.30000E-01   2.76144E-01
  opls_824  H824     1.0080     0.000    A    2.50000E-01   1.25520E-01
  opls_805  C805    12.0110     0.000    A    3.50000E-01   2.76144E-01
  opls_828  H828     1.0080     0.000    A    2.50000E-01   1.25520E-01
  opls_810  C810    12.0110     0.000    A    3.50000E-01   2.76144E-01
  opls_813  H813     1.0080     0.000    A    2.50000E-01   1.25520E-01
  opls_812  C812    12.0110     0.000    A    3.50000E-01   2.76144E-01
  opls_802  C802    12.0110     0.000    A    3.50000E-01   2.76144E-01
  opls_815  H815     1.0080     0.000    A    2.50000E-01   1.25520E-01
  opls_809  C809    12.0110     0.000    A    3.50000E-01   2.76144E-01
  opls_830  H830     1.0080     0.000    A    2.50000E-01   1.25520E-01
  opls_822  H822     1.0080     0.000    A    2.50000E-01   1.25520E-01
  opls_803  C803    12.0110     0.000    A    3.50000E-01   2.76144E-01
  opls_807  N807    14.0070     0.000    A    3.20000E-01   7.11280E-01
  opls_825  H825     1.0080     0.000    A    2.50000E-01   1.25520E-01
  opls_814  H814     1.0080     0.000    A    2.50000E-01   1.25520E-01
  opls_821  H821     1.0080     0.000    A    2.50000E-01   1.25520E-01
  opls_820  H820     1.0080     0.000    A    2.50000E-01   1.25520E-01
  opls_829  H829     1.0080     0.000    A    2.50000E-01   1.25520E-01
  opls_831  H831     1.0080     0.000    A    2.50000E-01   1.25520E-01
  opls_816  H816     1.0080     0.000    A    2.50000E-01   1.25520E-01
  opls_800  C800    12.0110     0.000    A    3.50000E-01   2.76144E-01
  opls_811  C811    12.0110     0.000    A    3.50000E-01   2.76144E-01
  opls_823  H823     1.0080     0.000    A    2.50000E-01   1.25520E-01
  opls_826  H826     1.0080     0.000    A    2.50000E-01   1.25520E-01
  opls_819  H819     1.0080     0.000    A    2.50000E-01   1.25520E-01
  opls_804  C804    12.0110     0.000    A    3.50000E-01   2.76144E-01
  opls_827  H827     1.0080     0.000    A    2.50000E-01   1.25520E-01
  opls_801  C801    12.0110     0.000    A    3.50000E-01   2.76144E-01
  opls_808  C808    12.0110     0.000    A    3.50000E-01   2.76144E-01
  opls_817  H817     1.0080     0.000    A    2.50000E-01   1.25520E-01
[ moleculetype ]
; Name               nrexcl
UNK                   3
[ atoms ]
;   nr       type  resnr residue  atom   cgnr     charge       mass  
     1   opls_800      1    UNK   C00      1    -0.2322    12.0110 
     2   opls_801      1    UNK   C01      1    -0.1037    12.0110 
     3   opls_802      1    UNK   C02      1    -0.1711    12.0110 
     4   opls_803      1    UNK   C03      1    -0.1684    12.0110 
     5   opls_804      1    UNK   C04      1    -0.1773    12.0110 
     6   opls_805      1    UNK   C05      1     0.0603    12.0110 
     7   opls_806      1    UNK   C06      1     0.1785    12.0110 
     8   opls_807      1    UNK   N07      1    -0.4199    14.0070 
     9   opls_808      1    UNK   C08      1     -0.195    12.0110 
    10   opls_809      1    UNK   C09      1    -0.2047    12.0110 
    11   opls_810      1    UNK   C0A      1    -0.0981    12.0110 
    12   opls_811      1    UNK   C0B      1     -0.152    12.0110 
    13   opls_812      1    UNK   C0C      1    -0.1031    12.0110 
    14   opls_813      1    UNK   H0D      1     0.0813     1.0080 
    15   opls_814      1    UNK   H0E      1     0.0813     1.0080 
    16   opls_815      1    UNK   H0F      1     0.0813     1.0080 
    17   opls_816      1    UNK   H0G      1     0.0859     1.0080 
    18   opls_817      1    UNK   H0H      1     0.0862     1.0080 
    19   opls_818      1    UNK   H0I      1     0.0862     1.0080 
    20   opls_819      1    UNK   H0J      1     0.0956     1.0080 
    21   opls_820      1    UNK   H0K      1     0.0956     1.0080 
    22   opls_821      1    UNK   H0M      1      0.098     1.0080 
    23   opls_822      1    UNK   H0N      1      0.098     1.0080 
    24   opls_823      1    UNK   H0O      1     0.1047     1.0080 
    25   opls_824      1    UNK   H0P      1     0.1047     1.0080 
    26   opls_825      1    UNK   H0Q      1     0.1006     1.0080 
    27   opls_826      1    UNK   H0R      1     0.1006     1.0080 
    28   opls_827      1    UNK   H0S      1     0.1103     1.0080 
    29   opls_828      1    UNK   H0T      1     0.0848     1.0080 
    30   opls_829      1    UNK   H0U      1     0.0848     1.0080 
    31   opls_830      1    UNK   H0V      1     0.1036     1.0080 
    32   opls_831      1    UNK   H0W      1     0.1036     1.0080 
[ bonds ]
    2     1     1      0.1529 224262.400
    3     2     1      0.1529 224262.400
    4     3     1      0.1529 224262.400
    5     4     1      0.1529 224262.400
    6     5     1      0.1529 224262.400
    7     6     1      0.1470 326352.000
    8     7     1      0.1157 543920.000
    9     6     1      0.1529 224262.400
   10     9     1      0.1529 224262.400
   11    10     1      0.1529 224262.400
   12     2     1      0.1529 224262.400
   13     6     1      0.1529 224262.400
   14     1     1      0.1090 284512.000
   15     1     1      0.1090 284512.000
   16     1     1      0.1090 284512.000
   17     2     1      0.1090 284512.000
   18     3     1      0.1090 284512.000
   19     3     1      0.1090 284512.000
   20     4     1      0.1090 284512.000
   21     4     1      0.1090 284512.000
   22     5     1      0.1090 284512.000
   23     5     1      0.1090 284512.000
   24     9     1      0.1090 284512.000
   25     9     1      0.1090 284512.000
   26    10     1      0.1090 284512.000
   27    10     1      0.1090 284512.000
   28    11     1      0.1090 284512.000
   29    12     1      0.1090 284512.000
   30    12     1      0.1090 284512.000
   31    13     1      0.1090 284512.000
   32    13     1      0.1090 284512.000
   12    11     1      0.1529 224262.400
   13    11     1      0.1529 224262.400

[ angles ]
;  ai    aj    ak funct            c0            c1            c2            c3 
    1     2     3     1    112.700    488.273
    2     3     4     1    112.700    488.273
    3     4     5     1    112.700    488.273
    4     5     6     1    112.700    488.273
    5     6     7     1    112.700    488.273
    6     7     8     1    180.000   1255.200
    5     6     9     1    112.700    488.273
    6     9    10     1    112.700    488.273
    9    10    11     1    112.700    488.273
    1     2    12     1    112.700    488.273
    5     6    13     1    112.700    488.273
    2     1    14     1    110.700    313.800
    2     1    15     1    110.700    313.800
    2     1    16     1    110.700    313.800
    1     2    17     1    110.700    313.800
    2     3    18     1    110.700    313.800
    2     3    19     1    110.700    313.800
    3     4    20     1    110.700    313.800
    3     4    21     1    110.700    313.800
    4     5    22     1    110.700    313.800
    4     5    23     1    110.700    313.800
    6     9    24     1    110.700    313.800
    6     9    25     1    110.700    313.800
    9    10    26     1    110.700    313.800
    9    10    27     1    110.700    313.800
   10    11    28     1    110.700    313.800
    2    12    29     1    110.700    313.800
    2    12    30     1    110.700    313.800
    6    13    31     1    110.700    313.800
    6    13    32     1    110.700    313.800
   11    10    27     1    110.700    313.800
    7     6     9     1    112.700    488.273
   22     5    23     1    107.800    276.144
   13    11    28     1    110.700    313.800
   24     9    25     1    107.800    276.144
   29    12    30     1    107.800    276.144
   11    12    29     1    110.700    313.800
    6     5    22     1    110.700    313.800
    3     2    17     1    110.700    313.800
   20     4    21     1    107.800    276.144
    4     3    19     1    110.700    313.800
   14     1    15     1    107.800    276.144
    9     6    13     1    112.700    488.273
    4     3    18     1    110.700    313.800
    6    13    11     1    112.700    488.273
    2    12    11     1    112.700    488.273
   15     1    16     1    107.800    276.144
   11    13    31     1    110.700    313.800
   10    11    12     1    112.700    488.273
    3     2    12     1    112.700    488.273
   10     9    25     1    110.700    313.800
    7     6    13     1    112.700    488.273
   12     2    17     1    110.700    313.800
   11    10    26     1    110.700    313.800
    5     4    20     1    110.700    313.800
   12    11    13     1    112.700    488.273
   31    13    32     1    107.800    276.144
   10     9    24     1    110.700    313.800
    6     5    23     1    110.700    313.800
   11    13    32     1    110.700    313.800
   14     1    16     1    107.800    276.144
    5     4    21     1    110.700    313.800
   10    11    13     1    112.700    488.273
   12    11    28     1    110.700    313.800
   18     3    19     1    107.800    276.144
   26    10    27     1    107.800    276.144
   11    12    30     1    110.700    313.800

[ dihedrals ]
; IMPROPER DIHEDRAL ANGLES 
;  ai    aj    ak    al funct            c0            c1            c2            c3            c4            c5

[ dihedrals ]
; PROPER DIHEDRAL ANGLES
;  ai    aj    ak    al funct            c0            c1            c2            c3            c4            c5
    4    3    2    1        3       2.301  -1.464   0.837  -1.674  -0.000   0.000
   11   13    6    5        3       2.301  -1.464   0.837  -1.674  -0.000   0.000
   13   11   10    9        3       2.301  -1.464   0.837  -1.674  -0.000   0.000
   13    6    5    4        3       2.301  -1.464   0.837  -1.674  -0.000   0.000
   11   13    6    9        3       2.301  -1.464   0.837  -1.674  -0.000   0.000
   10   11   13    6        3       2.301  -1.464   0.837  -1.674  -0.000   0.000
   13    6    9   10        3       2.301  -1.464   0.837  -1.674  -0.000   0.000
   11   12    2    3        3       2.301  -1.464   0.837  -1.674  -0.000   0.000
   12   11   10    9        3       2.301  -1.464   0.837  -1.674  -0.000   0.000
    9    6    5    4        3       2.301  -1.464   0.837  -1.674  -0.000   0.000
   10   11   12    2        3       2.301  -1.464   0.837  -1.674  -0.000   0.000
   12   11   13    6        3       2.301  -1.464   0.837  -1.674  -0.000   0.000
   13   11   12    2        3       2.301  -1.464   0.837  -1.674  -0.000   0.000
   12    2    3    4        3       2.301  -1.464   0.837  -1.674  -0.000   0.000
   11   12    2    1        3       2.301  -1.464   0.837  -1.674  -0.000   0.000
   11   10    9    6        3       2.301  -1.464   0.837  -1.674  -0.000   0.000
   10    9    6    5        3       2.301  -1.464   0.837  -1.674  -0.000   0.000
    6    5    4    3        3       2.301  -1.464   0.837  -1.674  -0.000   0.000
    5    4    3    2        3       2.301  -1.464   0.837  -1.674  -0.000   0.000
   10    9    6    7        3      -2.720   0.000   2.720  -0.000  -0.000   0.000
   11   13    6    7        3      -2.720   0.000   2.720  -0.000  -0.000   0.000
    9    6    7    8        3       0.000   0.000   0.000  -0.000  -0.000   0.000
   13    6    7    8        3       0.000   0.000   0.000  -0.000  -0.000   0.000
    7    6    5    4        3      -2.720   0.000   2.720  -0.000  -0.000   0.000
   31   13   11   12        3       0.628   1.883   0.000  -2.510  -0.000   0.000
   18    3    2    1        3       0.628   1.883   0.000  -2.510  -0.000   0.000
   15    1    2   12        3       0.628   1.883   0.000  -2.510  -0.000   0.000
   25    9   10   11        3       0.628   1.883   0.000  -2.510  -0.000   0.000
   23    5    6   13        3       0.628   1.883   0.000  -2.510  -0.000   0.000
   24    9    6    5        3       0.628   1.883   0.000  -2.510  -0.000   0.000
   22    5    4    3        3       0.628   1.883   0.000  -2.510  -0.000   0.000
   30   12   11   13        3       0.628   1.883   0.000  -2.510  -0.000   0.000
   31   13    6    9        3       0.628   1.883   0.000  -2.510  -0.000   0.000
   22    5    6   13        3       0.628   1.883   0.000  -2.510  -0.000   0.000
   32   13    6    5        3       0.628   1.883   0.000  -2.510  -0.000   0.000
   32   13   11   12        3       0.628   1.883   0.000  -2.510  -0.000   0.000
   22    5    6    9        3       0.628   1.883   0.000  -2.510  -0.000   0.000
   21    4    5    6        3       0.628   1.883   0.000  -2.510  -0.000   0.000
   29   12   11   13        3       0.628   1.883   0.000  -2.510  -0.000   0.000
   19    3    4    5        3       0.628   1.883   0.000  -2.510  -0.000   0.000
   32   13   11   10        3       0.628   1.883   0.000  -2.510  -0.000   0.000
   17    2   12   11        3       0.628   1.883   0.000  -2.510  -0.000   0.000
   19    3    2   12        3       0.628   1.883   0.000  -2.510  -0.000   0.000
   27   10   11   13        3       0.628   1.883   0.000  -2.510  -0.000   0.000
   26   10    9    6        3       0.628   1.883   0.000  -2.510  -0.000   0.000
   16    1    2   12        3       0.628   1.883   0.000  -2.510  -0.000   0.000
   15    1    2    3        3       0.628   1.883   0.000  -2.510  -0.000   0.000
   31   13   11   10        3       0.628   1.883   0.000  -2.510  -0.000   0.000
   30   12    2    3        3       0.628   1.883   0.000  -2.510  -0.000   0.000
   28   11   10    9        3       0.628   1.883   0.000  -2.510  -0.000   0.000
   20    4    3    2        3       0.628   1.883   0.000  -2.510  -0.000   0.000
   24    9   10   11        3       0.628   1.883   0.000  -2.510  -0.000   0.000
   14    1    2   12        3       0.628   1.883   0.000  -2.510  -0.000   0.000
   30   12   11   10        3       0.628   1.883   0.000  -2.510  -0.000   0.000
   16    1    2    3        3       0.628   1.883   0.000  -2.510  -0.000   0.000
   18    3    4    5        3       0.628   1.883   0.000  -2.510  -0.000   0.000
   21    4    3    2        3       0.628   1.883   0.000  -2.510  -0.000   0.000
   23    5    4    3        3       0.628   1.883   0.000  -2.510  -0.000   0.000
   20    4    5    6        3       0.628   1.883   0.000  -2.510  -0.000   0.000
   19    3    2    1        3       0.628   1.883   0.000  -2.510  -0.000   0.000
   30   12    2    1        3       0.628   1.883   0.000  -2.510  -0.000   0.000
   26   10   11   12        3       0.628   1.883   0.000  -2.510  -0.000   0.000
   28   11   12    2        3       0.628   1.883   0.000  -2.510  -0.000   0.000
   27   10   11   12        3       0.628   1.883   0.000  -2.510  -0.000   0.000
   24    9    6   13        3       0.628   1.883   0.000  -2.510  -0.000   0.000
   14    1    2    3        3       0.628   1.883   0.000  -2.510  -0.000   0.000
   25    9    6    5        3       0.628   1.883   0.000  -2.510  -0.000   0.000
   32   13    6    9        3       0.628   1.883   0.000  -2.510  -0.000   0.000
   28   11   13    6        3       0.628   1.883   0.000  -2.510  -0.000   0.000
   29   12   11   10        3       0.628   1.883   0.000  -2.510  -0.000   0.000
   25    9    6   13        3       0.628   1.883   0.000  -2.510  -0.000   0.000
   26   10   11   13        3       0.628   1.883   0.000  -2.510  -0.000   0.000
   18    3    2   12        3       0.628   1.883   0.000  -2.510  -0.000   0.000
   23    5    6    9        3       0.628   1.883   0.000  -2.510  -0.000   0.000
   27   10    9    6        3       0.628   1.883   0.000  -2.510  -0.000   0.000
   17    2    3    4        3       0.628   1.883   0.000  -2.510  -0.000   0.000
   29   12    2    1        3       0.628   1.883   0.000  -2.510  -0.000   0.000
   31   13    6    5        3       0.628   1.883   0.000  -2.510  -0.000   0.000
   29   12    2    3        3       0.628   1.883   0.000  -2.510  -0.000   0.000
   23    5    6    7        3       0.766   2.297   0.000  -3.063  -0.000   0.000
   22    5    6    7        3       0.766   2.297   0.000  -3.063  -0.000   0.000
   25    9    6    7        3       0.766   2.297   0.000  -3.063  -0.000   0.000
   24    9    6    7        3       0.766   2.297   0.000  -3.063  -0.000   0.000
   31   13    6    7        3       0.766   2.297   0.000  -3.063  -0.000   0.000
   32   13    6    7        3       0.766   2.297   0.000  -3.063  -0.000   0.000
   26   10    9   24        3       0.628   1.883   0.000  -2.510  -0.000   0.000
   19    3    2   17        3       0.628   1.883   0.000  -2.510  -0.000   0.000
   28   11   10   26        3       0.628   1.883   0.000  -2.510  -0.000   0.000
   21    4    3   18        3       0.628   1.883   0.000  -2.510  -0.000   0.000
   30   12   11   28        3       0.628   1.883   0.000  -2.510  -0.000   0.000
   22    5    4   21        3       0.628   1.883   0.000  -2.510  -0.000   0.000
   17    2    1   14        3       0.628   1.883   0.000  -2.510  -0.000   0.000
   20    4    3   19        3       0.628   1.883   0.000  -2.510  -0.000   0.000
   27   10    9   24        3       0.628   1.883   0.000  -2.510  -0.000   0.000
   22    5    4   20        3       0.628   1.883   0.000  -2.510  -0.000   0.000
   20    4    3   18        3       0.628   1.883   0.000  -2.510  -0.000   0.000
   29   12   11   28        3       0.628   1.883   0.000  -2.510  -0.000   0.000
   21    4    3   19        3       0.628   1.883   0.000  -2.510  -0.000   0.000
   27   10    9   25        3       0.628   1.883   0.000  -2.510  -0.000   0.000
   18    3    2   17        3       0.628   1.883   0.000  -2.510  -0.000   0.000
   17    2    1   16        3       0.628   1.883   0.000  -2.510  -0.000   0.000
   23    5    4   21        3       0.628   1.883   0.000  -2.510  -0.000   0.000
   30   12    2   17        3       0.628   1.883   0.000  -2.510  -0.000   0.000
   29   12    2   17        3       0.628   1.883   0.000  -2.510  -0.000   0.000
   32   13   11   28        3       0.628   1.883   0.000  -2.510  -0.000   0.000
   17    2    1   15        3       0.628   1.883   0.000  -2.510  -0.000   0.000
   28   11   10   27        3       0.628   1.883   0.000  -2.510  -0.000   0.000
   26   10    9   25        3       0.628   1.883   0.000  -2.510  -0.000   0.000
   31   13   11   28        3       0.628   1.883   0.000  -2.510  -0.000   0.000
   23    5    4   20        3       0.628   1.883   0.000  -2.510  -0.000   0.000
    8    7    6    5        3       0.000   0.000   0.000  -0.000  -0.000   0.000

[ pairs ]
     1     4    1
     2     5    1
     3     6    1
     4     7    1
     2    10    1
     1    11    1
     5     8    1
     4     9    1
     3    11    1
     5    10    1
     2    13    1
     5    11    1
     4    12    1
     8     9    1
     7    10    1
     4    13    1
     3    14    1
     7    11    1
     6    12    1
     3    15    1
     3    16    1
     1    18    1
     1    19    1
     9    12    1
     8    13    1
     4    17    1
     2    20    1
     5    18    1
     2    21    1
     5    19    1
     3    22    1
    12    14    1
     6    20    1
     3    23    1
    12    15    1
     6    21    1
    12    16    1
    11    17    1
     7    22    1
     5    24    1
    12    18    1
     7    23    1
     5    25    1
     2    28    1
     1    29    1
    14    17    1
    12    19    1
     9    22    1
     7    24    1
     1    30    1
    15    17    1
     9    23    1
     7    25    1
     6    26    1
     3    29    1
    16    17    1
     6    27    1
     3    30    1
     6    28    1
    17    18    1
    13    22    1
    11    24    1
    17    19    1
    13    23    1
    11    25    1
     5    31    1
    13    24    1
     9    28    1
     5    32    1
    18    20    1
    13    25    1
    12    26    1
     7    31    1
    19    20    1
    18    21    1
    13    26    1
    12    27    1
    10    29    1
     7    32    1
    19    21    1
    13    27    1
    10    30    1
     9    31    1
    10    31    1
     9    32    1
    20    22    1
    13    29    1
    10    32    1
    21    22    1
    20    23    1
    13    30    1
    12    31    1
    21    23    1
    12    32    1
    17    29    1
    17    30    1
    24    26    1
    25    26    1
    24    27    1
    25    27    1
    26    28    1
    27    28    1
    28    29    1
    28    30    1
    28    31    1
    28    32    1

