LIGPARGEN GENERATED GRO FILE
   32
    1UNK    C00    1   0.100   0.100   0.000
    1UNK    C01    2  -0.052   0.100   0.000
    1UNK    C02    3  -0.116   0.100   0.142
    1UNK    C03    4  -0.185   0.228   0.187
    1UNK    C04    5  -0.095   0.348   0.170
    1UNK    C05    6  -0.134   0.459   0.065
    1UNK    C06    7  -0.238   0.527   0.152
    1UNK    N07    8  -0.325   0.584   0.224
    1UNK    C08    9  -0.245   0.445  -0.055
    1UNK    C09   10  -0.175   0.413  -0.187
    1UNK    C0A   11  -0.051   0.346  -0.131
    1UNK    C0B   12  -0.108   0.201  -0.100
    1UNK    C0C   13  -0.015   0.462  -0.025
    1UNK    H0D   14   0.139   0.022   0.067
    1UNK    H0E   15   0.143   0.196   0.032
    1UNK    H0F   16   0.137   0.078  -0.101
    1UNK    H0G   17  -0.079   0.002  -0.040
    1UNK    H0H   18  -0.040   0.072   0.216
    1UNK    H0I   19  -0.191   0.020   0.146
    1UNK    H0J   20  -0.209   0.216   0.294
    1UNK    H0K   21  -0.282   0.240   0.137
    1UNK    H0M   22   0.008   0.312   0.158
    1UNK    H0N   23  -0.086   0.396   0.269
    1UNK    H0O   24  -0.296   0.541  -0.073
    1UNK    H0P   25  -0.325   0.373  -0.031
    1UNK    H0Q   26  -0.149   0.505  -0.241
    1UNK    H0R   27  -0.236   0.352  -0.253
    1UNK    H0S   28   0.028   0.338  -0.205
    1UNK    H0T   29  -0.106   0.150  -0.197
    1UNK    H0U   30  -0.217   0.203  -0.080
    1UNK    H0V   31  -0.004   0.559  -0.075
    1UNK    H0W   32   0.081   0.441   0.023
   1.00000   1.00000   1.00000

