LIGPARGEN GENERATED GRO FILE
   48
    1UNK    C00    1   0.100   0.100   0.000
    1UNK    C01    2  -0.052   0.100   0.000
    1UNK    C02    3  -0.107   0.100   0.143
    1UNK    C03    4  -0.260   0.100   0.148
    1UNK    O04    5  -0.308  -0.021   0.090
    1UNK    C05    6  -0.426  -0.051   0.150
    1UNK    O06    7  -0.504  -0.137   0.112
    1UNK    O07    8  -0.446   0.027   0.260
    1UNK    C08    9  -0.326   0.099   0.286
    1UNK    C09   10  -0.247   0.021   0.392
    1UNK    C0A   11  -0.366   0.239   0.337
    1UNK    C0B   12  -0.248   0.332   0.358
    1UNK    C0C   13  -0.284   0.472   0.408
    1UNK    C0D   14  -0.156   0.555   0.435
    1UNK    C0E   15  -0.071   0.573   0.308
    1UNK    C0F   16  -0.188   0.695   0.492
    1UNK    N0G   17  -0.259   0.697   0.621
    1UNK    C0H   18  -0.183   0.630   0.727
    1UNK    C0I   19  -0.286   0.836   0.659
    1UNK    H0J   20   0.138   0.095  -0.102
    1UNK    H0K   21   0.139   0.014   0.055
    1UNK    H0M   22   0.139   0.191   0.047
    1UNK    H0N   23  -0.088   0.011  -0.054
    1UNK    H0O   24  -0.088   0.188  -0.054
    1UNK    H0P   25  -0.067   0.187   0.196
    1UNK    H0Q   26  -0.068   0.010   0.193
    1UNK    H0R   27  -0.299   0.183   0.087
    1UNK    H0S   28  -0.229  -0.082   0.361
    1UNK    H0T   29  -0.304   0.015   0.486
    1UNK    H0U   30  -0.150   0.067   0.414
    1UNK    H0V   31  -0.423   0.228   0.431
    1UNK    H0W   32  -0.437   0.284   0.266
    1UNK    H0X   33  -0.198   0.342   0.261
    1UNK    H0Y   34  -0.177   0.287   0.428
    1UNK    H0Z   35  -0.342   0.462   0.501
    1UNK    H10   36  -0.347   0.522   0.335
    1UNK    H11   37  -0.094   0.500   0.507
    1UNK    H12   38  -0.125   0.630   0.232
    1UNK    H13   39  -0.041   0.478   0.264
    1UNK    H14   40   0.022   0.627   0.331
    1UNK    H15   41  -0.249   0.748   0.418
    1UNK    H16   42  -0.094   0.751   0.501
    1UNK    H17   43  -0.187   0.521   0.714
    1UNK    H18   44  -0.227   0.650   0.826
    1UNK    H19   45  -0.078   0.662   0.729
    1UNK    H1A   46  -0.347   0.886   0.583
    1UNK    H1B   47  -0.193   0.893   0.672
    1UNK    H1C   48  -0.343   0.840   0.752
   1.00000   1.00000   1.00000

