
;
; GENERATED BY LigParGen Server
; Jorgensen Lab @ Yale University 
;
[ atomtypes ]
  opls_818  H818     1.0080     0.000    A    2.50000E-01   1.25520E-01
  opls_814  C814    12.0110     0.000    A    3.50000E-01   2.76144E-01
  opls_824  H824     1.0080     0.000    A    2.50000E-01   1.25520E-01
  opls_815  C815    12.0110     0.000    A    3.50000E-01   2.76144E-01
  opls_804  C804    12.0110     0.000    A    3.50000E-01   2.76144E-01
  opls_848  H848     1.0080     0.000    A    2.50000E-01   1.25520E-01
  opls_843  H843     1.0080     0.000    A    2.50000E-01   1.25520E-01
  opls_836  H836     1.0080     0.000    A    2.50000E-01   1.25520E-01
  opls_834  H834     1.0080     0.000    A    2.50000E-01   1.25520E-01
  opls_810  C810    12.0110     0.000    A    3.50000E-01   2.76144E-01
  opls_828  H828     1.0080     0.000    A    2.50000E-01   1.25520E-01
  opls_844  H844     1.0080     0.000    A    2.50000E-01   1.25520E-01
  opls_802  C802    12.0110     0.000    A    3.50000E-01   2.76144E-01
  opls_827  H827     1.0080     0.000    A    2.50000E-01   1.25520E-01
  opls_801  C801    12.0110     0.000    A    3.50000E-01   2.76144E-01
  opls_806  C806    12.0110     0.000    A    3.50000E-01   2.76144E-01
  opls_822  H822     1.0080     0.000    A    2.50000E-01   1.25520E-01
  opls_803  C803    12.0110     0.000    A    3.50000E-01   2.76144E-01
  opls_838  H838     1.0080     0.000    A    2.50000E-01   1.25520E-01
  opls_825  H825     1.0080     0.000    A    2.50000E-01   1.25520E-01
  opls_830  H830     1.0080     0.000    A    2.50000E-01   1.25520E-01
  opls_809  O809    15.9990     0.000    A    2.96000E-01   8.78640E-01
  opls_821  H821     1.0080     0.000    A    2.50000E-01   1.25520E-01
  opls_842  H842     1.0080     0.000    A    2.50000E-01   1.25520E-01
  opls_820  H820     1.0080     0.000    A    2.50000E-01   1.25520E-01
  opls_837  H837     1.0080     0.000    A    2.50000E-01   1.25520E-01
  opls_829  H829     1.0080     0.000    A    2.50000E-01   1.25520E-01
  opls_831  H831     1.0080     0.000    A    2.50000E-01   1.25520E-01
  opls_832  H832     1.0080     0.000    A    2.50000E-01   1.25520E-01
  opls_800  C800    12.0110     0.000    A    3.50000E-01   2.76144E-01
  opls_805  C805    12.0110     0.000    A    3.50000E-01   2.76144E-01
  opls_846  H846     1.0080     0.000    A    2.50000E-01   1.25520E-01
  opls_811  C811    12.0110     0.000    A    3.50000E-01   2.76144E-01
  opls_823  H823     1.0080     0.000    A    2.50000E-01   1.25520E-01
  opls_813  C813    12.0110     0.000    A    3.50000E-01   2.76144E-01
  opls_826  H826     1.0080     0.000    A    2.50000E-01   1.25520E-01
  opls_835  H835     1.0080     0.000    A    2.50000E-01   1.25520E-01
  opls_841  H841     1.0080     0.000    A    2.50000E-01   1.25520E-01
  opls_819  H819     1.0080     0.000    A    2.50000E-01   1.25520E-01
  opls_816  C816    12.0110     0.000    A    3.50000E-01   2.76144E-01
  opls_833  H833     1.0080     0.000    A    2.50000E-01   1.25520E-01
  opls_839  H839     1.0080     0.000    A    2.50000E-01   1.25520E-01
  opls_812  C812    12.0110     0.000    A    3.50000E-01   2.76144E-01
  opls_817  H817     1.0080     0.000    A    2.50000E-01   1.25520E-01
  opls_847  H847     1.0080     0.000    A    2.50000E-01   1.25520E-01
  opls_840  H840     1.0080     0.000    A    2.50000E-01   1.25520E-01
  opls_845  H845     1.0080     0.000    A    2.50000E-01   1.25520E-01
  opls_808  C808    12.0110     0.000    A    3.55000E-01   2.92880E-01
  opls_807  C807    12.0110     0.000    A    3.50000E-01   2.76144E-01
[ moleculetype ]
; Name               nrexcl
UNK                   3
[ atoms ]
;   nr       type  resnr residue  atom   cgnr     charge       mass  
     1   opls_800      1    UNK   C00      1     -0.242    12.0110 
     2   opls_801      1    UNK   C01      1    -0.1776    12.0110 
     3   opls_802      1    UNK   C02      1    -0.1787    12.0110 
     4   opls_803      1    UNK   C03      1    -0.0369    12.0110 
     5   opls_804      1    UNK   C04      1    -0.2353    12.0110 
     6   opls_805      1    UNK   C05      1    -0.1538    12.0110 
     7   opls_806      1    UNK   C06      1    -0.1862    12.0110 
     8   opls_807      1    UNK   C07      1     -0.237    12.0110 
     9   opls_808      1    UNK   C08      1      0.323    12.0110 
    10   opls_809      1    UNK   O09      1    -0.4507    15.9990 
    11   opls_810      1    UNK   C0A      1    -0.1616    12.0110 
    12   opls_811      1    UNK   C0B      1    -0.1035    12.0110 
    13   opls_812      1    UNK   C0C      1     -0.239    12.0110 
    14   opls_813      1    UNK   C0D      1    -0.1737    12.0110 
    15   opls_814      1    UNK   C0E      1     -0.116    12.0110 
    16   opls_815      1    UNK   C0F      1    -0.2334    12.0110 
    17   opls_816      1    UNK   C0G      1     -0.238    12.0110 
    18   opls_817      1    UNK   H0H      1     0.0837     1.0080 
    19   opls_818      1    UNK   H0I      1     0.0837     1.0080 
    20   opls_819      1    UNK   H0J      1     0.0837     1.0080 
    21   opls_820      1    UNK   H0K      1     0.0842     1.0080 
    22   opls_821      1    UNK   H0M      1     0.0842     1.0080 
    23   opls_822      1    UNK   H0N      1     0.0952     1.0080 
    24   opls_823      1    UNK   H0O      1     0.0952     1.0080 
    25   opls_824      1    UNK   H0P      1     0.0827     1.0080 
    26   opls_825      1    UNK   H0Q      1     0.0827     1.0080 
    27   opls_826      1    UNK   H0R      1     0.0827     1.0080 
    28   opls_827      1    UNK   H0S      1     0.0925     1.0080 
    29   opls_828      1    UNK   H0T      1     0.0925     1.0080 
    30   opls_829      1    UNK   H0U      1     0.1376     1.0080 
    31   opls_830      1    UNK   H0V      1     0.0898     1.0080 
    32   opls_831      1    UNK   H0W      1     0.0898     1.0080 
    33   opls_832      1    UNK   H0X      2     0.0898     1.0080 
    34   opls_833      1    UNK   H0Y      2      0.106     1.0080 
    35   opls_834      1    UNK   H0Z      2     0.0915     1.0080 
    36   opls_835      1    UNK   H10      2     0.0915     1.0080 
    37   opls_836      1    UNK   H11      2     0.0989     1.0080 
    38   opls_837      1    UNK   H12      2     0.0803     1.0080 
    39   opls_838      1    UNK   H13      2     0.0803     1.0080 
    40   opls_839      1    UNK   H14      2     0.0803     1.0080 
    41   opls_840      1    UNK   H15      2     0.0881     1.0080 
    42   opls_841      1    UNK   H16      2     0.0881     1.0080 
    43   opls_842      1    UNK   H17      2     0.0986     1.0080 
    44   opls_843      1    UNK   H18      2     0.0809     1.0080 
    45   opls_844      1    UNK   H19      2     0.0809     1.0080 
    46   opls_845      1    UNK   H1A      2     0.0809     1.0080 
    47   opls_846      1    UNK   H1B      2     0.0813     1.0080 
    48   opls_847      1    UNK   H1C      2     0.0813     1.0080 
    49   opls_848      1    UNK   H1D      2     0.0813     1.0080 
[ bonds ]
    2     1     1      0.1529 224262.400
    3     2     1      0.1529 224262.400
    4     3     1      0.1529 224262.400
    5     4     1      0.1529 224262.400
    6     4     1      0.1529 224262.400
    7     6     1      0.1529 224262.400
    8     7     1      0.1529 224262.400
    9     7     1      0.1522 265265.600
   10     9     1      0.1229 476976.000
   11     4     1      0.1529 224262.400
   12    11     1      0.1529 224262.400
   13    12     1      0.1529 224262.400
   14    12     1      0.1529 224262.400
   15    14     1      0.1529 224262.400
   16    15     1      0.1529 224262.400
   17    15     1      0.1529 224262.400
   18     1     1      0.1090 284512.000
   19     1     1      0.1090 284512.000
   20     1     1      0.1090 284512.000
   21     2     1      0.1090 284512.000
   22     2     1      0.1090 284512.000
   23     3     1      0.1090 284512.000
   24     3     1      0.1090 284512.000
   25     5     1      0.1090 284512.000
   26     5     1      0.1090 284512.000
   27     5     1      0.1090 284512.000
   28     6     1      0.1090 284512.000
   29     6     1      0.1090 284512.000
   30     7     1      0.1090 284512.000
   31     8     1      0.1090 284512.000
   32     8     1      0.1090 284512.000
   33     8     1      0.1090 284512.000
   34     9     1      0.1090 284512.000
   35    11     1      0.1090 284512.000
   36    11     1      0.1090 284512.000
   37    12     1      0.1090 284512.000
   38    13     1      0.1090 284512.000
   39    13     1      0.1090 284512.000
   40    13     1      0.1090 284512.000
   41    14     1      0.1090 284512.000
   42    14     1      0.1090 284512.000
   43    15     1      0.1090 284512.000
   44    16     1      0.1090 284512.000
   45    16     1      0.1090 284512.000
   46    16     1      0.1090 284512.000
   47    17     1      0.1090 284512.000
   48    17     1      0.1090 284512.000
   49    17     1      0.1090 284512.000

[ angles ]
;  ai    aj    ak funct            c0            c1            c2            c3 
    1     2     3     1    112.700    488.273
    2     3     4     1    112.700    488.273
    3     4     5     1    112.700    488.273
    3     4     6     1    112.700    488.273
    4     6     7     1    112.700    488.273
    6     7     8     1    112.700    488.273
    6     7     9     1    111.100    527.184
    7     9    10     1    120.400    669.440
    3     4    11     1    112.700    488.273
    4    11    12     1    112.700    488.273
   11    12    13     1    112.700    488.273
   11    12    14     1    112.700    488.273
   12    14    15     1    112.700    488.273
   14    15    16     1    112.700    488.273
   14    15    17     1    112.700    488.273
    2     1    18     1    110.700    313.800
    2     1    19     1    110.700    313.800
    2     1    20     1    110.700    313.800
    1     2    21     1    110.700    313.800
    1     2    22     1    110.700    313.800
    2     3    23     1    110.700    313.800
    2     3    24     1    110.700    313.800
    4     5    25     1    110.700    313.800
    4     5    26     1    110.700    313.800
    4     5    27     1    110.700    313.800
    4     6    28     1    110.700    313.800
    4     6    29     1    110.700    313.800
    6     7    30     1    110.700    313.800
    7     8    31     1    110.700    313.800
    7     8    32     1    110.700    313.800
    7     8    33     1    110.700    313.800
    7     9    34     1    115.000    292.880
    4    11    35     1    110.700    313.800
    4    11    36     1    110.700    313.800
   11    12    37     1    110.700    313.800
   12    13    38     1    110.700    313.800
   12    13    39     1    110.700    313.800
   12    13    40     1    110.700    313.800
   12    14    41     1    110.700    313.800
   12    14    42     1    110.700    313.800
   14    15    43     1    110.700    313.800
   15    16    44     1    110.700    313.800
   15    16    45     1    110.700    313.800
   15    16    46     1    110.700    313.800
   15    17    47     1    110.700    313.800
   15    17    48     1    110.700    313.800
   15    17    49     1    110.700    313.800
   13    12    14     1    112.700    488.273
   13    12    37     1    110.700    313.800
   31     8    32     1    107.800    276.144
   16    15    43     1    110.700    313.800
   45    16    46     1    107.800    276.144
   35    11    36     1    107.800    276.144
    4     3    23     1    110.700    313.800
    9     7    30     1    109.500    292.880
   14    12    37     1    110.700    313.800
   25     5    26     1    107.800    276.144
    4     3    24     1    110.700    313.800
   16    15    17     1    112.700    488.273
   38    13    39     1    107.800    276.144
   17    15    43     1    110.700    313.800
    8     7    30     1    110.700    313.800
   48    17    49     1    107.800    276.144
    5     4     6     1    112.700    488.273
   31     8    33     1    107.800    276.144
   15    14    41     1    110.700    313.800
   18     1    19     1    107.800    276.144
   44    16    45     1    107.800    276.144
   47    17    49     1    107.800    276.144
   21     2    22     1    107.800    276.144
    5     4    11     1    112.700    488.273
    6     4    11     1    112.700    488.273
   41    14    42     1    107.800    276.144
   38    13    40     1    107.800    276.144
   44    16    46     1    107.800    276.144
   32     8    33     1    107.800    276.144
   25     5    27     1    107.800    276.144
   28     6    29     1    107.800    276.144
   12    11    35     1    110.700    313.800
    7     6    28     1    110.700    313.800
   12    11    36     1    110.700    313.800
   23     3    24     1    107.800    276.144
    7     6    29     1    110.700    313.800
   18     1    20     1    107.800    276.144
   39    13    40     1    107.800    276.144
    3     2    21     1    110.700    313.800
   15    14    42     1    110.700    313.800
   10     9    34     1    123.000    292.880
    3     2    22     1    110.700    313.800
   47    17    48     1    107.800    276.144
   26     5    27     1    107.800    276.144
   19     1    20     1    107.800    276.144
    8     7     9     1    111.100    527.184

[ dihedrals ]
; IMPROPER DIHEDRAL ANGLES 
;  ai    aj    ak    al funct            c0            c1            c2            c3            c4            c5
    34     9     7    10    4        180.000     43.932     2  

[ dihedrals ]
; PROPER DIHEDRAL ANGLES
;  ai    aj    ak    al funct            c0            c1            c2            c3            c4            c5
    9    7    6    4        3      -4.960   6.286   1.310  -2.636  -0.000   0.000
    4    3    2    1        3       2.301  -1.464   0.837  -1.674  -0.000   0.000
    7    6    4    5        3       2.301  -1.464   0.837  -1.674  -0.000   0.000
   17   15   14   12        3       2.301  -1.464   0.837  -1.674  -0.000   0.000
   11    4    3    2        3       2.301  -1.464   0.837  -1.674  -0.000   0.000
   12   11    4    6        3       2.301  -1.464   0.837  -1.674  -0.000   0.000
   14   12   11    4        3       2.301  -1.464   0.837  -1.674  -0.000   0.000
   12   11    4    5        3       2.301  -1.464   0.837  -1.674  -0.000   0.000
   11    4    6    7        3       2.301  -1.464   0.837  -1.674  -0.000   0.000
   16   15   14   12        3       2.301  -1.464   0.837  -1.674  -0.000   0.000
    6    4    3    2        3       2.301  -1.464   0.837  -1.674  -0.000   0.000
    5    4    3    2        3       2.301  -1.464   0.837  -1.674  -0.000   0.000
    7    6    4    3        3       2.301  -1.464   0.837  -1.674  -0.000   0.000
    8    7    6    4        3       2.301  -1.464   0.837  -1.674  -0.000   0.000
   15   14   12   11        3       2.301  -1.464   0.837  -1.674  -0.000   0.000
   12   11    4    3        3       2.301  -1.464   0.837  -1.674  -0.000   0.000
   13   12   11    4        3       2.301  -1.464   0.837  -1.674  -0.000   0.000
   15   14   12   13        3       2.301  -1.464   0.837  -1.674  -0.000   0.000
   34    9    7    6        3       0.000   0.000   0.000  -0.000  -0.000   0.000
   34    9    7    8        3       0.000   0.000   0.000  -0.000  -0.000   0.000
   34    9    7   30        3       0.753   2.259   0.000  -3.012  -0.000   0.000
   30    7    9   10        3       0.000   0.000   0.000  -0.000  -0.000   0.000
   29    6    7    9        3      -0.209  -0.628   0.000   0.837  -0.000   0.000
   28    6    7    9        3      -0.209  -0.628   0.000   0.837  -0.000   0.000
   31    8    7    9        3      -0.209  -0.628   0.000   0.837  -0.000   0.000
   32    8    7    9        3      -0.209  -0.628   0.000   0.837  -0.000   0.000
   33    8    7    9        3      -0.209  -0.628   0.000   0.837  -0.000   0.000
   28    6    4   11        3       0.628   1.883   0.000  -2.510  -0.000   0.000
   20    1    2    3        3       0.628   1.883   0.000  -2.510  -0.000   0.000
   49   17   15   16        3       0.628   1.883   0.000  -2.510  -0.000   0.000
   48   17   15   14        3       0.628   1.883   0.000  -2.510  -0.000   0.000
   26    5    4   11        3       0.628   1.883   0.000  -2.510  -0.000   0.000
   26    5    4    3        3       0.628   1.883   0.000  -2.510  -0.000   0.000
   41   14   15   16        3       0.628   1.883   0.000  -2.510  -0.000   0.000
   42   14   15   17        3       0.628   1.883   0.000  -2.510  -0.000   0.000
   36   11   12   14        3       0.628   1.883   0.000  -2.510  -0.000   0.000
   27    5    4    6        3       0.628   1.883   0.000  -2.510  -0.000   0.000
   38   13   12   14        3       0.628   1.883   0.000  -2.510  -0.000   0.000
   26    5    4    6        3       0.628   1.883   0.000  -2.510  -0.000   0.000
   30    7    6    4        3       0.628   1.883   0.000  -2.510  -0.000   0.000
   41   14   15   17        3       0.628   1.883   0.000  -2.510  -0.000   0.000
   27    5    4    3        3       0.628   1.883   0.000  -2.510  -0.000   0.000
   22    2    3    4        3       0.628   1.883   0.000  -2.510  -0.000   0.000
   40   13   12   11        3       0.628   1.883   0.000  -2.510  -0.000   0.000
   35   11    4    6        3       0.628   1.883   0.000  -2.510  -0.000   0.000
   23    3    4   11        3       0.628   1.883   0.000  -2.510  -0.000   0.000
   36   11    4    3        3       0.628   1.883   0.000  -2.510  -0.000   0.000
   40   13   12   14        3       0.628   1.883   0.000  -2.510  -0.000   0.000
   29    6    4    5        3       0.628   1.883   0.000  -2.510  -0.000   0.000
   23    3    2    1        3       0.628   1.883   0.000  -2.510  -0.000   0.000
   37   12   14   15        3       0.628   1.883   0.000  -2.510  -0.000   0.000
   41   14   12   11        3       0.628   1.883   0.000  -2.510  -0.000   0.000
   27    5    4   11        3       0.628   1.883   0.000  -2.510  -0.000   0.000
   35   11    4    5        3       0.628   1.883   0.000  -2.510  -0.000   0.000
   43   15   14   12        3       0.628   1.883   0.000  -2.510  -0.000   0.000
   29    6    7    8        3       0.628   1.883   0.000  -2.510  -0.000   0.000
   29    6    4    3        3       0.628   1.883   0.000  -2.510  -0.000   0.000
   41   14   12   13        3       0.628   1.883   0.000  -2.510  -0.000   0.000
   24    3    2    1        3       0.628   1.883   0.000  -2.510  -0.000   0.000
   46   16   15   14        3       0.628   1.883   0.000  -2.510  -0.000   0.000
   23    3    4    6        3       0.628   1.883   0.000  -2.510  -0.000   0.000
   24    3    4    5        3       0.628   1.883   0.000  -2.510  -0.000   0.000
   32    8    7    6        3       0.628   1.883   0.000  -2.510  -0.000   0.000
   25    5    4   11        3       0.628   1.883   0.000  -2.510  -0.000   0.000
   48   17   15   16        3       0.628   1.883   0.000  -2.510  -0.000   0.000
   36   11    4    5        3       0.628   1.883   0.000  -2.510  -0.000   0.000
   21    2    3    4        3       0.628   1.883   0.000  -2.510  -0.000   0.000
   46   16   15   17        3       0.628   1.883   0.000  -2.510  -0.000   0.000
   28    6    4    5        3       0.628   1.883   0.000  -2.510  -0.000   0.000
   28    6    4    3        3       0.628   1.883   0.000  -2.510  -0.000   0.000
   37   12   11    4        3       0.628   1.883   0.000  -2.510  -0.000   0.000
   28    6    7    8        3       0.628   1.883   0.000  -2.510  -0.000   0.000
   39   13   12   11        3       0.628   1.883   0.000  -2.510  -0.000   0.000
   47   17   15   14        3       0.628   1.883   0.000  -2.510  -0.000   0.000
   49   17   15   14        3       0.628   1.883   0.000  -2.510  -0.000   0.000
   35   11   12   14        3       0.628   1.883   0.000  -2.510  -0.000   0.000
   42   14   15   16        3       0.628   1.883   0.000  -2.510  -0.000   0.000
   42   14   12   11        3       0.628   1.883   0.000  -2.510  -0.000   0.000
   38   13   12   11        3       0.628   1.883   0.000  -2.510  -0.000   0.000
   44   16   15   14        3       0.628   1.883   0.000  -2.510  -0.000   0.000
   36   11   12   13        3       0.628   1.883   0.000  -2.510  -0.000   0.000
   24    3    4   11        3       0.628   1.883   0.000  -2.510  -0.000   0.000
   25    5    4    3        3       0.628   1.883   0.000  -2.510  -0.000   0.000
   24    3    4    6        3       0.628   1.883   0.000  -2.510  -0.000   0.000
   35   11   12   13        3       0.628   1.883   0.000  -2.510  -0.000   0.000
   36   11    4    6        3       0.628   1.883   0.000  -2.510  -0.000   0.000
   35   11    4    3        3       0.628   1.883   0.000  -2.510  -0.000   0.000
   44   16   15   17        3       0.628   1.883   0.000  -2.510  -0.000   0.000
   31    8    7    6        3       0.628   1.883   0.000  -2.510  -0.000   0.000
   23    3    4    5        3       0.628   1.883   0.000  -2.510  -0.000   0.000
   47   17   15   16        3       0.628   1.883   0.000  -2.510  -0.000   0.000
   25    5    4    6        3       0.628   1.883   0.000  -2.510  -0.000   0.000
   42   14   12   13        3       0.628   1.883   0.000  -2.510  -0.000   0.000
   33    8    7    6        3       0.628   1.883   0.000  -2.510  -0.000   0.000
   45   16   15   17        3       0.628   1.883   0.000  -2.510  -0.000   0.000
   19    1    2    3        3       0.628   1.883   0.000  -2.510  -0.000   0.000
   29    6    4   11        3       0.628   1.883   0.000  -2.510  -0.000   0.000
   39   13   12   14        3       0.628   1.883   0.000  -2.510  -0.000   0.000
   45   16   15   14        3       0.628   1.883   0.000  -2.510  -0.000   0.000
   18    1    2    3        3       0.628   1.883   0.000  -2.510  -0.000   0.000
   31    8    7   30        3       0.628   1.883   0.000  -2.510  -0.000   0.000
   43   15   14   41        3       0.628   1.883   0.000  -2.510  -0.000   0.000
   23    3    2   22        3       0.628   1.883   0.000  -2.510  -0.000   0.000
   22    2    1   18        3       0.628   1.883   0.000  -2.510  -0.000   0.000
   30    7    6   28        3       0.628   1.883   0.000  -2.510  -0.000   0.000
   48   17   15   43        3       0.628   1.883   0.000  -2.510  -0.000   0.000
   23    3    2   21        3       0.628   1.883   0.000  -2.510  -0.000   0.000
   45   16   15   43        3       0.628   1.883   0.000  -2.510  -0.000   0.000
   40   13   12   37        3       0.628   1.883   0.000  -2.510  -0.000   0.000
   44   16   15   43        3       0.628   1.883   0.000  -2.510  -0.000   0.000
   24    3    2   22        3       0.628   1.883   0.000  -2.510  -0.000   0.000
   33    8    7   30        3       0.628   1.883   0.000  -2.510  -0.000   0.000
   46   16   15   43        3       0.628   1.883   0.000  -2.510  -0.000   0.000
   24    3    2   21        3       0.628   1.883   0.000  -2.510  -0.000   0.000
   42   14   12   37        3       0.628   1.883   0.000  -2.510  -0.000   0.000
   39   13   12   37        3       0.628   1.883   0.000  -2.510  -0.000   0.000
   37   12   11   36        3       0.628   1.883   0.000  -2.510  -0.000   0.000
   47   17   15   43        3       0.628   1.883   0.000  -2.510  -0.000   0.000
   22    2    1   19        3       0.628   1.883   0.000  -2.510  -0.000   0.000
   21    2    1   20        3       0.628   1.883   0.000  -2.510  -0.000   0.000
   37   12   11   35        3       0.628   1.883   0.000  -2.510  -0.000   0.000
   43   15   14   42        3       0.628   1.883   0.000  -2.510  -0.000   0.000
   49   17   15   43        3       0.628   1.883   0.000  -2.510  -0.000   0.000
   21    2    1   18        3       0.628   1.883   0.000  -2.510  -0.000   0.000
   32    8    7   30        3       0.628   1.883   0.000  -2.510  -0.000   0.000
   30    7    6   29        3       0.628   1.883   0.000  -2.510  -0.000   0.000
   21    2    1   19        3       0.628   1.883   0.000  -2.510  -0.000   0.000
   38   13   12   37        3       0.628   1.883   0.000  -2.510  -0.000   0.000
   41   14   12   37        3       0.628   1.883   0.000  -2.510  -0.000   0.000
   22    2    1   20        3       0.628   1.883   0.000  -2.510  -0.000   0.000
   10    9    7    6        3       0.000   0.000   0.000  -0.000  -0.000   0.000
   10    9    7    8        3       0.000   0.000   0.000  -0.000  -0.000   0.000

[ pairs ]
     1     4    1
     2     5    1
     2     6    1
     3     7    1
     5     7    1
     4     8    1
     4     9    1
     2    11    1
     3    12    1
     6    10    1
     5    12    1
     4    13    1
     8    10    1
     7    11    1
     6    12    1
     4    14    1
     3    18    1
     3    19    1
     3    20    1
     1    23    1
     4    21    1
     1    24    1
    11    15    1
     4    22    1
    13    15    1
    12    16    1
     5    23    1
     3    25    1
    12    17    1
     6    23    1
     5    24    1
     3    26    1
     6    24    1
     3    27    1
     6    25    1
     3    28    1
     6    26    1
     3    29    1
     6    27    1
     5    28    1
    11    23    1
     5    29    1
     4    30    1
    11    24    1
    11    25    1
     8    28    1
    11    26    1
     9    28    1
     8    29    1
     6    31    1
    11    27    1
     9    29    1
     6    32    1
     3    35    1
    18    21    1
    11    28    1
     6    33    1
     3    36    1
    19    21    1
    18    22    1
    11    29    1
    10    30    1
     9    31    1
     6    34    1
     5    35    1
    20    21    1
    19    22    1
     9    32    1
     6    35    1
     5    36    1
     4    37    1
    20    22    1
     9    33    1
     8    34    1
     6    36    1
    21    23    1
    22    23    1
    21    24    1
    22    24    1
    13    35    1
    14    35    1
    13    36    1
    11    38    1
    14    36    1
    11    39    1
    11    40    1
    15    37    1
    14    38    1
    11    41    1
    14    39    1
    11    42    1
    14    40    1
    13    41    1
    13    42    1
    12    43    1
    16    41    1
    28    30    1
    17    41    1
    16    42    1
    14    44    1
    29    30    1
    17    42    1
    14    45    1
    14    46    1
    30    31    1
    17    44    1
    14    47    1
    30    32    1
    17    45    1
    14    48    1
    30    33    1
    17    46    1
    16    47    1
    14    49    1
    30    34    1
    16    48    1
    16    49    1
    35    37    1
    36    37    1
    37    38    1
    37    39    1
    37    40    1
    37    41    1
    37    42    1
    41    43    1
    42    43    1
    43    44    1
    43    45    1
    43    46    1
    43    47    1
    43    48    1
    43    49    1

