LIGPARGEN GENERATED GRO FILE
   49
    1UNK    C00    1   0.100   0.100   0.000
    1UNK    C01    2  -0.052   0.100   0.000
    1UNK    C02    3  -0.112   0.100   0.142
    1UNK    C03    4  -0.269   0.094   0.151
    1UNK    C04    5  -0.325   0.223   0.087
    1UNK    C05    6  -0.324  -0.028   0.068
    1UNK    C06    7  -0.298  -0.169   0.122
    1UNK    C07    8  -0.387  -0.271   0.050
    1UNK    C08    9  -0.156  -0.214   0.100
    1UNK    O09   10  -0.083  -0.254   0.190
    1UNK    C0A   11  -0.307   0.092   0.304
    1UNK    C0B   12  -0.456   0.104   0.349
    1UNK    C0C   13  -0.543  -0.015   0.309
    1UNK    C0D   14  -0.470   0.115   0.504
    1UNK    C0E   15  -0.411   0.238   0.575
    1UNK    C0F   16  -0.467   0.370   0.522
    1UNK    C0G   17  -0.439   0.227   0.725
    1UNK    H0H   18   0.137   0.070  -0.099
    1UNK    H0I   19   0.140   0.030   0.074
    1UNK    H0J   20   0.139   0.200   0.021
    1UNK    H0K   21  -0.084   0.012  -0.055
    1UNK    H0M   22  -0.087   0.187  -0.056
    1UNK    H0N   23  -0.077   0.191   0.193
    1UNK    H0O   24  -0.069   0.016   0.199
    1UNK    H0P   25  -0.303   0.227  -0.020
    1UNK    H0Q   26  -0.282   0.312   0.134
    1UNK    H0R   27  -0.434   0.229   0.097
    1UNK    H0S   28  -0.287  -0.022  -0.035
    1UNK    H0T   29  -0.431  -0.013   0.055
    1UNK    H0U   30  -0.319  -0.175   0.229
    1UNK    H0V   31  -0.350  -0.294  -0.051
    1UNK    H0W   32  -0.490  -0.236   0.042
    1UNK    H0X   33  -0.388  -0.366   0.105
    1UNK    H0Y   34  -0.118  -0.210  -0.004
    1UNK    H0Z   35  -0.255   0.178   0.349
    1UNK    H10   36  -0.263   0.004   0.352
    1UNK    H11   37  -0.500   0.194   0.305
    1UNK    H12   38  -0.500  -0.109   0.345
    1UNK    H13   39  -0.559  -0.022   0.202
    1UNK    H14   40  -0.643  -0.007   0.353
    1UNK    H15   41  -0.427   0.025   0.549
    1UNK    H16   42  -0.577   0.113   0.529
    1UNK    H17   43  -0.302   0.239   0.562
    1UNK    H18   44  -0.577   0.366   0.514
    1UNK    H19   45  -0.427   0.393   0.423
    1UNK    H1A   46  -0.441   0.453   0.588
    1UNK    H1B   47  -0.547   0.227   0.745
    1UNK    H1C   48  -0.395   0.311   0.780
    1UNK    H1D   49  -0.397   0.135   0.766
   1.00000   1.00000   1.00000

