LIGPARGEN GENERATED GRO FILE
   16
    1UNK    C00    1   0.100   0.100   0.000
    1UNK    O01    2  -0.042   0.100   0.000
    1UNK    C02    3  -0.102   0.100   0.126
    1UNK    C03    4  -0.219   0.036   0.138
    1UNK    S04    5  -0.316   0.026   0.280
    1UNK    C05    6  -0.242   0.146   0.380
    1UNK    C06    7  -0.124   0.204   0.355
    1UNK    C07    8  -0.038   0.180   0.236
    1UNK    H08    9   0.134   0.084  -0.103
    1UNK    H09   10   0.139   0.019   0.062
    1UNK    H0A   11   0.139   0.197   0.033
    1UNK    H0B   12  -0.258  -0.017   0.051
    1UNK    H0C   13  -0.297   0.174   0.470
    1UNK    H0D   14  -0.086   0.276   0.427
    1UNK    H0E   15   0.054   0.130   0.269
    1UNK    H0F   16  -0.010   0.278   0.196
   1.00000   1.00000   1.00000

