
;
; GENERATED BY LigParGen Server
; Jorgensen Lab @ Yale University 
;
[ atomtypes ]
  opls_810  H810     1.0080     0.000    A    2.50000E-01   1.25520E-01
  opls_803  C803    12.0110     0.000    A    3.55000E-01   3.17984E-01
  opls_813  H813     1.0080     0.000    A    2.42000E-01   1.25520E-01
  opls_815  H815     1.0080     0.000    A    2.50000E-01   1.25520E-01
  opls_800  C800    12.0110     0.000    A    3.50000E-01   2.76144E-01
  opls_814  H814     1.0080     0.000    A    2.50000E-01   1.25520E-01
  opls_811  H811     1.0080     0.000    A    2.42000E-01   1.25520E-01
  opls_808  H808     1.0080     0.000    A    2.50000E-01   1.25520E-01
  opls_807  C807    12.0110     0.000    A    3.50000E-01   2.76144E-01
  opls_805  C805    12.0110     0.000    A    3.55000E-01   3.17984E-01
  opls_806  C806    12.0110     0.000    A    3.55000E-01   3.17984E-01
  opls_809  H809     1.0080     0.000    A    2.50000E-01   1.25520E-01
  opls_804  S804    32.0600     0.000    A    3.60000E-01   1.48532E+00
  opls_812  H812     1.0080     0.000    A    2.42000E-01   1.25520E-01
  opls_802  C802    12.0110     0.000    A    3.55000E-01   3.17984E-01
  opls_801  O801    15.9990     0.000    A    2.90000E-01   5.85760E-01
[ moleculetype ]
; Name               nrexcl
UNK                   3
[ atoms ]
;   nr       type  resnr residue  atom   cgnr     charge       mass  
     1   opls_800      1    UNK   C00      1    -0.0507    12.0110 
     2   opls_801      1    UNK   O01      1    -0.3133    15.9990 
     3   opls_802      1    UNK   C02      1     0.0761    12.0110 
     4   opls_803      1    UNK   C03      1    -0.2603    12.0110 
     5   opls_804      1    UNK   S04      1     0.0306    32.0600 
     6   opls_805      1    UNK   C05      1    -0.2059    12.0110 
     7   opls_806      1    UNK   C06      1    -0.1803    12.0110 
     8   opls_807      1    UNK   C07      1    -0.1224    12.0110 
     9   opls_808      1    UNK   H08      1     0.0902     1.0080 
    10   opls_809      1    UNK   H09      1     0.0902     1.0080 
    11   opls_810      1    UNK   H0A      1     0.0902     1.0080 
    12   opls_811      1    UNK   H0B      1     0.1948     1.0080 
    13   opls_812      1    UNK   H0C      1     0.1788     1.0080 
    14   opls_813      1    UNK   H0D      1     0.1525     1.0080 
    15   opls_814      1    UNK   H0E      1     0.1148     1.0080 
    16   opls_815      1    UNK   H0F      1     0.1148     1.0080 
[ bonds ]
    2     1     1      0.1410 267776.000
    3     2     1      0.1370 376560.000
    4     3     1      0.1340 459403.200
    5     4     1      0.1760 209200.000
    6     5     1      0.1760 209200.000
    7     6     1      0.1340 459403.200
    8     3     1      0.1510 265265.600
    9     1     1      0.1090 284512.000
   10     1     1      0.1090 284512.000
   11     1     1      0.1090 284512.000
   12     4     1      0.1080 307105.600
   13     6     1      0.1080 307105.600
   14     7     1      0.1080 307105.600
   15     8     1      0.1090 284512.000
   16     8     1      0.1090 284512.000
    8     7     1      0.1510 265265.600

[ angles ]
;  ai    aj    ak funct            c0            c1            c2            c3 
    1     2     3     1    111.000    627.600
    2     3     4     1    123.000    585.760
    3     4     5     1    119.400    711.280
    4     5     6     1    104.200    518.816
    5     6     7     1    119.400    711.280
    2     3     8     1    118.760    505.678
    2     1     9     1    109.500    292.880
    2     1    10     1    109.500    292.880
    2     1    11     1    109.500    292.880
    3     4    12     1    120.000    292.880
    5     6    13     1    118.760    505.678
    6     7    14     1    120.000    292.880
    3     8    15     1    109.500    292.880
    3     8    16     1    109.500    292.880
    5     4    12     1    118.760    505.678
    3     8     7     1    112.400    527.184
   15     8    16     1    107.800    276.144
    7     8    16     1    109.500    292.880
    4     3     8     1    124.000    585.760
    6     7     8     1    124.000    585.760
    7     6    13     1    120.000    292.880
   10     1    11     1    107.800    276.144
    7     8    15     1    109.500    292.880
    9     1    10     1    107.800    276.144
    9     1    11     1    107.800    276.144
    8     7    14     1    118.760    505.678

[ dihedrals ]
; IMPROPER DIHEDRAL ANGLES 
;  ai    aj    ak    al funct            c0            c1            c2            c3            c4            c5
     8     3     2     4    4        180.000     10.460     2  
    14     7     6     8    4        180.000     10.460     2  
    12     4     3     5    4        180.000     10.460     2  
    13     6     5     7    4        180.000     10.460     2  

[ dihedrals ]
; PROPER DIHEDRAL ANGLES
;  ai    aj    ak    al funct            c0            c1            c2            c3            c4            c5
    6    7    8    3        3       0.527  -6.397  -1.695   7.565  -0.000   0.000
    4    3    2    1        3       5.230   7.322  -12.552  -0.000  -0.000   0.000
    7    6    5    4        3       0.941   2.314   2.410  -5.665  -0.000   0.000
    7    8    3    4        3       0.527  -6.397  -1.695   7.565  -0.000   0.000
    7    8    3    2        3      -1.157  -3.471   0.000   4.628  -0.000   0.000
    6    5    4    3        3       0.941   2.314   2.410  -5.665  -0.000   0.000
    8    7    6    5        3      58.576   0.000  -58.576  -0.000  -0.000   0.000
    8    3    4    5        3      58.576   0.000  -58.576  -0.000  -0.000   0.000
    8    3    2    1        3       1.715   2.845   1.046  -5.607  -0.000   0.000
   13    6    7    8        3      58.576   0.000  -58.576  -0.000  -0.000   0.000
   12    4    3    8        3      58.576   0.000  -58.576  -0.000  -0.000   0.000
   14    7    6   13        3      58.576   0.000  -58.576  -0.000  -0.000   0.000
   12    4    3    2        3      58.576   0.000  -58.576  -0.000  -0.000   0.000
   14    7    6    5        3      58.576   0.000  -58.576  -0.000  -0.000   0.000
   14    7    8    3        3      -33.472   0.000  33.472  -0.000  -0.000   0.000
   13    6    5    4        3      30.334   0.000  -30.334  -0.000  -0.000   0.000
   12    4    5    6        3      30.334   0.000  -30.334  -0.000  -0.000   0.000
   16    8    3    4        3      -0.778  -2.335   0.000   3.113  -0.000   0.000
   15    8    7    6        3      -0.778  -2.335   0.000   3.113  -0.000   0.000
   16    8    7    6        3      -0.778  -2.335   0.000   3.113  -0.000   0.000
   15    8    3    4        3      -0.778  -2.335   0.000   3.113  -0.000   0.000
   15    8    7   14        3       0.665   1.996   0.000  -2.661  -0.000   0.000
   16    8    7   14        3       0.665   1.996   0.000  -2.661  -0.000   0.000
   16    8    3    2        3       0.979   2.937   0.000  -3.916  -0.000   0.000
   15    8    3    2        3       0.979   2.937   0.000  -3.916  -0.000   0.000
   11    1    2    3        3       1.590   4.770   0.000  -6.360  -0.000   0.000
    9    1    2    3        3       1.590   4.770   0.000  -6.360  -0.000   0.000
   10    1    2    3        3       1.590   4.770   0.000  -6.360  -0.000   0.000
    5    4    3    2        3      58.576   0.000  -58.576  -0.000  -0.000   0.000

[ pairs ]
     1     4    1
     2     5    1
     3     6    1
     2     7    1
     1     8    1
     4     7    1
     3     9    1
     5     8    1
     3    10    1
     3    11    1
     2    12    1
     4    13    1
     3    14    1
     2    15    1
     6    12    1
     2    16    1
     5    14    1
     4    15    1
     8    12    1
     4    16    1
     8    13    1
     6    15    1
     6    16    1
    13    14    1
    14    15    1
    14    16    1

