LIGPARGEN GENERATED GRO FILE
   23
    1UNK    C00    1   0.100   0.100   0.000
    1UNK    S01    2  -0.082   0.100   0.000
    1UNK    C02    3  -0.112   0.100   0.179
    1UNK    C03    4  -0.056   0.224   0.246
    1UNK    O04    5   0.056   0.225   0.296
    1UNK    O05    6  -0.145   0.326   0.239
    1UNK    C06    7  -0.107   0.444   0.295
    1UNK    O07    8  -0.002   0.470   0.352
    1UNK    C08    9  -0.214   0.547   0.281
    1UNK    S09   10  -0.313   0.547   0.427
    1UNK    C0A   11  -0.202   0.583   0.562
    1UNK    O0B   12  -0.405   0.659   0.416
    1UNK    O0C   13  -0.365   0.413   0.446
    1UNK    H0D   14   0.135   0.092  -0.103
    1UNK    H0E   15   0.139   0.015   0.057
    1UNK    H0F   16   0.138   0.194   0.041
    1UNK    H0G   17  -0.067   0.011   0.225
    1UNK    H0H   18  -0.220   0.094   0.198
    1UNK    H0I   19  -0.278   0.526   0.195
    1UNK    H0J   20  -0.170   0.646   0.268
    1UNK    H0K   21  -0.153   0.678   0.543
    1UNK    H0M   22  -0.130   0.502   0.573
    1UNK    H0N   23  -0.262   0.590   0.653
   1.00000   1.00000   1.00000

