
;
; GENERATED BY LigParGen Server
; Jorgensen Lab @ Yale University 
;
[ atomtypes ]
  opls_807  O807    15.9990     0.000    A    2.96000E-01   8.78640E-01
  opls_818  H818     1.0080     0.000    A    2.50000E-01   1.25520E-01
  opls_801  S801    32.0600     0.000    A    3.60000E-01   1.48532E+00
  opls_804  O804    15.9990     0.000    A    2.96000E-01   8.78640E-01
  opls_813  H813     1.0080     0.000    A    2.50000E-01   1.25520E-01
  opls_802  C802    12.0110     0.000    A    3.50000E-01   2.76144E-01
  opls_815  H815     1.0080     0.000    A    2.50000E-01   1.25520E-01
  opls_822  H822     1.0080     0.000    A    2.50000E-01   1.25520E-01
  opls_811  O811    15.9990     0.000    A    2.96000E-01   7.11280E-01
  opls_814  H814     1.0080     0.000    A    2.50000E-01   1.25520E-01
  opls_821  H821     1.0080     0.000    A    2.50000E-01   1.25520E-01
  opls_812  O812    15.9990     0.000    A    2.96000E-01   7.11280E-01
  opls_820  H820     1.0080     0.000    A    2.50000E-01   1.25520E-01
  opls_809  S809    32.0600     0.000    A    3.55000E-01   1.04600E+00
  opls_816  H816     1.0080     0.000    A    2.50000E-01   1.25520E-01
  opls_800  C800    12.0110     0.000    A    3.50000E-01   2.76144E-01
  opls_806  C806    12.0110     0.000    A    3.55000E-01   2.92880E-01
  opls_805  O805    15.9990     0.000    A    2.90000E-01   5.85760E-01
  opls_819  H819     1.0080     0.000    A    2.50000E-01   1.25520E-01
  opls_810  C810    12.0110     0.000    A    3.50000E-01   2.76144E-01
  opls_803  C803    12.0110     0.000    A    3.55000E-01   2.92880E-01
  opls_808  C808    12.0110     0.000    A    3.50000E-01   2.76144E-01
  opls_817  H817     1.0080     0.000    A    2.50000E-01   1.25520E-01
[ moleculetype ]
; Name               nrexcl
UNK                   3
[ atoms ]
;   nr       type  resnr residue  atom   cgnr     charge       mass  
     1   opls_800      1    UNK   C00      1     -0.161    12.0110 
     2   opls_801      1    UNK   S01      1    -0.3196    32.0600 
     3   opls_802      1    UNK   C02      1    -0.1181    12.0110 
     4   opls_803      1    UNK   C03      1      0.445    12.0110 
     5   opls_804      1    UNK   O04      1    -0.3789    15.9990 
     6   opls_805      1    UNK   O05      1    -0.3043    15.9990 
     7   opls_806      1    UNK   C06      1     0.4658    12.0110 
     8   opls_807      1    UNK   O07      1    -0.3761    15.9990 
     9   opls_808      1    UNK   C08      1    -0.5956    12.0110 
    10   opls_809      1    UNK   S09      1     1.3121    32.0600 
    11   opls_810      1    UNK   C0A      1    -0.5552    12.0110 
    12   opls_811      1    UNK   O0B      1    -0.5417    15.9990 
    13   opls_812      1    UNK   O0C      1    -0.5417    15.9990 
    14   opls_813      1    UNK   H0D      1     0.1253     1.0080 
    15   opls_814      1    UNK   H0E      1     0.1253     1.0080 
    16   opls_815      1    UNK   H0F      1     0.1253     1.0080 
    17   opls_816      1    UNK   H0G      1     0.1685     1.0080 
    18   opls_817      1    UNK   H0H      1     0.1685     1.0080 
    19   opls_818      1    UNK   H0I      1     0.2131     1.0080 
    20   opls_819      1    UNK   H0J      1     0.2131     1.0080 
    21   opls_820      1    UNK   H0K      1     0.1766     1.0080 
    22   opls_821      1    UNK   H0M      1     0.1766     1.0080 
    23   opls_822      1    UNK   H0N      1     0.1766     1.0080 
[ bonds ]
    2     1     1      0.1810 185769.600
    3     2     1      0.1810 185769.600
    4     3     1      0.1522 265265.600
    5     4     1      0.1229 476976.000
    6     4     1      0.1327 179075.200
    7     6     1      0.1327 179075.200
    8     7     1      0.1229 476976.000
    9     7     1      0.1522 265265.600
   10     9     1      0.1770 284512.000
   11    10     1      0.1770 284512.000
   12    10     1      0.1440 585760.000
   13    10     1      0.1440 585760.000
   14     1     1      0.1090 284512.000
   15     1     1      0.1090 284512.000
   16     1     1      0.1090 284512.000
   17     3     1      0.1090 284512.000
   18     3     1      0.1090 284512.000
   19     9     1      0.1090 284512.000
   20     9     1      0.1090 284512.000
   21    11     1      0.1090 284512.000
   22    11     1      0.1090 284512.000
   23    11     1      0.1090 284512.000

[ angles ]
;  ai    aj    ak funct            c0            c1            c2            c3 
    1     2     3     1     98.900    518.816
    2     3     4     1    110.580    432.207
    3     4     5     1    120.400    669.440
    3     4     6     1    111.400    677.808
    4     6     7     1    114.540    581.660
    6     7     8     1    123.400    694.544
    6     7     9     1    111.400    677.808
    7     9    10     1    110.580    432.207
    9    10    11     1    102.000    518.816
    9    10    12     1    108.900    619.232
    9    10    13     1    108.900    619.232
    2     1    14     1    109.500    292.880
    2     1    15     1    109.500    292.880
    2     1    16     1    109.500    292.880
    2     3    17     1    109.500    292.880
    2     3    18     1    109.500    292.880
    7     9    19     1    109.500    292.880
    7     9    20     1    109.500    292.880
   10    11    21     1    109.500    292.880
   10    11    22     1    109.500    292.880
   10    11    23     1    109.500    292.880
    5     4     6     1    123.400    694.544
   14     1    16     1    107.800    276.144
   21    11    23     1    107.800    276.144
   12    10    13     1    119.000    870.272
    8     7     9     1    120.400    669.440
   22    11    23     1    107.800    276.144
    4     3    18     1    109.500    292.880
   21    11    22     1    107.800    276.144
   15     1    16     1    107.800    276.144
   14     1    15     1    107.800    276.144
   10     9    19     1    109.500    292.880
    4     3    17     1    109.500    292.880
   11    10    13     1    108.900    619.232
   17     3    18     1    107.800    276.144
   11    10    12     1    108.900    619.232
   19     9    20     1    107.800    276.144
   10     9    20     1    109.500    292.880

[ dihedrals ]
; IMPROPER DIHEDRAL ANGLES 
;  ai    aj    ak    al funct            c0            c1            c2            c3            c4            c5
     9     7     6     8    4        180.000     43.932     2  
     6     4     3     5    4        180.000     43.932     2  

[ dihedrals ]
; PROPER DIHEDRAL ANGLES
;  ai    aj    ak    al funct            c0            c1            c2            c3            c4            c5
    4    3    2    1        3       0.941   2.314   2.410  -5.665  -0.000   0.000
    7    6    4    3        3      31.206  -9.768  -21.439  -0.000  -0.000   0.000
    7    6    4    5        3      21.439   0.000  -21.439  -0.000  -0.000   0.000
    9    7    6    4        3      31.206  -9.768  -21.439  -0.000  -0.000   0.000
   11   10    9    7        3       0.000   0.000   0.000  -0.000  -0.000   0.000
   18    3    4    5        3       0.000   0.000   0.000  -0.000  -0.000   0.000
   17    3    4    5        3       0.000   0.000   0.000  -0.000  -0.000   0.000
   20    9    7    8        3       0.000   0.000   0.000  -0.000  -0.000   0.000
   19    9    7    8        3       0.000   0.000   0.000  -0.000  -0.000   0.000
   20    9    7    6        3       0.276   0.828   0.000  -1.105  -0.000   0.000
   19    9    7    6        3       0.276   0.828   0.000  -1.105  -0.000   0.000
   18    3    4    6        3       0.276   0.828   0.000  -1.105  -0.000   0.000
   17    3    4    6        3       0.276   0.828   0.000  -1.105  -0.000   0.000
   16    1    2    3        3       1.354   4.061   0.000  -5.414  -0.000   0.000
   15    1    2    3        3       1.354   4.061   0.000  -5.414  -0.000   0.000
   18    3    2    1        3       1.354   4.061   0.000  -5.414  -0.000   0.000
   14    1    2    3        3       1.354   4.061   0.000  -5.414  -0.000   0.000
   17    3    2    1        3       1.354   4.061   0.000  -5.414  -0.000   0.000
   19    9   10   11        3       0.732   2.197   0.000  -2.929  -0.000   0.000
   23   11   10    9        3       0.732   2.197   0.000  -2.929  -0.000   0.000
   22   11   10    9        3       0.732   2.197   0.000  -2.929  -0.000   0.000
   20    9   10   11        3       0.732   2.197   0.000  -2.929  -0.000   0.000
   21   11   10    9        3       0.732   2.197   0.000  -2.929  -0.000   0.000
   21   11   10   13        3       0.732   2.197   0.000  -2.929  -0.000   0.000
   19    9   10   12        3       0.732   2.197   0.000  -2.929  -0.000   0.000
   22   11   10   13        3       0.732   2.197   0.000  -2.929  -0.000   0.000
   21   11   10   12        3       0.732   2.197   0.000  -2.929  -0.000   0.000
   22   11   10   12        3       0.732   2.197   0.000  -2.929  -0.000   0.000
   20    9   10   13        3       0.732   2.197   0.000  -2.929  -0.000   0.000
   23   11   10   13        3       0.732   2.197   0.000  -2.929  -0.000   0.000
   20    9   10   12        3       0.732   2.197   0.000  -2.929  -0.000   0.000
   19    9   10   13        3       0.732   2.197   0.000  -2.929  -0.000   0.000
   23   11   10   12        3       0.732   2.197   0.000  -2.929  -0.000   0.000
    5    4    3    2        3       0.000   0.000   0.000  -0.000  -0.000   0.000
    8    7    6    4        3      21.439   0.000  -21.439  -0.000  -0.000   0.000
    6    4    3    2        3       0.000   0.000   0.000  -0.000  -0.000   0.000
   13   10    9    7        3       0.000   0.000   0.000  -0.000  -0.000   0.000
   12   10    9    7        3       0.000   0.000   0.000  -0.000  -0.000   0.000
   10    9    7    8        3       0.000   0.000   0.000  -0.000  -0.000   0.000
   10    9    7    6        3       0.000   0.000   0.000  -0.000  -0.000   0.000

[ pairs ]
     1     4    1
     2     5    1
     2     6    1
     3     7    1
     5     7    1
     4     8    1
     4     9    1
     6    10    1
     3    14    1
     8    10    1
     7    11    1
     3    15    1
     1    17    1
     7    12    1
     3    16    1
     1    18    1
     7    13    1
     5    17    1
     6    17    1
     5    18    1
     6    18    1
     6    19    1
     6    20    1
     8    19    1
     8    20    1
    11    19    1
     9    21    1
    12    19    1
    11    20    1
     9    22    1
    13    19    1
    12    20    1
     9    23    1
    13    20    1
    12    21    1
    13    21    1
    12    22    1
    13    22    1
    12    23    1
    13    23    1

