LIGPARGEN GENERATED GRO FILE
   46
    1UNK    C00    1   0.100   0.100   0.000
    1UNK    C01    2  -0.053   0.100   0.000
    1UNK    C02    3  -0.105   0.100   0.144
    1UNK    C03    4  -0.260   0.100   0.160
    1UNK    C04    5  -0.326  -0.020   0.086
    1UNK    C05    6  -0.297  -0.159   0.140
    1UNK    C06    7  -0.314   0.128   0.309
    1UNK    C07    8  -0.262   0.264   0.354
    1UNK    N08    9  -0.219   0.376   0.391
    1UNK    C09   10  -0.470   0.137   0.304
    1UNK    C0A   11  -0.546   0.164   0.434
    1UNK    C0B   12  -0.555   0.040   0.522
    1UNK    C0C   13  -0.445   0.028   0.625
    1UNK    C0D   14  -0.300   0.052   0.577
    1UNK    C0E   15  -0.246   0.182   0.639
    1UNK    C0F   16  -0.266   0.026   0.428
    1UNK    C0G   17  -0.114  -0.003   0.430
    1UNK    H0H   18   0.138   0.093  -0.102
    1UNK    H0I   19   0.139   0.014   0.056
    1UNK    H0J   20   0.139   0.191   0.046
    1UNK    H0K   21  -0.086   0.010  -0.053
    1UNK    H0M   22  -0.090   0.188  -0.054
    1UNK    H0N   23  -0.063   0.187   0.195
    1UNK    H0O   24  -0.062   0.011   0.189
    1UNK    H0P   25  -0.293   0.188   0.102
    1UNK    H0Q   26  -0.294  -0.017  -0.019
    1UNK    H0R   27  -0.434  -0.006   0.079
    1UNK    H0S   28  -0.191  -0.175   0.158
    1UNK    H0T   29  -0.330  -0.234   0.067
    1UNK    H0U   30  -0.353  -0.178   0.232
    1UNK    H0V   31  -0.511   0.044   0.263
    1UNK    H0W   32  -0.498   0.217   0.234
    1UNK    H0X   33  -0.649   0.190   0.406
    1UNK    H0Y   34  -0.507   0.250   0.488
    1UNK    H0Z   35  -0.560  -0.051   0.462
    1UNK    H10   36  -0.650   0.044   0.578
    1UNK    H11   37  -0.450  -0.073   0.666
    1UNK    H12   38  -0.467   0.094   0.709
    1UNK    H13   39  -0.245  -0.025   0.634
    1UNK    H14   40  -0.311   0.268   0.619
    1UNK    H15   41  -0.144   0.205   0.604
    1UNK    H16   42  -0.240   0.173   0.748
    1UNK    H17   43  -0.314  -0.070   0.407
    1UNK    H18   44  -0.055   0.087   0.415
    1UNK    H19   45  -0.089  -0.079   0.356
    1UNK    H1A   46  -0.081  -0.046   0.525
   1.00000   1.00000   1.00000

