LIGPARGEN GENERATED GRO FILE
   41
    1UNK    C00    1   0.100   0.100   0.000
    1UNK    C01    2  -0.052   0.100   0.000
    1UNK    C02    3  -0.109   0.100   0.142
    1UNK    C03    4  -0.264   0.106   0.146
    1UNK    C04    5  -0.326  -0.017   0.081
    1UNK    O05    6  -0.311   0.108   0.282
    1UNK    C06    7  -0.292   0.221   0.354
    1UNK    O07    8  -0.244   0.326   0.311
    1UNK    O08    9  -0.322   0.195   0.483
    1UNK    C09   10  -0.236   0.259   0.578
    1UNK    C0A   11  -0.303   0.372   0.655
    1UNK    C0B   12  -0.430   0.334   0.733
    1UNK    C0C   13  -0.408   0.219   0.832
    1UNK    C0D   14  -0.479   0.458   0.809
    1UNK    O0E   15  -0.438   0.483   0.922
    1UNK    C0F   16  -0.574   0.550   0.734
    1UNK    C0G   17  -0.616   0.669   0.818
    1UNK    H0H   18   0.138   0.100  -0.103
    1UNK    H0I   19   0.139   0.011   0.050
    1UNK    H0J   20   0.140   0.189   0.050
    1UNK    H0K   21  -0.086   0.012  -0.055
    1UNK    H0M   22  -0.088   0.188  -0.054
    1UNK    H0N   23  -0.067   0.185   0.197
    1UNK    H0O   24  -0.075   0.011   0.196
    1UNK    H0P   25  -0.300   0.196   0.094
    1UNK    H0Q   26  -0.288  -0.109   0.128
    1UNK    H0R   27  -0.306  -0.022  -0.026
    1UNK    H0S   28  -0.434  -0.017   0.095
    1UNK    H0T   29  -0.145   0.296   0.530
    1UNK    H0U   30  -0.203   0.180   0.647
    1UNK    H0V   31  -0.328   0.452   0.584
    1UNK    H0W   32  -0.230   0.414   0.724
    1UNK    H0X   33  -0.509   0.303   0.663
    1UNK    H0Y   34  -0.328   0.243   0.904
    1UNK    H0Z   35  -0.381   0.127   0.781
    1UNK    H10   36  -0.499   0.201   0.890
    1UNK    H11   37  -0.662   0.492   0.706
    1UNK    H12   38  -0.524   0.585   0.643
    1UNK    H13   39  -0.667   0.637   0.909
    1UNK    H14   40  -0.685   0.733   0.761
    1UNK    H15   41  -0.530   0.730   0.847
   1.00000   1.00000   1.00000

