LIGPARGEN GENERATED GRO FILE
   19
    1UNK    C00    1   0.100   0.100   0.000
    1UNK    N01    2  -0.046   0.100   0.000
    1UNK    C02    3  -0.111   0.100   0.131
    1UNK    C03    4  -0.122   0.108  -0.117
    1UNK    C04    5  -0.071   0.116  -0.242
    1UNK    O05    6  -0.149   0.123  -0.356
    1UNK    C06    7  -0.286   0.122  -0.337
    1UNK    C07    8  -0.369   0.136  -0.453
    1UNK    N08    9  -0.436   0.147  -0.546
    1UNK    C09   10  -0.338   0.109  -0.215
    1UNK    O0A   11  -0.261   0.107  -0.101
    1UNK    H0B   12   0.142   0.094   0.101
    1UNK    H0C   13   0.138   0.192  -0.045
    1UNK    H0D   14   0.138   0.014  -0.056
    1UNK    H0E   15  -0.038   0.100   0.213
    1UNK    H0F   16  -0.174   0.011   0.143
    1UNK    H0G   17  -0.173   0.189   0.143
    1UNK    H0H   18   0.034   0.117  -0.267
    1UNK    H0I   19  -0.443   0.099  -0.191
   1.00000   1.00000   1.00000

