
;
; GENERATED BY LigParGen Server
; Jorgensen Lab @ Yale University 
;
[ atomtypes ]
  opls_802  C802    12.0110     0.000    A    3.50000E-01   2.76144E-01
  opls_803  C803    12.0110     0.000    A    3.55000E-01   3.17984E-01
  opls_817  H817     1.0080     0.000    A    2.42000E-01   1.25520E-01
  opls_815  H815     1.0080     0.000    A    2.50000E-01   1.25520E-01
  opls_800  C800    12.0110     0.000    A    3.50000E-01   2.76144E-01
  opls_814  H814     1.0080     0.000    A    2.50000E-01   1.25520E-01
  opls_818  H818     1.0080     0.000    A    2.42000E-01   1.25520E-01
  opls_810  O810    15.9990     0.000    A    2.90000E-01   5.85760E-01
  opls_812  H812     1.0080     0.000    A    2.50000E-01   1.25520E-01
  opls_804  C804    12.0110     0.000    A    3.55000E-01   3.17984E-01
  opls_807  C807    12.0110     0.000    A    3.30000E-01   2.76144E-01
  opls_801  N801    14.0070     0.000    A    3.25000E-01   7.11280E-01
  opls_805  O805    15.9990     0.000    A    2.90000E-01   5.85760E-01
  opls_809  C809    12.0110     0.000    A    3.55000E-01   3.17984E-01
  opls_808  N808    14.0070     0.000    A    3.20000E-01   7.11280E-01
  opls_813  H813     1.0080     0.000    A    2.50000E-01   1.25520E-01
  opls_806  C806    12.0110     0.000    A    3.55000E-01   3.17984E-01
  opls_811  H811     1.0080     0.000    A    2.50000E-01   1.25520E-01
  opls_816  H816     1.0080     0.000    A    2.50000E-01   1.25520E-01
[ moleculetype ]
; Name               nrexcl
UNK                   3
[ atoms ]
;   nr       type  resnr residue  atom   cgnr     charge       mass  
     1   opls_800      1    UNK   C00      1     0.0794    12.0110 
     2   opls_801      1    UNK   N01      1    -0.7957    14.0070 
     3   opls_802      1    UNK   C02      1     0.0707    12.0110 
     4   opls_803      1    UNK   C03      1     0.3518    12.0110 
     5   opls_804      1    UNK   C04      1    -0.1928    12.0110 
     6   opls_805      1    UNK   O05      1    -0.2117    15.9990 
     7   opls_806      1    UNK   C06      1     0.0689    12.0110 
     8   opls_807      1    UNK   C07      1     0.2118    12.0110 
     9   opls_808      1    UNK   N08      1    -0.3184    14.0070 
    10   opls_809      1    UNK   C09      1     0.0067    12.0110 
    11   opls_810      1    UNK   O0A      1    -0.2601    15.9990 
    12   opls_811      1    UNK   H0B      1     0.0918     1.0080 
    13   opls_812      1    UNK   H0C      1     0.0918     1.0080 
    14   opls_813      1    UNK   H0D      1     0.0918     1.0080 
    15   opls_814      1    UNK   H0E      1      0.092     1.0080 
    16   opls_815      1    UNK   H0F      1      0.092     1.0080 
    17   opls_816      1    UNK   H0G      1      0.092     1.0080 
    18   opls_817      1    UNK   H0H      1     0.2161     1.0080 
    19   opls_818      1    UNK   H0I      1     0.2217     1.0080 
[ bonds ]
    2     1     1      0.1449 282001.600
    3     2     1      0.1449 282001.600
    4     2     1      0.1381 357313.600
    5     4     1      0.1340 459403.200
    6     5     1      0.1370 376560.000
    7     6     1      0.1370 376560.000
    8     7     1      0.1426 334720.000
    9     8     1      0.1157 543920.000
   10     7     1      0.1340 459403.200
   11     4     1      0.1370 376560.000
   12     1     1      0.1090 284512.000
   13     1     1      0.1090 284512.000
   14     1     1      0.1090 284512.000
   15     3     1      0.1090 284512.000
   16     3     1      0.1090 284512.000
   17     3     1      0.1090 284512.000
   18     5     1      0.1080 307105.600
   19    10     1      0.1080 307105.600
   11    10     1      0.1370 376560.000

[ angles ]
;  ai    aj    ak funct            c0            c1            c2            c3 
    1     2     3     1    118.000    418.400
    1     2     4     1    118.000    418.400
    2     4     5     1    120.000    585.760
    4     5     6     1    123.000    585.760
    5     6     7     1    111.000    627.600
    6     7     8     1    118.760    505.678
    7     8     9     1    180.000   1255.200
    6     7    10     1    123.000    585.760
    2     4    11     1    118.760    505.678
    2     1    12     1    109.500    292.880
    2     1    13     1    109.500    292.880
    2     1    14     1    109.500    292.880
    2     3    15     1    109.500    292.880
    2     3    16     1    109.500    292.880
    2     3    17     1    109.500    292.880
    4     5    18     1    120.000    292.880
    7    10    19     1    120.000    292.880
   13     1    14     1    107.800    276.144
    7    10    11     1    123.000    585.760
    8     7    10     1    124.000    585.760
   15     3    16     1    107.800    276.144
   12     1    14     1    107.800    276.144
   11    10    19     1    118.760    505.678
   12     1    13     1    107.800    276.144
    3     2     4     1    118.000    418.400
   15     3    17     1    107.800    276.144
    5     4    11     1    123.000    585.760
    4    11    10     1    111.000    627.600
   16     3    17     1    107.800    276.144
    6     5    18     1    118.760    505.678

[ dihedrals ]
; IMPROPER DIHEDRAL ANGLES 
;  ai    aj    ak    al funct            c0            c1            c2            c3            c4            c5
    10     7     6     8    4        180.000     10.460     2  
     4     2     1     3    4        180.000     10.460     2  
    18     5     4     6    4        180.000     10.460     2  
    19    10     7    11    4        180.000     10.460     2  
    11     4     2     5    4        180.000     10.460     2  

[ dihedrals ]
; PROPER DIHEDRAL ANGLES
;  ai    aj    ak    al funct            c0            c1            c2            c3            c4            c5
   10    7    8    9        3       0.000   0.000   0.000  -0.000  -0.000   0.000
    5    4    2    1        3      30.288  -4.812  -25.476  -0.000  -0.000   0.000
    5    4    2    3        3      30.288  -4.812  -25.476  -0.000  -0.000   0.000
   10    7    6    5        3       5.230   7.322  -12.552  -0.000  -0.000   0.000
    7   10   11    4        3       5.230   7.322  -12.552  -0.000  -0.000   0.000
    7    6    5    4        3       5.230   7.322  -12.552  -0.000  -0.000   0.000
   10   11    4    5        3       5.230   7.322  -12.552  -0.000  -0.000   0.000
   10   11    4    2        3      16.736   4.184  -20.920  -0.000  -0.000   0.000
    8    7    6    5        3       1.715   2.845   1.046  -5.607  -0.000   0.000
   19   10    7    8        3      58.576   0.000  -58.576  -0.000  -0.000   0.000
   18    5    4    2        3      30.334   0.000  -30.334  -0.000  -0.000   0.000
   18    5    4   11        3      58.576   0.000  -58.576  -0.000  -0.000   0.000
   19   10    7    6        3      58.576   0.000  -58.576  -0.000  -0.000   0.000
   19   10   11    4        3       1.590   4.770   0.000  -6.360  -0.000   0.000
   18    5    6    7        3       1.590   4.770   0.000  -6.360  -0.000   0.000
   13    1    2    4        3       0.000   0.000   0.000  -0.000  -0.000   0.000
   17    3    2    4        3       0.000   0.000   0.000  -0.000  -0.000   0.000
   15    3    2    4        3       0.000   0.000   0.000  -0.000  -0.000   0.000
   16    3    2    4        3       0.000   0.000   0.000  -0.000  -0.000   0.000
   12    1    2    4        3       0.000   0.000   0.000  -0.000  -0.000   0.000
   14    1    2    4        3       0.000   0.000   0.000  -0.000  -0.000   0.000
   13    1    2    3        3       0.000   0.000   0.000  -0.000  -0.000   0.000
   15    3    2    1        3       0.000   0.000   0.000  -0.000  -0.000   0.000
   17    3    2    1        3       0.000   0.000   0.000  -0.000  -0.000   0.000
   16    3    2    1        3       0.000   0.000   0.000  -0.000  -0.000   0.000
   14    1    2    3        3       0.000   0.000   0.000  -0.000  -0.000   0.000
   12    1    2    3        3       0.000   0.000   0.000  -0.000  -0.000   0.000
    9    8    7    6        3       0.000   0.000   0.000  -0.000  -0.000   0.000
   11   10    7    8        3      58.576   0.000  -58.576  -0.000  -0.000   0.000
    6    5    4    2        3      58.576   0.000  -58.576  -0.000  -0.000   0.000
   11    4    5    6        3      58.576   0.000  -58.576  -0.000  -0.000   0.000
   11   10    7    6        3      58.576   0.000  -58.576  -0.000  -0.000   0.000
   11    4    2    1        3      30.288  -4.812  -25.476  -0.000  -0.000   0.000
   11    4    2    3        3      30.288  -4.812  -25.476  -0.000  -0.000   0.000

[ pairs ]
     1     5    1
     3     5    1
     2     6    1
     4     7    1
     2    10    1
     1    11    1
     5     8    1
     3    11    1
     6     9    1
     5    10    1
     3    12    1
     4    12    1
     3    13    1
     1    15    1
     6    11    1
     4    13    1
     3    14    1
     1    16    1
     4    14    1
     1    17    1
     9    10    1
     8    11    1
     4    15    1
     4    16    1
     2    18    1
     4    17    1
     4    19    1
     7    18    1
     6    19    1
     8    19    1
    11    18    1

