LIGPARGEN GENERATED GRO FILE
   37
    1UNK    C00    1   0.100   0.100   0.000
    1UNK    C01    2  -0.051   0.100   0.000
    1UNK    O02    3  -0.115   0.100   0.105
    1UNK    C03    4  -0.116   0.100  -0.137
    1UNK    C04    5  -0.270   0.100  -0.131
    1UNK    C05    6  -0.341   0.100  -0.271
    1UNK    C06    7  -0.493   0.100  -0.245
    1UNK    C07    8  -0.306   0.235  -0.337
    1UNK    C08    9  -0.299  -0.026  -0.359
    1UNK    C09   10  -0.330  -0.158  -0.283
    1UNK    C0A   11  -0.356  -0.036  -0.506
    1UNK    C0B   12  -0.314   0.078  -0.599
    1UNK    C0C   13  -0.312  -0.167  -0.575
    1UNK    H0D   14   0.137   0.100   0.103
    1UNK    H0E   15   0.137   0.190  -0.051
    1UNK    H0F   16   0.137   0.010  -0.051
    1UNK    H0G   17  -0.080   0.011  -0.189
    1UNK    H0H   18  -0.080   0.189  -0.190
    1UNK    H0I   19  -0.302   0.189  -0.074
    1UNK    H0J   20  -0.304   0.016  -0.070
    1UNK    H0K   21  -0.524   0.190  -0.190
    1UNK    H0M   22  -0.524   0.014  -0.184
    1UNK    H0N   23  -0.550   0.098  -0.338
    1UNK    H0O   24  -0.307   0.317  -0.263
    1UNK    H0P   25  -0.380   0.265  -0.412
    1UNK    H0Q   26  -0.207   0.234  -0.382
    1UNK    H0R   27  -0.190  -0.022  -0.370
    1UNK    H0S   28  -0.437  -0.177  -0.280
    1UNK    H0T   29  -0.292  -0.157  -0.180
    1UNK    H0U   30  -0.281  -0.244  -0.330
    1UNK    H0V   31  -0.466  -0.038  -0.501
    1UNK    H0W   32  -0.209   0.106  -0.583
    1UNK    H0X   33  -0.377   0.166  -0.586
    1UNK    H0Y   34  -0.324   0.050  -0.704
    1UNK    H0Z   35  -0.203  -0.178  -0.574
    1UNK    H10   36  -0.344  -0.169  -0.680
    1UNK    H11   37  -0.357  -0.255  -0.529
   1.00000   1.00000   1.00000

