LIGPARGEN GENERATED GRO FILE
   37
    1UNK    C00    1   0.100   0.100   0.000
    1UNK    C01    2  -0.052   0.100   0.000
    1UNK    C02    3  -0.114   0.100   0.141
    1UNK    C03    4  -0.070   0.224   0.217
    1UNK    N04    5  -0.034   0.328   0.280
    1UNK    C05    6  -0.269   0.103   0.137
    1UNK    C06    7  -0.341  -0.013   0.062
    1UNK    C07    8  -0.308  -0.148   0.127
    1UNK    C08    9  -0.494   0.013   0.061
    1UNK    C09   10  -0.536   0.138  -0.017
    1UNK    C0A   11  -0.685   0.118  -0.039
    1UNK    C0B   12  -0.697  -0.031  -0.073
    1UNK    C0C   13  -0.831  -0.090  -0.032
    1UNK    C0D   14  -0.577  -0.099  -0.005
    1UNK    H0E   15   0.137   0.093  -0.103
    1UNK    H0F   16   0.139   0.015   0.056
    1UNK    H0G   17   0.140   0.192   0.044
    1UNK    H0H   18  -0.085   0.011  -0.055
    1UNK    H0I   19  -0.088   0.187  -0.057
    1UNK    H0J   20  -0.079   0.012   0.197
    1UNK    H0K   21  -0.299   0.198   0.091
    1UNK    H0M   22  -0.306   0.106   0.240
    1UNK    H0N   23  -0.307  -0.015  -0.042
    1UNK    H0O   24  -0.333  -0.148   0.233
    1UNK    H0P   25  -0.201  -0.170   0.117
    1UNK    H0Q   26  -0.362  -0.230   0.079
    1UNK    H0R   27  -0.529   0.024   0.164
    1UNK    H0S   28  -0.484   0.143  -0.114
    1UNK    H0T   29  -0.516   0.231   0.038
    1UNK    H0U   30  -0.724   0.182  -0.119
    1UNK    H0V   31  -0.739   0.141   0.053
    1UNK    H0W   32  -0.686  -0.042  -0.182
    1UNK    H0X   33  -0.847  -0.081   0.076
    1UNK    H0Y   34  -0.836  -0.196  -0.059
    1UNK    H0Z   35  -0.913  -0.038  -0.083
    1UNK    H10   36  -0.519  -0.152  -0.082
    1UNK    H11   37  -0.609  -0.173   0.069
   1.00000   1.00000   1.00000

