
;
; GENERATED BY LigParGen Server
; Jorgensen Lab @ Yale University 
;
[ atomtypes ]
  opls_824  H824     1.0080     0.000    A    2.50000E-01   1.25520E-01
  opls_815  C815    12.0110     0.000    A    3.50000E-01   2.76144E-01
  opls_804  C804    12.0110     0.000    A    3.50000E-01   2.76144E-01
  opls_833  H833     1.0080     0.000    A    2.50000E-01   1.25520E-01
  opls_818  C818    12.0110     0.000    A    3.50000E-01   2.76144E-01
  opls_848  H848     1.0080     0.000    A    2.50000E-01   1.25520E-01
  opls_843  H843     1.0080     0.000    A    2.50000E-01   1.25520E-01
  opls_836  H836     1.0080     0.000    A    2.50000E-01   1.25520E-01
  opls_834  H834     1.0080     0.000    A    2.50000E-01   1.25520E-01
  opls_810  C810    12.0110     0.000    A    3.50000E-01   2.76144E-01
  opls_828  H828     1.0080     0.000    A    2.50000E-01   1.25520E-01
  opls_802  C802    12.0110     0.000    A    3.50000E-01   2.76144E-01
  opls_827  H827     1.0080     0.000    A    2.50000E-01   1.25520E-01
  opls_809  C809    12.0110     0.000    A    3.50000E-01   2.76144E-01
  opls_806  C806    12.0110     0.000    A    3.50000E-01   2.76144E-01
  opls_822  H822     1.0080     0.000    A    2.50000E-01   1.25520E-01
  opls_803  C803    12.0110     0.000    A    3.50000E-01   2.76144E-01
  opls_838  H838     1.0080     0.000    A    2.50000E-01   1.25520E-01
  opls_825  H825     1.0080     0.000    A    2.50000E-01   1.25520E-01
  opls_830  H830     1.0080     0.000    A    2.50000E-01   1.25520E-01
  opls_821  H821     1.0080     0.000    A    2.50000E-01   1.25520E-01
  opls_842  H842     1.0080     0.000    A    2.50000E-01   1.25520E-01
  opls_820  H820     1.0080     0.000    A    2.50000E-01   1.25520E-01
  opls_837  H837     1.0080     0.000    A    2.50000E-01   1.25520E-01
  opls_829  H829     1.0080     0.000    A    2.50000E-01   1.25520E-01
  opls_831  H831     1.0080     0.000    A    2.50000E-01   1.25520E-01
  opls_832  H832     1.0080     0.000    A    2.50000E-01   1.25520E-01
  opls_800  C800    12.0110     0.000    A    3.50000E-01   2.76144E-01
  opls_805  C805    12.0110     0.000    A    3.50000E-01   2.76144E-01
  opls_846  H846     1.0080     0.000    A    2.50000E-01   1.25520E-01
  opls_811  C811    12.0110     0.000    A    3.50000E-01   2.76144E-01
  opls_823  H823     1.0080     0.000    A    2.50000E-01   1.25520E-01
  opls_826  H826     1.0080     0.000    A    2.50000E-01   1.25520E-01
  opls_835  H835     1.0080     0.000    A    2.50000E-01   1.25520E-01
  opls_841  H841     1.0080     0.000    A    2.50000E-01   1.25520E-01
  opls_813  O813    15.9990     0.000    A    2.96000E-01   7.11280E-01
  opls_819  H819     1.0080     0.000    A    2.50000E-01   1.25520E-01
  opls_816  C816    12.0110     0.000    A    3.50000E-01   2.76144E-01
  opls_812  S812    32.0600     0.000    A    3.55000E-01   1.04600E+00
  opls_839  H839     1.0080     0.000    A    2.50000E-01   1.25520E-01
  opls_817  C817    12.0110     0.000    A    3.50000E-01   2.76144E-01
  opls_801  C801    12.0110     0.000    A    3.50000E-01   2.76144E-01
  opls_808  C808    12.0110     0.000    A    3.50000E-01   2.76144E-01
  opls_850  H850     1.0080     0.000    A    2.50000E-01   1.25520E-01
  opls_840  H840     1.0080     0.000    A    2.50000E-01   1.25520E-01
  opls_849  H849     1.0080     0.000    A    2.50000E-01   1.25520E-01
  opls_814  O814    15.9990     0.000    A    2.96000E-01   7.11280E-01
  opls_847  H847     1.0080     0.000    A    2.50000E-01   1.25520E-01
  opls_844  H844     1.0080     0.000    A    2.50000E-01   1.25520E-01
  opls_845  H845     1.0080     0.000    A    2.50000E-01   1.25520E-01
  opls_807  C807    12.0110     0.000    A    3.50000E-01   2.76144E-01
[ moleculetype ]
; Name               nrexcl
UNK                   3
[ atoms ]
;   nr       type  resnr residue  atom   cgnr     charge       mass  
     1   opls_800      1    UNK   C00      1    -0.2384    12.0110 
     2   opls_801      1    UNK   C01      1    -0.1813    12.0110 
     3   opls_802      1    UNK   C02      1     -0.178    12.0110 
     4   opls_803      1    UNK   C03      1     -0.179    12.0110 
     5   opls_804      1    UNK   C04      1     -0.101    12.0110 
     6   opls_805      1    UNK   C05      1    -0.2372    12.0110 
     7   opls_806      1    UNK   C06      1    -0.0203    12.0110 
     8   opls_807      1    UNK   C07      1    -0.2427    12.0110 
     9   opls_808      1    UNK   C08      1    -0.2374    12.0110 
    10   opls_809      1    UNK   C09      1    -0.1149    12.0110 
    11   opls_810      1    UNK   C0A      1    -0.1393    12.0110 
    12   opls_811      1    UNK   C0B      1    -0.5056    12.0110 
    13   opls_812      1    UNK   S0C      1     1.3017    32.0600 
    14   opls_813      1    UNK   O0D      1    -0.5748    15.9990 
    15   opls_814      1    UNK   O0E      1    -0.5748    15.9990 
    16   opls_815      1    UNK   C0F      1    -0.4123    12.0110 
    17   opls_816      1    UNK   C0G      1    -0.2155    12.0110 
    18   opls_817      1    UNK   C0H      1    -0.0801    12.0110 
    19   opls_818      1    UNK   C0I      1    -0.2515    12.0110 
    20   opls_819      1    UNK   H0J      1     0.0821     1.0080 
    21   opls_820      1    UNK   H0K      1     0.0821     1.0080 
    22   opls_821      1    UNK   H0M      1     0.0821     1.0080 
    23   opls_822      1    UNK   H0N      1     0.0878     1.0080 
    24   opls_823      1    UNK   H0O      1     0.0878     1.0080 
    25   opls_824      1    UNK   H0P      1     0.0915     1.0080 
    26   opls_825      1    UNK   H0Q      1     0.0915     1.0080 
    27   opls_826      1    UNK   H0R      1     0.0884     1.0080 
    28   opls_827      1    UNK   H0S      1     0.0884     1.0080 
    29   opls_828      1    UNK   H0T      1     0.0934     1.0080 
    30   opls_829      1    UNK   H0U      1      0.084     1.0080 
    31   opls_830      1    UNK   H0V      1      0.084     1.0080 
    32   opls_831      1    UNK   H0W      1      0.084     1.0080 
    33   opls_832      1    UNK   H0X      2     0.0851     1.0080 
    34   opls_833      1    UNK   H0Y      2     0.0851     1.0080 
    35   opls_834      1    UNK   H0Z      2     0.0851     1.0080 
    36   opls_835      1    UNK   H10      2     0.0848     1.0080 
    37   opls_836      1    UNK   H11      2     0.0848     1.0080 
    38   opls_837      1    UNK   H12      2     0.0848     1.0080 
    39   opls_838      1    UNK   H13      2      0.108     1.0080 
    40   opls_839      1    UNK   H14      2     0.1076     1.0080 
    41   opls_840      1    UNK   H15      2     0.1076     1.0080 
    42   opls_841      1    UNK   H16      2     0.1698     1.0080 
    43   opls_842      1    UNK   H17      2     0.1698     1.0080 
    44   opls_843      1    UNK   H18      2     0.1636     1.0080 
    45   opls_844      1    UNK   H19      2     0.1055     1.0080 
    46   opls_845      1    UNK   H1A      2     0.1055     1.0080 
    47   opls_846      1    UNK   H1B      2     0.1055     1.0080 
    48   opls_847      1    UNK   H1C      2     0.1149     1.0080 
    49   opls_848      1    UNK   H1D      2     0.0959     1.0080 
    50   opls_849      1    UNK   H1E      2     0.0959     1.0080 
    51   opls_850      1    UNK   H1F      2     0.0959     1.0080 
[ bonds ]
    2     1     1      0.1529 224262.400
    3     2     1      0.1529 224262.400
    4     3     1      0.1529 224262.400
    5     4     1      0.1529 224262.400
    6     5     1      0.1529 224262.400
    7     5     1      0.1529 224262.400
    8     7     1      0.1529 224262.400
    9     7     1      0.1529 224262.400
   10     7     1      0.1529 224262.400
   11    10     1      0.1529 224262.400
   12    11     1      0.1529 224262.400
   13    12     1      0.1770 284512.000
   14    13     1      0.1440 585760.000
   15    13     1      0.1440 585760.000
   16    13     1      0.1770 284512.000
   17    16     1      0.1529 224262.400
   18    10     1      0.1529 224262.400
   19    18     1      0.1529 224262.400
   20     1     1      0.1090 284512.000
   21     1     1      0.1090 284512.000
   22     1     1      0.1090 284512.000
   23     2     1      0.1090 284512.000
   24     2     1      0.1090 284512.000
   25     3     1      0.1090 284512.000
   26     3     1      0.1090 284512.000
   27     4     1      0.1090 284512.000
   28     4     1      0.1090 284512.000
   29     5     1      0.1090 284512.000
   30     6     1      0.1090 284512.000
   31     6     1      0.1090 284512.000
   32     6     1      0.1090 284512.000
   33     8     1      0.1090 284512.000
   34     8     1      0.1090 284512.000
   35     8     1      0.1090 284512.000
   36     9     1      0.1090 284512.000
   37     9     1      0.1090 284512.000
   38     9     1      0.1090 284512.000
   39    10     1      0.1090 284512.000
   40    11     1      0.1090 284512.000
   41    11     1      0.1090 284512.000
   42    12     1      0.1090 284512.000
   43    12     1      0.1090 284512.000
   44    16     1      0.1090 284512.000
   45    17     1      0.1090 284512.000
   46    17     1      0.1090 284512.000
   47    17     1      0.1090 284512.000
   48    18     1      0.1090 284512.000
   49    19     1      0.1090 284512.000
   50    19     1      0.1090 284512.000
   51    19     1      0.1090 284512.000
   18    16     1      0.1529 224262.400

[ angles ]
;  ai    aj    ak funct            c0            c1            c2            c3 
    1     2     3     1    112.700    488.273
    2     3     4     1    112.700    488.273
    3     4     5     1    112.700    488.273
    4     5     6     1    112.700    488.273
    4     5     7     1    112.700    488.273
    5     7     8     1    112.700    488.273
    5     7     9     1    112.700    488.273
    5     7    10     1    112.700    488.273
    7    10    11     1    112.700    488.273
   10    11    12     1    112.700    488.273
   11    12    13     1    108.600    418.400
   12    13    14     1    108.900    619.232
   12    13    15     1    108.900    619.232
   12    13    16     1    102.000    518.816
   13    16    17     1    108.600    418.400
    7    10    18     1    112.700    488.273
   10    18    19     1    112.700    488.273
    2     1    20     1    110.700    313.800
    2     1    21     1    110.700    313.800
    2     1    22     1    110.700    313.800
    1     2    23     1    110.700    313.800
    1     2    24     1    110.700    313.800
    2     3    25     1    110.700    313.800
    2     3    26     1    110.700    313.800
    3     4    27     1    110.700    313.800
    3     4    28     1    110.700    313.800
    4     5    29     1    110.700    313.800
    5     6    30     1    110.700    313.800
    5     6    31     1    110.700    313.800
    5     6    32     1    110.700    313.800
    7     8    33     1    110.700    313.800
    7     8    34     1    110.700    313.800
    7     8    35     1    110.700    313.800
    7     9    36     1    110.700    313.800
    7     9    37     1    110.700    313.800
    7     9    38     1    110.700    313.800
    7    10    39     1    110.700    313.800
   10    11    40     1    110.700    313.800
   10    11    41     1    110.700    313.800
   11    12    42     1    110.700    313.800
   11    12    43     1    110.700    313.800
   13    16    44     1    109.500    292.880
   16    17    45     1    110.700    313.800
   16    17    46     1    110.700    313.800
   16    17    47     1    110.700    313.800
   10    18    48     1    110.700    313.800
   18    19    49     1    110.700    313.800
   18    19    50     1    110.700    313.800
   18    19    51     1    110.700    313.800
   45    17    47     1    107.800    276.144
   14    13    15     1    119.000    870.272
   16    18    19     1    112.700    488.273
   20     1    21     1    107.800    276.144
    5     4    27     1    110.700    313.800
   45    17    46     1    107.800    276.144
    9     7    10     1    112.700    488.273
   18    16    44     1    110.700    313.800
   15    13    16     1    108.900    619.232
    8     7    10     1    112.700    488.273
    5     4    28     1    110.700    313.800
    8     7     9     1    112.700    488.273
   36     9    38     1    107.800    276.144
   10    18    16     1    112.700    488.273
    6     5     7     1    112.700    488.273
   19    18    48     1    110.700    313.800
   17    16    44     1    110.700    313.800
   20     1    22     1    107.800    276.144
   31     6    32     1    107.800    276.144
   13    12    42     1    109.500    292.880
   42    12    43     1    107.800    276.144
   27     4    28     1    107.800    276.144
   49    19    50     1    107.800    276.144
   17    16    18     1    112.700    488.273
   33     8    34     1    107.800    276.144
   11    10    18     1    112.700    488.273
   21     1    22     1    107.800    276.144
   50    19    51     1    107.800    276.144
   16    18    48     1    110.700    313.800
   18    10    39     1    110.700    313.800
   46    17    47     1    107.800    276.144
   14    13    16     1    108.900    619.232
   13    12    43     1    109.500    292.880
    4     3    26     1    110.700    313.800
   36     9    37     1    107.800    276.144
   34     8    35     1    107.800    276.144
   25     3    26     1    107.800    276.144
   13    16    18     1    108.600    418.400
   30     6    31     1    107.800    276.144
    7     5    29     1    110.700    313.800
   11    10    39     1    110.700    313.800
    4     3    25     1    110.700    313.800
    3     2    23     1    110.700    313.800
   12    11    40     1    110.700    313.800
   37     9    38     1    107.800    276.144
   49    19    51     1    107.800    276.144
   23     2    24     1    107.800    276.144
   40    11    41     1    107.800    276.144
    3     2    24     1    110.700    313.800
    6     5    29     1    110.700    313.800
   30     6    32     1    107.800    276.144
   33     8    35     1    107.800    276.144
   12    11    41     1    110.700    313.800

[ dihedrals ]
; IMPROPER DIHEDRAL ANGLES 
;  ai    aj    ak    al funct            c0            c1            c2            c3            c4            c5

[ dihedrals ]
; PROPER DIHEDRAL ANGLES
;  ai    aj    ak    al funct            c0            c1            c2            c3            c4            c5
    4    3    2    1        3       2.301  -1.464   0.837  -1.674  -0.000   0.000
   16   18   10   11        3       2.301  -1.464   0.837  -1.674  -0.000   0.000
    9    7    5    4        3       2.301  -1.464   0.837  -1.674  -0.000   0.000
   17   16   18   10        3       2.301  -1.464   0.837  -1.674  -0.000   0.000
    8    7    5    6        3       2.301  -1.464   0.837  -1.674  -0.000   0.000
    7    5    4    3        3       2.301  -1.464   0.837  -1.674  -0.000   0.000
   10    7    5    4        3       2.301  -1.464   0.837  -1.674  -0.000   0.000
   16   18   10    7        3       2.301  -1.464   0.837  -1.674  -0.000   0.000
   18   10    7    5        3       2.301  -1.464   0.837  -1.674  -0.000   0.000
   11   10    7    9        3       2.301  -1.464   0.837  -1.674  -0.000   0.000
   19   18   10    7        3       2.301  -1.464   0.837  -1.674  -0.000   0.000
   19   18   10   11        3       2.301  -1.464   0.837  -1.674  -0.000   0.000
   10    7    5    6        3       2.301  -1.464   0.837  -1.674  -0.000   0.000
   11   10    7    8        3       2.301  -1.464   0.837  -1.674  -0.000   0.000
   18   10    7    8        3       2.301  -1.464   0.837  -1.674  -0.000   0.000
   18   10   11   12        3       2.301  -1.464   0.837  -1.674  -0.000   0.000
   18   10    7    9        3       2.301  -1.464   0.837  -1.674  -0.000   0.000
   19   18   16   17        3       2.301  -1.464   0.837  -1.674  -0.000   0.000
   12   11   10    7        3       2.301  -1.464   0.837  -1.674  -0.000   0.000
    5    4    3    2        3       2.301  -1.464   0.837  -1.674  -0.000   0.000
    6    5    4    3        3       2.301  -1.464   0.837  -1.674  -0.000   0.000
   11   10    7    5        3       2.301  -1.464   0.837  -1.674  -0.000   0.000
    8    7    5    4        3       2.301  -1.464   0.837  -1.674  -0.000   0.000
    9    7    5    6        3       2.301  -1.464   0.837  -1.674  -0.000   0.000
   19   18   16   13        3       2.784   0.278   0.828  -3.891  -0.000   0.000
   18   16   13   12        3       0.000   0.000   0.000  -0.000  -0.000   0.000
   17   16   13   12        3       0.000   0.000   0.000  -0.000  -0.000   0.000
   18   16   13   15        3       0.000   0.000   0.000  -0.000  -0.000   0.000
   17   16   13   15        3       0.000   0.000   0.000  -0.000  -0.000   0.000
   17   16   13   14        3       0.000   0.000   0.000  -0.000  -0.000   0.000
   18   16   13   14        3       0.000   0.000   0.000  -0.000  -0.000   0.000
   16   13   12   11        3       0.000   0.000   0.000  -0.000  -0.000   0.000
   37    9    7    8        3       0.628   1.883   0.000  -2.510  -0.000   0.000
   46   17   16   18        3       0.628   1.883   0.000  -2.510  -0.000   0.000
   32    6    5    7        3       0.628   1.883   0.000  -2.510  -0.000   0.000
   42   12   11   10        3       0.628   1.883   0.000  -2.510  -0.000   0.000
   22    1    2    3        3       0.628   1.883   0.000  -2.510  -0.000   0.000
   37    9    7   10        3       0.628   1.883   0.000  -2.510  -0.000   0.000
   33    8    7   10        3       0.628   1.883   0.000  -2.510  -0.000   0.000
   34    8    7    9        3       0.628   1.883   0.000  -2.510  -0.000   0.000
   21    1    2    3        3       0.628   1.883   0.000  -2.510  -0.000   0.000
   44   16   18   19        3       0.628   1.883   0.000  -2.510  -0.000   0.000
   48   18   10    7        3       0.628   1.883   0.000  -2.510  -0.000   0.000
   32    6    5    4        3       0.628   1.883   0.000  -2.510  -0.000   0.000
   48   18   16   17        3       0.628   1.883   0.000  -2.510  -0.000   0.000
   51   19   18   10        3       0.628   1.883   0.000  -2.510  -0.000   0.000
   28    4    5    6        3       0.628   1.883   0.000  -2.510  -0.000   0.000
   27    4    5    7        3       0.628   1.883   0.000  -2.510  -0.000   0.000
   24    2    3    4        3       0.628   1.883   0.000  -2.510  -0.000   0.000
   37    9    7    5        3       0.628   1.883   0.000  -2.510  -0.000   0.000
   40   11   10   18        3       0.628   1.883   0.000  -2.510  -0.000   0.000
   27    4    3    2        3       0.628   1.883   0.000  -2.510  -0.000   0.000
   34    8    7    5        3       0.628   1.883   0.000  -2.510  -0.000   0.000
   29    5    7    9        3       0.628   1.883   0.000  -2.510  -0.000   0.000
   43   12   11   10        3       0.628   1.883   0.000  -2.510  -0.000   0.000
   49   19   18   16        3       0.628   1.883   0.000  -2.510  -0.000   0.000
   41   11   10    7        3       0.628   1.883   0.000  -2.510  -0.000   0.000
   27    4    5    6        3       0.628   1.883   0.000  -2.510  -0.000   0.000
   38    9    7    8        3       0.628   1.883   0.000  -2.510  -0.000   0.000
   36    9    7   10        3       0.628   1.883   0.000  -2.510  -0.000   0.000
   35    8    7   10        3       0.628   1.883   0.000  -2.510  -0.000   0.000
   28    4    5    7        3       0.628   1.883   0.000  -2.510  -0.000   0.000
   26    3    4    5        3       0.628   1.883   0.000  -2.510  -0.000   0.000
   44   16   18   10        3       0.628   1.883   0.000  -2.510  -0.000   0.000
   41   11   10   18        3       0.628   1.883   0.000  -2.510  -0.000   0.000
   38    9    7   10        3       0.628   1.883   0.000  -2.510  -0.000   0.000
   33    8    7    9        3       0.628   1.883   0.000  -2.510  -0.000   0.000
   39   10   11   12        3       0.628   1.883   0.000  -2.510  -0.000   0.000
   48   18   10   11        3       0.628   1.883   0.000  -2.510  -0.000   0.000
   29    5    7   10        3       0.628   1.883   0.000  -2.510  -0.000   0.000
   50   19   18   10        3       0.628   1.883   0.000  -2.510  -0.000   0.000
   29    5    4    3        3       0.628   1.883   0.000  -2.510  -0.000   0.000
   36    9    7    5        3       0.628   1.883   0.000  -2.510  -0.000   0.000
   25    3    2    1        3       0.628   1.883   0.000  -2.510  -0.000   0.000
   33    8    7    5        3       0.628   1.883   0.000  -2.510  -0.000   0.000
   51   19   18   16        3       0.628   1.883   0.000  -2.510  -0.000   0.000
   30    6    5    4        3       0.628   1.883   0.000  -2.510  -0.000   0.000
   31    6    5    4        3       0.628   1.883   0.000  -2.510  -0.000   0.000
   20    1    2    3        3       0.628   1.883   0.000  -2.510  -0.000   0.000
   39   10    7    9        3       0.628   1.883   0.000  -2.510  -0.000   0.000
   49   19   18   10        3       0.628   1.883   0.000  -2.510  -0.000   0.000
   35    8    7    5        3       0.628   1.883   0.000  -2.510  -0.000   0.000
   39   10    7    8        3       0.628   1.883   0.000  -2.510  -0.000   0.000
   39   10   18   19        3       0.628   1.883   0.000  -2.510  -0.000   0.000
   39   10   18   16        3       0.628   1.883   0.000  -2.510  -0.000   0.000
   23    2    3    4        3       0.628   1.883   0.000  -2.510  -0.000   0.000
   26    3    2    1        3       0.628   1.883   0.000  -2.510  -0.000   0.000
   50   19   18   16        3       0.628   1.883   0.000  -2.510  -0.000   0.000
   30    6    5    7        3       0.628   1.883   0.000  -2.510  -0.000   0.000
   45   17   16   18        3       0.628   1.883   0.000  -2.510  -0.000   0.000
   47   17   16   18        3       0.628   1.883   0.000  -2.510  -0.000   0.000
   31    6    5    7        3       0.628   1.883   0.000  -2.510  -0.000   0.000
   38    9    7    5        3       0.628   1.883   0.000  -2.510  -0.000   0.000
   36    9    7    8        3       0.628   1.883   0.000  -2.510  -0.000   0.000
   40   11   10    7        3       0.628   1.883   0.000  -2.510  -0.000   0.000
   29    5    7    8        3       0.628   1.883   0.000  -2.510  -0.000   0.000
   34    8    7   10        3       0.628   1.883   0.000  -2.510  -0.000   0.000
   35    8    7    9        3       0.628   1.883   0.000  -2.510  -0.000   0.000
   28    4    3    2        3       0.628   1.883   0.000  -2.510  -0.000   0.000
   25    3    4    5        3       0.628   1.883   0.000  -2.510  -0.000   0.000
   39   10    7    5        3       0.628   1.883   0.000  -2.510  -0.000   0.000
   48   18   16   44        3       0.628   1.883   0.000  -2.510  -0.000   0.000
   32    6    5   29        3       0.628   1.883   0.000  -2.510  -0.000   0.000
   29    5    4   27        3       0.628   1.883   0.000  -2.510  -0.000   0.000
   41   11   10   39        3       0.628   1.883   0.000  -2.510  -0.000   0.000
   23    2    1   22        3       0.628   1.883   0.000  -2.510  -0.000   0.000
   49   19   18   48        3       0.628   1.883   0.000  -2.510  -0.000   0.000
   26    3    2   23        3       0.628   1.883   0.000  -2.510  -0.000   0.000
   46   17   16   44        3       0.628   1.883   0.000  -2.510  -0.000   0.000
   29    5    4   28        3       0.628   1.883   0.000  -2.510  -0.000   0.000
   26    3    2   24        3       0.628   1.883   0.000  -2.510  -0.000   0.000
   28    4    3   26        3       0.628   1.883   0.000  -2.510  -0.000   0.000
   23    2    1   20        3       0.628   1.883   0.000  -2.510  -0.000   0.000
   24    2    1   21        3       0.628   1.883   0.000  -2.510  -0.000   0.000
   25    3    2   24        3       0.628   1.883   0.000  -2.510  -0.000   0.000
   51   19   18   48        3       0.628   1.883   0.000  -2.510  -0.000   0.000
   30    6    5   29        3       0.628   1.883   0.000  -2.510  -0.000   0.000
   47   17   16   44        3       0.628   1.883   0.000  -2.510  -0.000   0.000
   27    4    3   25        3       0.628   1.883   0.000  -2.510  -0.000   0.000
   27    4    3   26        3       0.628   1.883   0.000  -2.510  -0.000   0.000
   43   12   11   40        3       0.628   1.883   0.000  -2.510  -0.000   0.000
   24    2    1   20        3       0.628   1.883   0.000  -2.510  -0.000   0.000
   23    2    1   21        3       0.628   1.883   0.000  -2.510  -0.000   0.000
   42   12   11   41        3       0.628   1.883   0.000  -2.510  -0.000   0.000
   31    6    5   29        3       0.628   1.883   0.000  -2.510  -0.000   0.000
   28    4    3   25        3       0.628   1.883   0.000  -2.510  -0.000   0.000
   42   12   11   40        3       0.628   1.883   0.000  -2.510  -0.000   0.000
   43   12   11   41        3       0.628   1.883   0.000  -2.510  -0.000   0.000
   24    2    1   22        3       0.628   1.883   0.000  -2.510  -0.000   0.000
   40   11   10   39        3       0.628   1.883   0.000  -2.510  -0.000   0.000
   25    3    2   23        3       0.628   1.883   0.000  -2.510  -0.000   0.000
   50   19   18   48        3       0.628   1.883   0.000  -2.510  -0.000   0.000
   48   18   10   39        3       0.628   1.883   0.000  -2.510  -0.000   0.000
   45   17   16   44        3       0.628   1.883   0.000  -2.510  -0.000   0.000
   47   17   16   13        3       0.946   2.837   0.000  -3.782  -0.000   0.000
   40   11   12   13        3       0.946   2.837   0.000  -3.782  -0.000   0.000
   41   11   12   13        3       0.946   2.837   0.000  -3.782  -0.000   0.000
   48   18   16   13        3       0.946   2.837   0.000  -3.782  -0.000   0.000
   45   17   16   13        3       0.946   2.837   0.000  -3.782  -0.000   0.000
   46   17   16   13        3       0.946   2.837   0.000  -3.782  -0.000   0.000
   42   12   13   16        3       0.732   2.197   0.000  -2.929  -0.000   0.000
   43   12   13   16        3       0.732   2.197   0.000  -2.929  -0.000   0.000
   44   16   13   12        3       0.732   2.197   0.000  -2.929  -0.000   0.000
   44   16   13   14        3       0.732   2.197   0.000  -2.929  -0.000   0.000
   43   12   13   14        3       0.732   2.197   0.000  -2.929  -0.000   0.000
   42   12   13   15        3       0.732   2.197   0.000  -2.929  -0.000   0.000
   44   16   13   15        3       0.732   2.197   0.000  -2.929  -0.000   0.000
   42   12   13   14        3       0.732   2.197   0.000  -2.929  -0.000   0.000
   43   12   13   15        3       0.732   2.197   0.000  -2.929  -0.000   0.000
   14   13   12   11        3       0.000   0.000   0.000  -0.000  -0.000   0.000
   15   13   12   11        3       0.000   0.000   0.000  -0.000  -0.000   0.000
   13   16   18   10        3       2.784   0.278   0.828  -3.891  -0.000   0.000
   13   12   11   10        3       2.784   0.278   0.828  -3.891  -0.000   0.000

[ pairs ]
     1     4    1
     2     5    1
     3     6    1
     3     7    1
     4     8    1
     4     9    1
     6     8    1
     4    10    1
     6     9    1
     6    10    1
     5    11    1
     8    11    1
     7    12    1
     9    11    1
    10    13    1
     7    16    1
     5    18    1
     3    20    1
     3    21    1
    11    14    1
     3    22    1
    11    15    1
     8    18    1
     7    19    1
     1    25    1
    11    16    1
    10    17    1
     9    18    1
     4    23    1
     1    26    1
     4    24    1
    12    17    1
     2    27    1
    12    18    1
    11    19    1
     5    25    1
     2    28    1
    14    17    1
     5    26    1
    15    17    1
    14    18    1
    13    19    1
     3    29    1
    15    18    1
     6    27    1
     7    27    1
     6    28    1
     4    30    1
     7    28    1
     4    31    1
    17    19    1
     4    32    1
     8    29    1
     7    30    1
     9    29    1
     7    31    1
     5    33    1
    10    29    1
     7    32    1
     5    34    1
     5    35    1
     5    36    1
     9    33    1
     5    37    1
    20    23    1
    10    33    1
     9    34    1
     5    38    1
    21    23    1
    20    24    1
    10    34    1
     9    35    1
     8    36    1
     5    39    1
    22    23    1
    21    24    1
    10    35    1
     8    37    1
    22    24    1
    10    36    1
     8    38    1
    10    37    1
     8    39    1
     7    40    1
    23    25    1
    10    38    1
     9    39    1
     7    41    1
    24    25    1
    23    26    1
    24    26    1
    12    39    1
    25    27    1
    10    42    1
    26    27    1
    25    28    1
    13    40    1
    10    43    1
    26    28    1
    13    41    1
    10    44    1
    16    39    1
     7    48    1
    27    29    1
    14    42    1
    12    44    1
    28    29    1
    15    42    1
    14    43    1
    19    39    1
    18    40    1
    16    42    1
    15    43    1
    14    44    1
    13    45    1
    29    30    1
    18    41    1
    16    43    1
    15    44    1
    13    46    1
    11    48    1
    10    49    1
    29    31    1
    13    47    1
    10    50    1
    29    32    1
    13    48    1
    10    51    1
    19    44    1
    18    45    1
    18    46    1
    18    47    1
    17    48    1
    16    49    1
    16    50    1
    16    51    1
    39    40    1
    39    41    1
    40    42    1
    41    42    1
    40    43    1
    41    43    1
    39    48    1
    44    45    1
    44    46    1
    44    47    1
    44    48    1
    48    49    1
    48    50    1
    48    51    1

