LIGPARGEN GENERATED GRO FILE
   51
    1UNK    C00    1   0.100   0.100   0.000
    1UNK    C01    2  -0.052   0.100   0.000
    1UNK    C02    3  -0.109   0.100   0.142
    1UNK    C03    4  -0.262   0.100   0.137
    1UNK    C04    5  -0.335   0.100   0.274
    1UNK    C05    6  -0.292   0.224   0.355
    1UNK    C06    7  -0.495   0.084   0.262
    1UNK    C07    8  -0.554   0.097   0.404
    1UNK    C08    9  -0.552   0.204   0.182
    1UNK    C09   10  -0.533  -0.055   0.188
    1UNK    C0A   11  -0.481  -0.183   0.258
    1UNK    C0B   12  -0.559  -0.229   0.380
    1UNK    S0C   13  -0.735  -0.240   0.358
    1UNK    O0D   14  -0.795  -0.214   0.488
    1UNK    O0E   15  -0.762  -0.365   0.290
    1UNK    C0F   16  -0.781  -0.104   0.250
    1UNK    C0G   17  -0.924  -0.123   0.200
    1UNK    C0H   18  -0.680  -0.078   0.138
    1UNK    C0I   19  -0.684  -0.188   0.029
    1UNK    H0J   20   0.138   0.100  -0.103
    1UNK    H0K   21   0.139   0.011   0.050
    1UNK    H0M   22   0.139   0.189   0.051
    1UNK    H0N   23  -0.088   0.012  -0.055
    1UNK    H0O   24  -0.087   0.189  -0.054
    1UNK    H0P   25  -0.072   0.189   0.194
    1UNK    H0Q   26  -0.074   0.012   0.197
    1UNK    H0R   27  -0.291   0.012   0.079
    1UNK    H0S   28  -0.294   0.188   0.079
    1UNK    H0T   29  -0.297   0.014   0.331
    1UNK    H0U   30  -0.321   0.317   0.305
    1UNK    H0V   31  -0.183   0.227   0.370
    1UNK    H0W   32  -0.333   0.224   0.456
    1UNK    H0X   33  -0.538   0.198   0.445
    1UNK    H0Y   34  -0.507   0.028   0.475
    1UNK    H0Z   35  -0.662   0.085   0.408
    1UNK    H10   36  -0.541   0.298   0.238
    1UNK    H11   37  -0.659   0.194   0.164
    1UNK    H12   38  -0.503   0.217   0.085
    1UNK    H13   39  -0.477  -0.050   0.094
    1UNK    H14   40  -0.375  -0.173   0.285
    1UNK    H15   41  -0.481  -0.265   0.185
    1UNK    H16   42  -0.539  -0.167   0.467
    1UNK    H17   43  -0.525  -0.330   0.408
    1UNK    H18   44  -0.786  -0.017   0.314
    1UNK    H19   45  -0.939  -0.219   0.149
    1UNK    H1A   46  -0.952  -0.043   0.132
    1UNK    H1B   47  -0.994  -0.121   0.284
    1UNK    H1C   48  -0.712   0.013   0.086
    1UNK    H1D   49  -0.663  -0.288   0.068
    1UNK    H1E   50  -0.611  -0.167  -0.050
    1UNK    H1F   51  -0.783  -0.191  -0.019
   1.00000   1.00000   1.00000

