LIGPARGEN GENERATED GRO FILE
   33
    1UNK    C00    1   0.100   0.100   0.000
    1UNK    C01    2  -0.053   0.100   0.000
    1UNK    C02    3  -0.100   0.100   0.145
    1UNK    N03    4  -0.139   0.100   0.265
    1UNK    C04    5  -0.117   0.216  -0.080
    1UNK    C05    6  -0.080   0.355  -0.025
    1UNK    C06    7  -0.081   0.210  -0.231
    1UNK    C07    8  -0.126   0.079  -0.296
    1UNK    C08    9  -0.280   0.055  -0.294
    1UNK    S09   10  -0.267  -0.034  -0.446
    1UNK    O0A   11  -0.367   0.007  -0.542
    1UNK    O0B   12  -0.230  -0.172  -0.424
    1UNK    C0C   13  -0.123   0.072  -0.453
    1UNK    C0D   14  -0.001   0.008  -0.518
    1UNK    C0E   15   0.120   0.097  -0.522
    1UNK    O0F   16   0.122   0.211  -0.478
    1UNK    H0G   17   0.138   0.016   0.059
    1UNK    H0H   18   0.141   0.191   0.045
    1UNK    H0I   19   0.141   0.090  -0.101
    1UNK    H0J   20  -0.087   0.004  -0.041
    1UNK    H0K   21  -0.226   0.207  -0.071
    1UNK    H0M   22   0.027   0.374  -0.032
    1UNK    H0N   23  -0.111   0.365   0.079
    1UNK    H0O   24  -0.132   0.433  -0.082
    1UNK    H0P   25   0.027   0.223  -0.244
    1UNK    H0Q   26  -0.129   0.295  -0.282
    1UNK    H0R   27  -0.070  -0.005  -0.253
    1UNK    H0S   28  -0.341   0.145  -0.304
    1UNK    H0T   29  -0.316  -0.006  -0.211
    1UNK    H0U   30  -0.150   0.167  -0.501
    1UNK    H0V   31  -0.024  -0.019  -0.622
    1UNK    H0W   32   0.028  -0.083  -0.465
    1UNK    H0X   33   0.210   0.053  -0.569
   1.00000   1.00000   1.00000

