
;
; GENERATED BY LigParGen Server
; Jorgensen Lab @ Yale University 
;
[ atomtypes ]
  opls_818  H818     1.0080     0.000    A    2.50000E-01   1.25520E-01
  opls_802  C802    12.0110     0.000    A    3.30000E-01   2.76144E-01
  opls_824  H824     1.0080     0.000    A    2.50000E-01   1.25520E-01
  opls_805  C805    12.0110     0.000    A    3.50000E-01   2.76144E-01
  opls_828  H828     1.0080     0.000    A    2.50000E-01   1.25520E-01
  opls_814  C814    12.0110     0.000    A    3.55000E-01   2.92880E-01
  opls_807  C807    12.0110     0.000    A    3.45000E-01   3.47272E-01
  opls_806  C806    12.0110     0.000    A    3.50000E-01   2.76144E-01
  opls_827  H827     1.0080     0.000    A    2.50000E-01   1.25520E-01
  opls_801  C801    12.0110     0.000    A    3.50000E-01   2.76144E-01
  opls_822  H822     1.0080     0.000    A    2.50000E-01   1.25520E-01
  opls_811  O811    15.9990     0.000    A    2.96000E-01   7.11280E-01
  opls_808  C808    12.0110     0.000    A    3.45000E-01   3.47272E-01
  opls_825  H825     1.0080     0.000    A    2.50000E-01   1.25520E-01
  opls_830  H830     1.0080     0.000    A    2.50000E-01   1.25520E-01
  opls_821  H821     1.0080     0.000    A    2.50000E-01   1.25520E-01
  opls_820  H820     1.0080     0.000    A    2.50000E-01   1.25520E-01
  opls_809  S809    32.0600     0.000    A    3.55000E-01   1.04600E+00
  opls_831  H831     1.0080     0.000    A    2.50000E-01   1.25520E-01
  opls_832  H832     1.0080     0.000    A    2.50000E-01   1.25520E-01
  opls_816  H816     1.0080     0.000    A    2.50000E-01   1.25520E-01
  opls_800  C800    12.0110     0.000    A    3.50000E-01   2.76144E-01
  opls_823  H823     1.0080     0.000    A    2.50000E-01   1.25520E-01
  opls_813  C813    12.0110     0.000    A    3.50000E-01   2.76144E-01
  opls_826  H826     1.0080     0.000    A    2.50000E-01   1.25520E-01
  opls_819  H819     1.0080     0.000    A    2.50000E-01   1.25520E-01
  opls_804  C804    12.0110     0.000    A    3.50000E-01   2.76144E-01
  opls_810  O810    15.9990     0.000    A    2.96000E-01   7.11280E-01
  opls_815  O815    15.9990     0.000    A    2.96000E-01   8.78640E-01
  opls_817  H817     1.0080     0.000    A    2.50000E-01   1.25520E-01
  opls_812  C812    12.0110     0.000    A    3.45000E-01   3.47272E-01
  opls_829  H829     1.0080     0.000    A    2.50000E-01   1.25520E-01
  opls_803  N803    14.0070     0.000    A    3.20000E-01   7.11280E-01
[ moleculetype ]
; Name               nrexcl
UNK                   3
[ atoms ]
;   nr       type  resnr residue  atom   cgnr     charge       mass  
     1   opls_800      1    UNK   C00      1    -0.2412    12.0110 
     2   opls_801      1    UNK   C01      1     0.0317    12.0110 
     3   opls_802      1    UNK   C02      1     0.1304    12.0110 
     4   opls_803      1    UNK   N03      1    -0.3939    14.0070 
     5   opls_804      1    UNK   C04      1    -0.1072    12.0110 
     6   opls_805      1    UNK   C05      1    -0.2399    12.0110 
     7   opls_806      1    UNK   C06      1    -0.1471    12.0110 
     8   opls_807      1    UNK   C07      1    -0.0681    12.0110 
     9   opls_808      1    UNK   C08      1    -0.5287    12.0110 
    10   opls_809      1    UNK   S09      1     1.3062    32.0600 
    11   opls_810      1    UNK   O0A      1    -0.5493    15.9990 
    12   opls_811      1    UNK   O0B      1    -0.5493    15.9990 
    13   opls_812      1    UNK   C0C      1    -0.4288    12.0110 
    14   opls_813      1    UNK   C0D      1    -0.2233    12.0110 
    15   opls_814      1    UNK   C0E      1     0.3207    12.0110 
    16   opls_815      1    UNK   O0F      1    -0.4359    15.9990 
    17   opls_816      1    UNK   H0G      1     0.0986     1.0080 
    18   opls_817      1    UNK   H0H      1     0.0986     1.0080 
    19   opls_818      1    UNK   H0I      1     0.0986     1.0080 
    20   opls_819      1    UNK   H0J      1      0.126     1.0080 
    21   opls_820      1    UNK   H0K      1     0.1088     1.0080 
    22   opls_821      1    UNK   H0M      1     0.0923     1.0080 
    23   opls_822      1    UNK   H0N      1     0.0923     1.0080 
    24   opls_823      1    UNK   H0O      1     0.0923     1.0080 
    25   opls_824      1    UNK   H0P      1     0.1179     1.0080 
    26   opls_825      1    UNK   H0Q      1     0.1179     1.0080 
    27   opls_826      1    UNK   H0R      1     0.1329     1.0080 
    28   opls_827      1    UNK   H0S      1     0.1805     1.0080 
    29   opls_828      1    UNK   H0T      1     0.1805     1.0080 
    30   opls_829      1    UNK   H0U      1     0.1943     1.0080 
    31   opls_830      1    UNK   H0V      1     0.1377     1.0080 
    32   opls_831      1    UNK   H0W      1     0.1377     1.0080 
    33   opls_832      1    UNK   H0X      2     0.1171     1.0080 
[ bonds ]
    2     1     1      0.1529 224262.400
    3     2     1      0.1470 326352.000
    4     3     1      0.1157 543920.000
    5     2     1      0.1529 224262.400
    6     5     1      0.1529 224262.400
    7     5     1      0.1529 224262.400
    8     7     1      0.1510 234304.000
    9     8     1      0.1520 217568.000
   10     9     1      0.1810 185769.600
   11    10     1      0.1440 585760.000
   12    10     1      0.1440 585760.000
   13     8     1      0.1520 217568.000
   14    13     1      0.1510 234304.000
   15    14     1      0.1522 265265.600
   16    15     1      0.1229 476976.000
   17     1     1      0.1090 284512.000
   18     1     1      0.1090 284512.000
   19     1     1      0.1090 284512.000
   20     2     1      0.1090 284512.000
   21     5     1      0.1090 284512.000
   22     6     1      0.1090 284512.000
   23     6     1      0.1090 284512.000
   24     6     1      0.1090 284512.000
   25     7     1      0.1090 284512.000
   26     7     1      0.1090 284512.000
   27     8     1      0.1088 284512.000
   28     9     1      0.1088 284512.000
   29     9     1      0.1088 284512.000
   30    13     1      0.1088 284512.000
   31    14     1      0.1090 284512.000
   32    14     1      0.1090 284512.000
   33    15     1      0.1090 284512.000
   13    10     1      0.1770 284512.000

[ angles ]
;  ai    aj    ak funct            c0            c1            c2            c3 
    1     2     3     1    112.700    488.273
    2     3     4     1    180.000   1255.200
    1     2     5     1    112.700    488.273
    2     5     6     1    112.700    488.273
    2     5     7     1    112.700    488.273
    5     7     8     1    112.700    488.273
    7     8     9     1    117.200    313.800
    8     9    10     1    128.000    460.240
    9    10    11     1    108.900    619.232
    9    10    12     1    108.900    619.232
    7     8    13     1    117.200    313.800
    8    13    14     1    117.200    313.800
   13    14    15     1    111.100    527.184
   14    15    16     1    120.400    669.440
    2     1    17     1    110.700    313.800
    2     1    18     1    110.700    313.800
    2     1    19     1    110.700    313.800
    1     2    20     1    110.700    313.800
    2     5    21     1    110.700    313.800
    5     6    22     1    110.700    313.800
    5     6    23     1    110.700    313.800
    5     6    24     1    110.700    313.800
    5     7    25     1    110.700    313.800
    5     7    26     1    110.700    313.800
    7     8    27     1    114.300    292.880
    8     9    28     1    117.200    313.800
    8     9    29     1    117.200    313.800
    8    13    30     1    117.200    313.800
   13    14    31     1    110.700    313.800
   13    14    32     1    110.700    313.800
   14    15    33     1    115.000    292.880
    3     2    20     1    108.500    292.880
    8    13    10     1    128.000    460.240
    5     2    20     1    110.700    313.800
   10     9    28     1    108.000    313.800
   11    10    12     1    119.000    870.272
   16    15    33     1    123.000    292.880
   10     9    29     1    108.000    313.800
   14    13    30     1    114.300    292.880
   31    14    32     1    107.800    276.144
   10    13    14     1    108.600    418.400
   12    10    13     1    108.900    619.232
    8     7    26     1    110.700    313.800
    9     8    13     1     83.000    251.040
    9    10    13     1    102.000    518.816
   22     6    23     1    107.800    276.144
   10    13    30     1    108.000    313.800
   18     1    19     1    107.800    276.144
    7     5    21     1    110.700    313.800
   17     1    19     1    107.800    276.144
    8     7    25     1    110.700    313.800
    6     5     7     1    112.700    488.273
   22     6    24     1    107.800    276.144
   25     7    26     1    107.800    276.144
    3     2     5     1    112.700    488.273
   15    14    32     1    109.500    292.880
   28     9    29     1    114.300    292.880
   23     6    24     1    107.800    276.144
    6     5    21     1    110.700    313.800
   17     1    18     1    107.800    276.144
   11    10    13     1    108.900    619.232
   13     8    27     1    117.200    313.800
   15    14    31     1    109.500    292.880
    9     8    27     1    117.200    313.800

[ dihedrals ]
; IMPROPER DIHEDRAL ANGLES 
;  ai    aj    ak    al funct            c0            c1            c2            c3            c4            c5
    33    15    14    16    4        180.000     43.932     2  

[ dihedrals ]
; PROPER DIHEDRAL ANGLES
;  ai    aj    ak    al funct            c0            c1            c2            c3            c4            c5
   15   14   13    8        3      -4.960   6.286   1.310  -2.636  -0.000   0.000
   15   14   13   10        3      -16.259   9.088   7.171  -0.000  -0.000   0.000
    6    5    2    1        3       2.301  -1.464   0.837  -1.674  -0.000   0.000
    7    5    2    1        3       2.301  -1.464   0.837  -1.674  -0.000   0.000
    7    5    2    3        3      -2.720   0.000   2.720  -0.000  -0.000   0.000
    6    5    2    3        3      -2.720   0.000   2.720  -0.000  -0.000   0.000
    5    2    3    4        3       0.000   0.000   0.000  -0.000  -0.000   0.000
   14   13    8    7        3       0.000   0.000   0.000  -0.000  -0.000   0.000
   14   13    8    9        3       0.000   0.000   0.000  -0.000  -0.000   0.000
   14   13   10    9        3       0.000   0.000   0.000  -0.000  -0.000   0.000
   14   13   10   12        3       0.000   0.000   0.000  -0.000  -0.000   0.000
   14   13   10   11        3       0.000   0.000   0.000  -0.000  -0.000   0.000
    8    7    5    6        3       2.301  -1.464   0.837  -1.674  -0.000   0.000
    8    7    5    2        3       2.301  -1.464   0.837  -1.674  -0.000   0.000
   13    8    7    5        3       0.000   0.000   0.000  -0.000  -0.000   0.000
    9    8    7    5        3       0.000   0.000   0.000  -0.000  -0.000   0.000
   33   15   14   13        3       0.000   0.000   0.000  -0.000  -0.000   0.000
   33   15   14   32        3       0.753   2.259   0.000  -3.012  -0.000   0.000
   33   15   14   31        3       0.753   2.259   0.000  -3.012  -0.000   0.000
   32   14   15   16        3       0.000   0.000   0.000  -0.000  -0.000   0.000
   31   14   15   16        3       0.000   0.000   0.000  -0.000  -0.000   0.000
   21    5    2    1        3       0.628   1.883   0.000  -2.510  -0.000   0.000
   19    1    2    5        3       0.628   1.883   0.000  -2.510  -0.000   0.000
   23    6    5    7        3       0.628   1.883   0.000  -2.510  -0.000   0.000
   26    7    5    6        3       0.628   1.883   0.000  -2.510  -0.000   0.000
   20    2    5    6        3       0.628   1.883   0.000  -2.510  -0.000   0.000
   22    6    5    2        3       0.628   1.883   0.000  -2.510  -0.000   0.000
   25    7    5    2        3       0.628   1.883   0.000  -2.510  -0.000   0.000
   20    2    5    7        3       0.628   1.883   0.000  -2.510  -0.000   0.000
   18    1    2    5        3       0.628   1.883   0.000  -2.510  -0.000   0.000
   23    6    5    2        3       0.628   1.883   0.000  -2.510  -0.000   0.000
   22    6    5    7        3       0.628   1.883   0.000  -2.510  -0.000   0.000
   17    1    2    5        3       0.628   1.883   0.000  -2.510  -0.000   0.000
   24    6    5    2        3       0.628   1.883   0.000  -2.510  -0.000   0.000
   26    7    5    2        3       0.628   1.883   0.000  -2.510  -0.000   0.000
   24    6    5    7        3       0.628   1.883   0.000  -2.510  -0.000   0.000
   25    7    5    6        3       0.628   1.883   0.000  -2.510  -0.000   0.000
   21    5    7    8        3       0.628   1.883   0.000  -2.510  -0.000   0.000
   17    1    2    3        3       0.766   2.297   0.000  -3.063  -0.000   0.000
   21    5    2    3        3       0.766   2.297   0.000  -3.063  -0.000   0.000
   19    1    2    3        3       0.766   2.297   0.000  -3.063  -0.000   0.000
   18    1    2    3        3       0.766   2.297   0.000  -3.063  -0.000   0.000
   26    7    5   21        3       0.628   1.883   0.000  -2.510  -0.000   0.000
   24    6    5   21        3       0.628   1.883   0.000  -2.510  -0.000   0.000
   20    2    1   19        3       0.628   1.883   0.000  -2.510  -0.000   0.000
   21    5    2   20        3       0.628   1.883   0.000  -2.510  -0.000   0.000
   23    6    5   21        3       0.628   1.883   0.000  -2.510  -0.000   0.000
   20    2    1   17        3       0.628   1.883   0.000  -2.510  -0.000   0.000
   22    6    5   21        3       0.628   1.883   0.000  -2.510  -0.000   0.000
   25    7    5   21        3       0.628   1.883   0.000  -2.510  -0.000   0.000
   20    2    1   18        3       0.628   1.883   0.000  -2.510  -0.000   0.000
   31   14   13    8        3       0.628   1.883   0.000  -2.510  -0.000   0.000
   32   14   13    8        3       0.628   1.883   0.000  -2.510  -0.000   0.000
   25    7    8    9        3       0.628   1.883   0.000  -2.510  -0.000   0.000
   26    7    8   13        3       0.628   1.883   0.000  -2.510  -0.000   0.000
   26    7    8    9        3       0.628   1.883   0.000  -2.510  -0.000   0.000
   25    7    8   13        3       0.628   1.883   0.000  -2.510  -0.000   0.000
   31   14   13   30        3       0.628   1.883   0.000  -2.510  -0.000   0.000
   32   14   13   30        3       0.628   1.883   0.000  -2.510  -0.000   0.000
   31   14   13   10        3       0.946   2.837   0.000  -3.782  -0.000   0.000
   32   14   13   10        3       0.946   2.837   0.000  -3.782  -0.000   0.000
   20    2    3    4        3       0.000   0.000   0.000  -0.000  -0.000   0.000
   30   13   14   15        3      -0.209  -0.628   0.000   0.837  -0.000   0.000
   27    8    7    5        3       0.628   1.883   0.000  -2.510  -0.000   0.000
   27    8    7   25        3       0.628   1.883   0.000  -2.510  -0.000   0.000
   27    8    7   26        3       0.628   1.883   0.000  -2.510  -0.000   0.000
   27    8   13   14        3       0.000   0.000   0.000  -0.000  -0.000   0.000
   29    9    8    7        3       0.000   0.000   0.000  -0.000  -0.000   0.000
   28    9    8    7        3       0.000   0.000   0.000  -0.000  -0.000   0.000
   30   13    8    7        3       0.000   0.000   0.000  -0.000  -0.000   0.000
   28    9    8   13        3       0.000   0.000   0.000  -0.000  -0.000   0.000
   29    9    8   13        3       0.000   0.000   0.000  -0.000  -0.000   0.000
   30   13    8    9        3       0.000   0.000   0.000  -0.000  -0.000   0.000
   28    9    8   27        3       0.000   0.000   0.000  -0.000  -0.000   0.000
   29    9    8   27        3       0.000   0.000   0.000  -0.000  -0.000   0.000
   30   13    8   27        3       0.000   0.000   0.000  -0.000  -0.000   0.000
   27    8    9   10        3       0.000   0.000   0.000  -0.000  -0.000   0.000
   27    8   13   10        3       0.000   0.000   0.000  -0.000  -0.000   0.000
   28    9   10   13        3       0.732   2.197   0.000  -2.929  -0.000   0.000
   29    9   10   13        3       0.732   2.197   0.000  -2.929  -0.000   0.000
   30   13   10    9        3       0.732   2.197   0.000  -2.929  -0.000   0.000
   30   13   10   11        3       0.732   2.197   0.000  -2.929  -0.000   0.000
   29    9   10   11        3       0.732   2.197   0.000  -2.929  -0.000   0.000
   28    9   10   12        3       0.732   2.197   0.000  -2.929  -0.000   0.000
   29    9   10   12        3       0.732   2.197   0.000  -2.929  -0.000   0.000
   30   13   10   12        3       0.732   2.197   0.000  -2.929  -0.000   0.000
   28    9   10   11        3       0.732   2.197   0.000  -2.929  -0.000   0.000
    4    3    2    1        3       0.000   0.000   0.000  -0.000  -0.000   0.000
   16   15   14   13        3       0.000   0.000   0.000  -0.000  -0.000   0.000
   11   10   13    8        3       0.000   0.000   0.000  -0.000  -0.000   0.000
   12   10   13    8        3       0.000   0.000   0.000  -0.000  -0.000   0.000
   11   10    9    8        3       0.000   0.000   0.000  -0.000  -0.000   0.000
   12   10    9    8        3       0.000   0.000   0.000  -0.000  -0.000   0.000
   10    9    8    7        3       0.000   0.000   0.000  -0.000  -0.000   0.000
   10   13    8    7        3       0.000   0.000   0.000  -0.000  -0.000   0.000

[ pairs ]
     1     4    1
     1     6    1
     1     7    1
     4     5    1
     3     6    1
     3     7    1
     2     8    1
     6     8    1
     5     9    1
     7    10    1
     5    13    1
     8    11    1
     8    12    1
     3    17    1
     7    14    1
     3    18    1
     5    17    1
     3    19    1
     1    21    1
     9    14    1
     8    15    1
     5    18    1
     5    19    1
     4    20    1
     3    21    1
     2    22    1
    11    14    1
    10    15    1
     2    23    1
    12    14    1
     6    20    1
     2    24    1
     7    20    1
     2    25    1
     2    26    1
    13    16    1
     8    21    1
     7    22    1
     7    23    1
     7    24    1
     6    25    1
     6    26    1
     5    27    1
     9    25    1
     9    26    1
     7    28    1
     7    29    1
    17    20    1
    10    27    1
     7    30    1
    18    20    1
    13    25    1
    19    20    1
    13    26    1
    11    28    1
     9    30    1
     8    31    1
    12    28    1
    11    29    1
     8    32    1
    20    21    1
    14    27    1
    13    28    1
    12    29    1
    11    30    1
    10    31    1
    13    29    1
    12    30    1
    10    32    1
    21    22    1
    21    23    1
    21    24    1
    15    30    1
    21    25    1
    13    33    1
    21    26    1
    16    31    1
    16    32    1
    25    27    1
    26    27    1
    27    28    1
    27    29    1
    27    30    1
    30    31    1
    30    32    1
    31    33    1
    32    33    1

