LIGPARGEN GENERATED GRO FILE
   41
    1UNK    C00    1   0.100   0.100   0.000
    1UNK    C01    2  -0.052   0.100   0.000
    1UNK    C02    3  -0.106   0.100   0.143
    1UNK    C03    4  -0.260   0.109   0.157
    1UNK    C04    5  -0.329  -0.009   0.085
    1UNK    C05    6  -0.483  -0.005   0.088
    1UNK    C06    7  -0.543  -0.124   0.015
    1UNK    C07    8  -0.300   0.111   0.307
    1UNK    C08    9  -0.243   0.229   0.388
    1UNK    C09   10  -0.283   0.230   0.539
    1UNK    C0A   11  -0.228   0.107   0.612
    1UNK    C0B   12  -0.223   0.356   0.604
    1UNK    C0C   13  -0.436   0.236   0.556
    1UNK    H0D   14   0.138   0.100  -0.103
    1UNK    H0E   15   0.139   0.011   0.051
    1UNK    H0F   16   0.139   0.189   0.051
    1UNK    H0G   17  -0.087   0.012  -0.055
    1UNK    H0H   18  -0.089   0.189  -0.054
    1UNK    H0I   19  -0.060   0.186   0.194
    1UNK    H0J   20  -0.070   0.010   0.195
    1UNK    H0K   21  -0.294   0.203   0.111
    1UNK    H0M   22  -0.295  -0.104   0.129
    1UNK    H0N   23  -0.299  -0.010  -0.021
    1UNK    H0O   24  -0.518   0.088   0.042
    1UNK    H0P   25  -0.520  -0.007   0.191
    1UNK    H0Q   26  -0.511  -0.127  -0.090
    1UNK    H0R   27  -0.653  -0.118   0.016
    1UNK    H0S   28  -0.514  -0.218   0.062
    1UNK    H0T   29  -0.270   0.016   0.352
    1UNK    H0U   30  -0.409   0.117   0.314
    1UNK    H0V   31  -0.276   0.322   0.341
    1UNK    H0W   32  -0.134   0.228   0.384
    1UNK    H0X   33  -0.119   0.101   0.602
    1UNK    H0Y   34  -0.270   0.014   0.572
    1UNK    H0Z   35  -0.252   0.110   0.718
    1UNK    H10   36  -0.113   0.355   0.597
    1UNK    H11   37  -0.249   0.363   0.710
    1UNK    H12   38  -0.259   0.447   0.555
    1UNK    H13   39  -0.484   0.145   0.519
    1UNK    H14   40  -0.479   0.321   0.502
    1UNK    H15   41  -0.463   0.245   0.662
   1.00000   1.00000   1.00000

