
;
; GENERATED BY LigParGen Server
; Jorgensen Lab @ Yale University 
;
[ atomtypes ]
  opls_818  H818     1.0080     0.000    A    2.50000E-01   1.25520E-01
  opls_824  H824     1.0080     0.000    A    2.50000E-01   1.25520E-01
  opls_805  C805    12.0110     0.000    A    3.50000E-01   2.76144E-01
  opls_804  O804    15.9990     0.000    A    2.96000E-01   8.78640E-01
  opls_828  H828     1.0080     0.000    A    2.50000E-01   1.25520E-01
  opls_812  C812    12.0110     0.000    A    3.50000E-01   2.76144E-01
  opls_811  C811    12.0110     0.000    A    3.50000E-01   2.76144E-01
  opls_815  H815     1.0080     0.000    A    2.50000E-01   1.25520E-01
  opls_809  C809    12.0110     0.000    A    3.50000E-01   2.76144E-01
  opls_830  H830     1.0080     0.000    A    2.50000E-01   1.25520E-01
  opls_822  H822     1.0080     0.000    A    2.50000E-01   1.25520E-01
  opls_808  C808    12.0110     0.000    A    3.45000E-01   3.47272E-01
  opls_825  H825     1.0080     0.000    A    2.50000E-01   1.25520E-01
  opls_826  H826     1.0080     0.000    A    2.50000E-01   1.25520E-01
  opls_814  H814     1.0080     0.000    A    2.50000E-01   1.25520E-01
  opls_821  H821     1.0080     0.000    A    2.50000E-01   1.25520E-01
  opls_820  H820     1.0080     0.000    A    2.50000E-01   1.25520E-01
  opls_807  C807    12.0110     0.000    A    3.45000E-01   3.47272E-01
  opls_829  H829     1.0080     0.000    A    2.50000E-01   1.25520E-01
  opls_831  H831     1.0080     0.000    A    2.50000E-01   1.25520E-01
  opls_832  H832     1.0080     0.000    A    2.50000E-01   1.25520E-01
  opls_816  H816     1.0080     0.000    A    2.50000E-01   1.25520E-01
  opls_800  C800    12.0110     0.000    A    3.50000E-01   2.76144E-01
  opls_823  H823     1.0080     0.000    A    2.50000E-01   1.25520E-01
  opls_833  H833     1.0080     0.000    A    2.50000E-01   1.25520E-01
  opls_813  C813    12.0110     0.000    A    3.50000E-01   2.76144E-01
  opls_806  C806    12.0110     0.000    A    3.45000E-01   3.47272E-01
  opls_819  H819     1.0080     0.000    A    2.50000E-01   1.25520E-01
  opls_810  C810    12.0110     0.000    A    3.50000E-01   2.76144E-01
  opls_827  H827     1.0080     0.000    A    2.50000E-01   1.25520E-01
  opls_802  O802    15.9990     0.000    A    2.90000E-01   5.85760E-01
  opls_801  C801    12.0110     0.000    A    3.50000E-01   2.76144E-01
  opls_803  C803    12.0110     0.000    A    3.55000E-01   2.92880E-01
  opls_817  H817     1.0080     0.000    A    2.50000E-01   1.25520E-01
[ moleculetype ]
; Name               nrexcl
UNK                   3
[ atoms ]
;   nr       type  resnr residue  atom   cgnr     charge       mass  
     1   opls_800      1    UNK   C00      1    -0.2759    12.0110 
     2   opls_801      1    UNK   C01      1     0.0025    12.0110 
     3   opls_802      1    UNK   O02      1    -0.3692    15.9990 
     4   opls_803      1    UNK   C03      1     0.4434    12.0110 
     5   opls_804      1    UNK   O04      1     -0.441    15.9990 
     6   opls_805      1    UNK   C05      1    -0.1599    12.0110 
     7   opls_806      1    UNK   C06      1    -0.1799    12.0110 
     8   opls_807      1    UNK   C07      1     -0.242    12.0110 
     9   opls_808      1    UNK   C08      1    -0.1548    12.0110 
    10   opls_809      1    UNK   C09      1    -0.0917    12.0110 
    11   opls_810      1    UNK   C0A      1    -0.1771    12.0110 
    12   opls_811      1    UNK   C0B      1    -0.1832    12.0110 
    13   opls_812      1    UNK   C0C      1    -0.1836    12.0110 
    14   opls_813      1    UNK   C0D      1    -0.1753    12.0110 
    15   opls_814      1    UNK   H0E      1     0.0965     1.0080 
    16   opls_815      1    UNK   H0F      1     0.0965     1.0080 
    17   opls_816      1    UNK   H0G      1     0.0965     1.0080 
    18   opls_817      1    UNK   H0H      1     0.1187     1.0080 
    19   opls_818      1    UNK   H0I      1     0.1187     1.0080 
    20   opls_819      1    UNK   H0J      1     0.1333     1.0080 
    21   opls_820      1    UNK   H0K      1     0.1333     1.0080 
    22   opls_821      1    UNK   H0M      1      0.155     1.0080 
    23   opls_822      1    UNK   H0N      1     0.1262     1.0080 
    24   opls_823      1    UNK   H0O      1     0.1262     1.0080 
    25   opls_824      1    UNK   H0P      1     0.1351     1.0080 
    26   opls_825      1    UNK   H0Q      1     0.1077     1.0080 
    27   opls_826      1    UNK   H0R      1     0.0942     1.0080 
    28   opls_827      1    UNK   H0S      1     0.0942     1.0080 
    29   opls_828      1    UNK   H0T      1     0.0924     1.0080 
    30   opls_829      1    UNK   H0U      1     0.0924     1.0080 
    31   opls_830      1    UNK   H0V      1     0.0902     1.0080 
    32   opls_831      1    UNK   H0W      1     0.0902     1.0080 
    33   opls_832      1    UNK   H0X      2     0.0955     1.0080 
    34   opls_833      1    UNK   H0Y      2     0.0955     1.0080 
[ bonds ]
    2     1     1      0.1529 224262.400
    3     2     1      0.1410 267776.000
    4     3     1      0.1327 179075.200
    5     4     1      0.1229 476976.000
    6     4     1      0.1522 265265.600
    7     6     1      0.1510 234304.000
    8     7     1      0.1520 217568.000
    9     7     1      0.1520 217568.000
   10     9     1      0.1510 234304.000
   11    10     1      0.1529 224262.400
   12    11     1      0.1529 224262.400
   13    12     1      0.1529 224262.400
   14    10     1      0.1529 224262.400
   15     1     1      0.1090 284512.000
   16     1     1      0.1090 284512.000
   17     1     1      0.1090 284512.000
   18     2     1      0.1090 284512.000
   19     2     1      0.1090 284512.000
   20     6     1      0.1090 284512.000
   21     6     1      0.1090 284512.000
   22     7     1      0.1088 284512.000
   23     8     1      0.1088 284512.000
   24     8     1      0.1088 284512.000
   25     9     1      0.1088 284512.000
   26    10     1      0.1090 284512.000
   27    11     1      0.1090 284512.000
   28    11     1      0.1090 284512.000
   29    12     1      0.1090 284512.000
   30    12     1      0.1090 284512.000
   31    13     1      0.1090 284512.000
   32    13     1      0.1090 284512.000
   33    14     1      0.1090 284512.000
   34    14     1      0.1090 284512.000
    9     8     1      0.1520 217568.000
   14    13     1      0.1529 224262.400

[ angles ]
;  ai    aj    ak funct            c0            c1            c2            c3 
    1     2     3     1    109.500    418.400
    2     3     4     1    116.900    694.544
    3     4     5     1    123.400    694.544
    3     4     6     1    111.400    677.808
    4     6     7     1    111.100    527.184
    6     7     8     1    117.200    313.800
    6     7     9     1    117.200    313.800
    7     9    10     1    117.200    313.800
    9    10    11     1    112.700    488.273
   10    11    12     1    112.700    488.273
   11    12    13     1    112.700    488.273
    9    10    14     1    112.700    488.273
    2     1    15     1    110.700    313.800
    2     1    16     1    110.700    313.800
    2     1    17     1    110.700    313.800
    1     2    18     1    110.700    313.800
    1     2    19     1    110.700    313.800
    4     6    20     1    109.500    292.880
    4     6    21     1    109.500    292.880
    6     7    22     1    114.300    292.880
    7     8    23     1    117.200    313.800
    7     8    24     1    117.200    313.800
    7     9    25     1    117.200    313.800
    9    10    26     1    110.700    313.800
   10    11    27     1    110.700    313.800
   10    11    28     1    110.700    313.800
   11    12    29     1    110.700    313.800
   11    12    30     1    110.700    313.800
   12    13    31     1    110.700    313.800
   12    13    32     1    110.700    313.800
   10    14    33     1    110.700    313.800
   10    14    34     1    110.700    313.800
   31    13    32     1    107.800    276.144
   10    14    13     1    112.700    488.273
    5     4     6     1    120.400    669.440
   13    14    34     1    110.700    313.800
   23     8    24     1    114.300    292.880
   12    11    27     1    110.700    313.800
    3     2    18     1    109.500    292.880
    8     9    10     1    117.200    313.800
   29    12    30     1    107.800    276.144
   14    13    32     1    110.700    313.800
   11    10    14     1    112.700    488.273
   33    14    34     1    107.800    276.144
   16     1    17     1    107.800    276.144
    9     8    23     1    117.200    313.800
   13    12    29     1    110.700    313.800
    8     7     9     1     83.000    251.040
   12    13    14     1    112.700    488.273
    9     7    22     1    117.200    313.800
   15     1    16     1    107.800    276.144
    9     8    24     1    117.200    313.800
   18     2    19     1    107.800    276.144
    3     2    19     1    109.500    292.880
   13    12    30     1    110.700    313.800
   14    13    31     1    110.700    313.800
   13    14    33     1    110.700    313.800
   10     9    25     1    114.300    292.880
   14    10    26     1    110.700    313.800
    7     9     8     1     83.000    251.040
    8     9    25     1    117.200    313.800
    8     7    22     1    117.200    313.800
   11    10    26     1    110.700    313.800
   15     1    17     1    107.800    276.144
   27    11    28     1    107.800    276.144
   20     6    21     1    107.800    276.144
   12    11    28     1    110.700    313.800
    7     8     9     1     83.000    251.040
    7     6    21     1    110.700    313.800
    7     6    20     1    110.700    313.800

[ dihedrals ]
; IMPROPER DIHEDRAL ANGLES 
;  ai    aj    ak    al funct            c0            c1            c2            c3            c4            c5
     6     4     3     5    4        180.000     43.932     2  

[ dihedrals ]
; PROPER DIHEDRAL ANGLES
;  ai    aj    ak    al funct            c0            c1            c2            c3            c4            c5
    4    3    2    1        3      -2.197   5.201   0.527  -3.531  -0.000   0.000
    6    4    3    2        3      31.206  -9.768  -21.439  -0.000  -0.000   0.000
   13   14   10   11        3       2.301  -1.464   0.837  -1.674  -0.000   0.000
   14   13   12   11        3       2.301  -1.464   0.837  -1.674  -0.000   0.000
   14   10   11   12        3       2.301  -1.464   0.837  -1.674  -0.000   0.000
   13   12   11   10        3       2.301  -1.464   0.837  -1.674  -0.000   0.000
   12   13   14   10        3       2.301  -1.464   0.837  -1.674  -0.000   0.000
   12   11   10    9        3       2.301  -1.464   0.837  -1.674  -0.000   0.000
   13   14   10    9        3       2.301  -1.464   0.837  -1.674  -0.000   0.000
   14   10    9    7        3       0.000   0.000   0.000  -0.000  -0.000   0.000
   14   10    9    8        3       0.000   0.000   0.000  -0.000  -0.000   0.000
   11   10    9    8        3       0.000   0.000   0.000  -0.000  -0.000   0.000
   11   10    9    7        3       0.000   0.000   0.000  -0.000  -0.000   0.000
   10    9    7    6        3       0.000   0.000   0.000  -0.000  -0.000   0.000
   10    9    7    8        3       0.000   0.000   0.000  -0.000  -0.000   0.000
   10    9    8    7        3       0.000   0.000   0.000  -0.000  -0.000   0.000
    7    6    4    5        3       0.000   0.000   0.000  -0.000  -0.000   0.000
    7    6    4    3        3      -1.157  -3.471   0.000   4.628  -0.000   0.000
    8    7    6    4        3      -4.960   6.286   1.310  -2.636  -0.000   0.000
    9    7    6    4        3      -4.960   6.286   1.310  -2.636  -0.000   0.000
    9    7    6    8        3       0.000   0.000   0.000  -0.000  -0.000   0.000
   20    6    4    5        3       0.000   0.000   0.000  -0.000  -0.000   0.000
   21    6    4    5        3       0.000   0.000   0.000  -0.000  -0.000   0.000
   21    6    4    3        3       0.276   0.828   0.000  -1.105  -0.000   0.000
   20    6    4    3        3       0.276   0.828   0.000  -1.105  -0.000   0.000
   26   10   14   13        3       0.628   1.883   0.000  -2.510  -0.000   0.000
   33   14   10   11        3       0.628   1.883   0.000  -2.510  -0.000   0.000
   30   12   11   10        3       0.628   1.883   0.000  -2.510  -0.000   0.000
   34   14   13   12        3       0.628   1.883   0.000  -2.510  -0.000   0.000
   27   11   10   14        3       0.628   1.883   0.000  -2.510  -0.000   0.000
   29   12   11   10        3       0.628   1.883   0.000  -2.510  -0.000   0.000
   31   13   14   10        3       0.628   1.883   0.000  -2.510  -0.000   0.000
   30   12   13   14        3       0.628   1.883   0.000  -2.510  -0.000   0.000
   31   13   12   11        3       0.628   1.883   0.000  -2.510  -0.000   0.000
   28   11   10   14        3       0.628   1.883   0.000  -2.510  -0.000   0.000
   32   13   14   10        3       0.628   1.883   0.000  -2.510  -0.000   0.000
   27   11   12   13        3       0.628   1.883   0.000  -2.510  -0.000   0.000
   26   10   11   12        3       0.628   1.883   0.000  -2.510  -0.000   0.000
   34   14   10   11        3       0.628   1.883   0.000  -2.510  -0.000   0.000
   33   14   13   12        3       0.628   1.883   0.000  -2.510  -0.000   0.000
   29   12   13   14        3       0.628   1.883   0.000  -2.510  -0.000   0.000
   28   11   12   13        3       0.628   1.883   0.000  -2.510  -0.000   0.000
   32   13   12   11        3       0.628   1.883   0.000  -2.510  -0.000   0.000
   28   11   10    9        3       0.628   1.883   0.000  -2.510  -0.000   0.000
   34   14   10    9        3       0.628   1.883   0.000  -2.510  -0.000   0.000
   27   11   10    9        3       0.628   1.883   0.000  -2.510  -0.000   0.000
   33   14   10    9        3       0.628   1.883   0.000  -2.510  -0.000   0.000
   18    2    1   16        3       0.628   1.883   0.000  -2.510  -0.000   0.000
   34   14   10   26        3       0.628   1.883   0.000  -2.510  -0.000   0.000
   34   14   13   31        3       0.628   1.883   0.000  -2.510  -0.000   0.000
   30   12   11   28        3       0.628   1.883   0.000  -2.510  -0.000   0.000
   33   14   13   32        3       0.628   1.883   0.000  -2.510  -0.000   0.000
   30   12   11   27        3       0.628   1.883   0.000  -2.510  -0.000   0.000
   29   12   11   28        3       0.628   1.883   0.000  -2.510  -0.000   0.000
   18    2    1   17        3       0.628   1.883   0.000  -2.510  -0.000   0.000
   19    2    1   16        3       0.628   1.883   0.000  -2.510  -0.000   0.000
   33   14   13   31        3       0.628   1.883   0.000  -2.510  -0.000   0.000
   32   13   12   30        3       0.628   1.883   0.000  -2.510  -0.000   0.000
   33   14   10   26        3       0.628   1.883   0.000  -2.510  -0.000   0.000
   19    2    1   17        3       0.628   1.883   0.000  -2.510  -0.000   0.000
   31   13   12   29        3       0.628   1.883   0.000  -2.510  -0.000   0.000
   19    2    1   15        3       0.628   1.883   0.000  -2.510  -0.000   0.000
   32   13   12   29        3       0.628   1.883   0.000  -2.510  -0.000   0.000
   18    2    1   15        3       0.628   1.883   0.000  -2.510  -0.000   0.000
   29   12   11   27        3       0.628   1.883   0.000  -2.510  -0.000   0.000
   28   11   10   26        3       0.628   1.883   0.000  -2.510  -0.000   0.000
   34   14   13   32        3       0.628   1.883   0.000  -2.510  -0.000   0.000
   31   13   12   30        3       0.628   1.883   0.000  -2.510  -0.000   0.000
   27   11   10   26        3       0.628   1.883   0.000  -2.510  -0.000   0.000
   17    1    2    3        3       0.979   2.937   0.000  -3.916  -0.000   0.000
   15    1    2    3        3       0.979   2.937   0.000  -3.916  -0.000   0.000
   16    1    2    3        3       0.979   2.937   0.000  -3.916  -0.000   0.000
   21    6    7    8        3       0.628   1.883   0.000  -2.510  -0.000   0.000
   21    6    7    9        3       0.628   1.883   0.000  -2.510  -0.000   0.000
   20    6    7    9        3       0.628   1.883   0.000  -2.510  -0.000   0.000
   20    6    7    8        3       0.628   1.883   0.000  -2.510  -0.000   0.000
   26   10    9    7        3       0.628   1.883   0.000  -2.510  -0.000   0.000
   26   10    9    8        3       0.628   1.883   0.000  -2.510  -0.000   0.000
   26   10    9   25        3       0.628   1.883   0.000  -2.510  -0.000   0.000
   19    2    3    4        3       0.414   1.243   0.000  -1.657  -0.000   0.000
   18    2    3    4        3       0.414   1.243   0.000  -1.657  -0.000   0.000
   22    7    6    4        3      -0.209  -0.628   0.000   0.837  -0.000   0.000
   25    9   10   11        3       0.628   1.883   0.000  -2.510  -0.000   0.000
   25    9   10   14        3       0.628   1.883   0.000  -2.510  -0.000   0.000
   22    7    6   21        3       0.628   1.883   0.000  -2.510  -0.000   0.000
   22    7    6   20        3       0.628   1.883   0.000  -2.510  -0.000   0.000
   23    8    9   10        3       0.000   0.000   0.000  -0.000  -0.000   0.000
   22    7    9   10        3       0.000   0.000   0.000  -0.000  -0.000   0.000
   24    8    9   10        3       0.000   0.000   0.000  -0.000  -0.000   0.000
   24    8    7    6        3       0.000   0.000   0.000  -0.000  -0.000   0.000
   25    9    7    6        3       0.000   0.000   0.000  -0.000  -0.000   0.000
   23    8    7    6        3       0.000   0.000   0.000  -0.000  -0.000   0.000
   25    9    8    7        3       0.000   0.000   0.000  -0.000  -0.000   0.000
   23    8    9    7        3       0.000   0.000   0.000  -0.000  -0.000   0.000
   22    7    9    8        3       0.000   0.000   0.000  -0.000  -0.000   0.000
   23    8    7    9        3       0.000   0.000   0.000  -0.000  -0.000   0.000
   24    8    7    9        3       0.000   0.000   0.000  -0.000  -0.000   0.000
   25    9    7    8        3       0.000   0.000   0.000  -0.000  -0.000   0.000
   24    8    9    7        3       0.000   0.000   0.000  -0.000  -0.000   0.000
   22    7    8    9        3       0.000   0.000   0.000  -0.000  -0.000   0.000
   25    9    7   22        3       0.000   0.000   0.000  -0.000  -0.000   0.000
   23    8    7   22        3       0.000   0.000   0.000  -0.000  -0.000   0.000
   25    9    8   24        3       0.000   0.000   0.000  -0.000  -0.000   0.000
   24    8    7   22        3       0.000   0.000   0.000  -0.000  -0.000   0.000
   25    9    8   23        3       0.000   0.000   0.000  -0.000  -0.000   0.000
    5    4    3    2        3      21.439   0.000  -21.439  -0.000  -0.000   0.000

[ pairs ]
     1     4    1
     2     5    1
     2     6    1
     3     7    1
     5     7    1
     4     8    1
     4     9    1
     6    10    1
     7    11    1
     3    15    1
     8    11    1
     3    16    1
     3    17    1
     9    12    1
     7    14    1
     9    13    1
     8    14    1
     4    18    1
     4    19    1
     3    20    1
     3    21    1
     5    20    1
     5    21    1
     4    22    1
     8    20    1
     9    20    1
     8    21    1
     6    23    1
     9    21    1
     6    24    1
     6    25    1
    10    22    1
    15    18    1
    10    23    1
     7    26    1
    16    18    1
    15    19    1
    10    24    1
     8    26    1
    17    18    1
    16    19    1
    17    19    1
    11    25    1
     9    27    1
     9    28    1
    12    26    1
    14    25    1
    13    26    1
    10    29    1
    13    27    1
    10    30    1
    14    27    1
    13    28    1
    10    31    1
    20    22    1
    14    28    1
    11    31    1
    10    32    1
     9    33    1
    21    22    1
    14    29    1
    11    32    1
     9    34    1
    14    30    1
    11    33    1
    22    23    1
    12    33    1
    11    34    1
    22    24    1
    12    34    1
    22    25    1
    23    25    1
    24    25    1
    25    26    1
    26    27    1
    26    28    1
    27    29    1
    28    29    1
    27    30    1
    28    30    1
    26    33    1
    29    31    1
    26    34    1
    30    31    1
    29    32    1
    30    32    1
    31    33    1
    32    33    1
    31    34    1
    32    34    1

