
;
; GENERATED BY LigParGen Server
; Jorgensen Lab @ Yale University 
;
[ atomtypes ]
  opls_818  H818     1.0080     0.000    A    2.50000E-01   1.25520E-01
  opls_805  O805    15.9990     0.000    A    2.96000E-01   7.11280E-01
  opls_813  H813     1.0080     0.000    A    2.50000E-01   1.25520E-01
  opls_801  O801    15.9990     0.000    A    2.90000E-01   5.85760E-01
  opls_802  C802    12.0110     0.000    A    3.50000E-01   2.76144E-01
  opls_804  O804    15.9990     0.000    A    2.96000E-01   7.11280E-01
  opls_809  C809    12.0110     0.000    A    3.50000E-01   2.76144E-01
  opls_822  H822     1.0080     0.000    A    2.50000E-01   1.25520E-01
  opls_807  C807    12.0110     0.000    A    3.50000E-01   2.76144E-01
  opls_814  H814     1.0080     0.000    A    2.50000E-01   1.25520E-01
  opls_821  H821     1.0080     0.000    A    2.50000E-01   1.25520E-01
  opls_820  H820     1.0080     0.000    A    2.50000E-01   1.25520E-01
  opls_811  H811     1.0080     0.000    A    2.50000E-01   1.25520E-01
  opls_810  H810     1.0080     0.000    A    2.50000E-01   1.25520E-01
  opls_816  H816     1.0080     0.000    A    2.50000E-01   1.25520E-01
  opls_800  C800    12.0110     0.000    A    3.50000E-01   2.76144E-01
  opls_806  C806    12.0110     0.000    A    3.50000E-01   2.76144E-01
  opls_823  H823     1.0080     0.000    A    2.50000E-01   1.25520E-01
  opls_819  H819     1.0080     0.000    A    2.50000E-01   1.25520E-01
  opls_815  H815     1.0080     0.000    A    2.50000E-01   1.25520E-01
  opls_808  C808    12.0110     0.000    A    3.50000E-01   2.76144E-01
  opls_817  H817     1.0080     0.000    A    2.50000E-01   1.25520E-01
  opls_803  S803    32.0600     0.000    A    3.55000E-01   1.04600E+00
  opls_812  H812     1.0080     0.000    A    2.50000E-01   1.25520E-01
[ moleculetype ]
; Name               nrexcl
UNK                   3
[ atoms ]
;   nr       type  resnr residue  atom   cgnr     charge       mass  
     1   opls_800      1    UNK   C00      1    -0.0817    12.0110 
     2   opls_801      1    UNK   O01      1    -0.2992    15.9990 
     3   opls_802      1    UNK   C02      1    -0.2823    12.0110 
     4   opls_803      1    UNK   S03      1     1.2409    32.0600 
     5   opls_804      1    UNK   O04      1    -0.5675    15.9990 
     6   opls_805      1    UNK   O05      1    -0.5675    15.9990 
     7   opls_806      1    UNK   C06      1    -0.3235    12.0110 
     8   opls_807      1    UNK   C07      1    -0.2232    12.0110 
     9   opls_808      1    UNK   C08      1    -0.2187    12.0110 
    10   opls_809      1    UNK   C09      1    -0.2253    12.0110 
    11   opls_810      1    UNK   H0A      1     0.1004     1.0080 
    12   opls_811      1    UNK   H0B      1     0.1004     1.0080 
    13   opls_812      1    UNK   H0C      1     0.1004     1.0080 
    14   opls_813      1    UNK   H0D      1     0.1518     1.0080 
    15   opls_814      1    UNK   H0E      1     0.1518     1.0080 
    16   opls_815      1    UNK   H0F      1     0.1028     1.0080 
    17   opls_816      1    UNK   H0G      1     0.1028     1.0080 
    18   opls_817      1    UNK   H0H      1     0.1028     1.0080 
    19   opls_818      1    UNK   H0I      1     0.1096     1.0080 
    20   opls_819      1    UNK   H0J      1     0.1096     1.0080 
    21   opls_820      1    UNK   H0K      1     0.1096     1.0080 
    22   opls_821      1    UNK   H0M      1      0.102     1.0080 
    23   opls_822      1    UNK   H0N      1      0.102     1.0080 
    24   opls_823      1    UNK   H0O      1      0.102     1.0080 
[ bonds ]
    2     1     1      0.1410 267776.000
    3     2     1      0.1410 267776.000
    4     3     1      0.1770 284512.000
    5     4     1      0.1440 585760.000
    6     4     1      0.1440 585760.000
    7     4     1      0.1770 284512.000
    8     7     1      0.1529 224262.400
    9     7     1      0.1529 224262.400
   10     7     1      0.1529 224262.400
   11     1     1      0.1090 284512.000
   12     1     1      0.1090 284512.000
   13     1     1      0.1090 284512.000
   14     3     1      0.1090 284512.000
   15     3     1      0.1090 284512.000
   16     8     1      0.1090 284512.000
   17     8     1      0.1090 284512.000
   18     8     1      0.1090 284512.000
   19     9     1      0.1090 284512.000
   20     9     1      0.1090 284512.000
   21     9     1      0.1090 284512.000
   22    10     1      0.1090 284512.000
   23    10     1      0.1090 284512.000
   24    10     1      0.1090 284512.000

[ angles ]
;  ai    aj    ak funct            c0            c1            c2            c3 
    1     2     3     1    109.500    502.080
    2     3     4     1    110.580    432.207
    3     4     5     1    108.900    619.232
    3     4     6     1    108.900    619.232
    3     4     7     1    102.000    518.816
    4     7     8     1    108.600    418.400
    4     7     9     1    108.600    418.400
    4     7    10     1    108.600    418.400
    2     1    11     1    109.500    292.880
    2     1    12     1    109.500    292.880
    2     1    13     1    109.500    292.880
    2     3    14     1    109.500    292.880
    2     3    15     1    109.500    292.880
    7     8    16     1    110.700    313.800
    7     8    17     1    110.700    313.800
    7     8    18     1    110.700    313.800
    7     9    19     1    110.700    313.800
    7     9    20     1    110.700    313.800
    7     9    21     1    110.700    313.800
    7    10    22     1    110.700    313.800
    7    10    23     1    110.700    313.800
    7    10    24     1    110.700    313.800
    5     4     6     1    119.000    870.272
   11     1    13     1    107.800    276.144
    5     4     7     1    108.900    619.232
    8     7    10     1    112.700    488.273
    6     4     7     1    108.900    619.232
    9     7    10     1    112.700    488.273
   22    10    23     1    107.800    276.144
    8     7     9     1    112.700    488.273
   17     8    18     1    107.800    276.144
   20     9    21     1    107.800    276.144
   19     9    21     1    107.800    276.144
   16     8    18     1    107.800    276.144
   16     8    17     1    107.800    276.144
   22    10    24     1    107.800    276.144
   11     1    12     1    107.800    276.144
   12     1    13     1    107.800    276.144
   14     3    15     1    107.800    276.144
   23    10    24     1    107.800    276.144
    4     3    14     1    109.500    292.880
    4     3    15     1    109.500    292.880
   19     9    20     1    107.800    276.144

[ dihedrals ]
; IMPROPER DIHEDRAL ANGLES 
;  ai    aj    ak    al funct            c0            c1            c2            c3            c4            c5

[ dihedrals ]
; PROPER DIHEDRAL ANGLES
;  ai    aj    ak    al funct            c0            c1            c2            c3            c4            c5
    9    7    4    3        3       0.000   0.000   0.000  -0.000  -0.000   0.000
   10    7    4    3        3       0.000   0.000   0.000  -0.000  -0.000   0.000
    8    7    4    3        3       0.000   0.000   0.000  -0.000  -0.000   0.000
    8    7    4    5        3       0.000   0.000   0.000  -0.000  -0.000   0.000
   10    7    4    5        3       0.000   0.000   0.000  -0.000  -0.000   0.000
    9    7    4    6        3       0.000   0.000   0.000  -0.000  -0.000   0.000
    9    7    4    5        3       0.000   0.000   0.000  -0.000  -0.000   0.000
   10    7    4    6        3       0.000   0.000   0.000  -0.000  -0.000   0.000
    8    7    4    6        3       0.000   0.000   0.000  -0.000  -0.000   0.000
    7    4    3    2        3       0.732   2.197   0.000  -2.929  -0.000   0.000
   22   10    7    9        3       0.628   1.883   0.000  -2.510  -0.000   0.000
   19    9    7   10        3       0.628   1.883   0.000  -2.510  -0.000   0.000
   20    9    7    8        3       0.628   1.883   0.000  -2.510  -0.000   0.000
   18    8    7    9        3       0.628   1.883   0.000  -2.510  -0.000   0.000
   17    8    7   10        3       0.628   1.883   0.000  -2.510  -0.000   0.000
   23   10    7    8        3       0.628   1.883   0.000  -2.510  -0.000   0.000
   20    9    7   10        3       0.628   1.883   0.000  -2.510  -0.000   0.000
   24   10    7    9        3       0.628   1.883   0.000  -2.510  -0.000   0.000
   16    8    7   10        3       0.628   1.883   0.000  -2.510  -0.000   0.000
   18    8    7   10        3       0.628   1.883   0.000  -2.510  -0.000   0.000
   23   10    7    9        3       0.628   1.883   0.000  -2.510  -0.000   0.000
   21    9    7    8        3       0.628   1.883   0.000  -2.510  -0.000   0.000
   22   10    7    8        3       0.628   1.883   0.000  -2.510  -0.000   0.000
   17    8    7    9        3       0.628   1.883   0.000  -2.510  -0.000   0.000
   19    9    7    8        3       0.628   1.883   0.000  -2.510  -0.000   0.000
   24   10    7    8        3       0.628   1.883   0.000  -2.510  -0.000   0.000
   21    9    7   10        3       0.628   1.883   0.000  -2.510  -0.000   0.000
   16    8    7    9        3       0.628   1.883   0.000  -2.510  -0.000   0.000
   24   10    7    4        3       0.946   2.837   0.000  -3.782  -0.000   0.000
   16    8    7    4        3       0.946   2.837   0.000  -3.782  -0.000   0.000
   18    8    7    4        3       0.946   2.837   0.000  -3.782  -0.000   0.000
   21    9    7    4        3       0.946   2.837   0.000  -3.782  -0.000   0.000
   17    8    7    4        3       0.946   2.837   0.000  -3.782  -0.000   0.000
   22   10    7    4        3       0.946   2.837   0.000  -3.782  -0.000   0.000
   20    9    7    4        3       0.946   2.837   0.000  -3.782  -0.000   0.000
   19    9    7    4        3       0.946   2.837   0.000  -3.782  -0.000   0.000
   23   10    7    4        3       0.946   2.837   0.000  -3.782  -0.000   0.000
   13    1    2    3        3       1.590   4.770   0.000  -6.360  -0.000   0.000
   12    1    2    3        3       1.590   4.770   0.000  -6.360  -0.000   0.000
   11    1    2    3        3       1.590   4.770   0.000  -6.360  -0.000   0.000
   15    3    2    1        3       1.590   4.770   0.000  -6.360  -0.000   0.000
   14    3    2    1        3       1.590   4.770   0.000  -6.360  -0.000   0.000
   15    3    4    7        3       0.732   2.197   0.000  -2.929  -0.000   0.000
   14    3    4    7        3       0.732   2.197   0.000  -2.929  -0.000   0.000
   14    3    4    6        3       0.732   2.197   0.000  -2.929  -0.000   0.000
   15    3    4    5        3       0.732   2.197   0.000  -2.929  -0.000   0.000
   14    3    4    5        3       0.732   2.197   0.000  -2.929  -0.000   0.000
   15    3    4    6        3       0.732   2.197   0.000  -2.929  -0.000   0.000
    6    4    3    2        3       0.000   0.000   0.000  -0.000  -0.000   0.000
    5    4    3    2        3       0.000   0.000   0.000  -0.000  -0.000   0.000
    4    3    2    1        3      -5.358  13.617   8.443  -16.703  -0.000   0.000

[ pairs ]
     1     4    1
     2     5    1
     2     6    1
     2     7    1
     3     8    1
     3     9    1
     5     8    1
     3    10    1
     6     8    1
     5     9    1
     3    11    1
     6     9    1
     5    10    1
     3    12    1
     1    14    1
     6    10    1
     3    13    1
     1    15    1
     5    14    1
     6    14    1
     5    15    1
     4    16    1
     7    14    1
     6    15    1
     4    17    1
     7    15    1
     4    18    1
     4    19    1
     4    20    1
     9    16    1
     4    21    1
    10    16    1
     9    17    1
     4    22    1
    10    17    1
     9    18    1
     8    19    1
     4    23    1
    10    18    1
     8    20    1
     4    24    1
    10    19    1
     8    21    1
    10    20    1
     8    22    1
    10    21    1
     9    22    1
     8    23    1
     9    23    1
     8    24    1
     9    24    1

