LIGPARGEN GENERATED GRO FILE
   41
    1UNK    C00    1   0.100   0.100   0.000
    1UNK    C01    2  -0.051   0.100   0.000
    1UNK    C02    3  -0.123   0.100   0.136
    1UNK    C03    4  -0.091  -0.017   0.229
    1UNK    C04    5  -0.195  -0.036   0.342
    1UNK    C05    6  -0.340  -0.057   0.298
    1UNK    C06    7  -0.433   0.063   0.303
    1UNK    O07    8  -0.528   0.060   0.383
    1UNK    C08    9  -0.415   0.187   0.214
    1UNK    C09   10  -0.460   0.177   0.060
    1UNK    C0A   11  -0.611   0.142   0.053
    1UNK    C0B   12  -0.439   0.314  -0.007
    1UNK    C0C   13  -0.395   0.071  -0.032
    1UNK    C0D   14  -0.300   0.275   0.268
    1UNK    S0E   15  -0.131   0.259   0.214
    1UNK    O0F   16  -0.047   0.256   0.332
    1UNK    O0G   17  -0.110   0.361   0.113
    1UNK    H0H   18   0.135   0.095  -0.104
    1UNK    H0I   19   0.140   0.013   0.052
    1UNK    H0J   20   0.140   0.191   0.045
    1UNK    H0K   21  -0.084   0.012  -0.056
    1UNK    H0M   22  -0.085   0.186  -0.059
    1UNK    H0N   23  -0.224   0.083   0.110
    1UNK    H0O   24   0.008  -0.005   0.274
    1UNK    H0P   25  -0.089  -0.109   0.170
    1UNK    H0Q   26  -0.188   0.044   0.416
    1UNK    H0R   27  -0.164  -0.128   0.395
    1UNK    H0S   28  -0.384  -0.129   0.369
    1UNK    H0T   29  -0.348  -0.107   0.201
    1UNK    H0U   30  -0.499   0.248   0.252
    1UNK    H0V   31  -0.671   0.201   0.124
    1UNK    H0W   32  -0.628   0.036   0.074
    1UNK    H0X   33  -0.650   0.163  -0.047
    1UNK    H0Y   34  -0.497   0.392   0.043
    1UNK    H0Z   35  -0.470   0.311  -0.113
    1UNK    H10   36  -0.334   0.343  -0.006
    1UNK    H11   37  -0.380  -0.025   0.017
    1UNK    H12   38  -0.302   0.106  -0.076
    1UNK    H13   39  -0.459   0.049  -0.119
    1UNK    H14   40  -0.295   0.261   0.377
    1UNK    H15   41  -0.325   0.381   0.253
   1.00000   1.00000   1.00000

