LIGPARGEN GENERATED GRO FILE
   35
    1UNK    C00    1   0.100   0.100   0.000
    1UNK    C01    2  -0.052   0.100   0.000
    1UNK    C02    3  -0.116   0.100   0.146
    1UNK    C03    4  -0.065  -0.031   0.208
    1UNK    C04    5  -0.063   0.236   0.208
    1UNK    O05    6  -0.131   0.294   0.319
    1UNK    C06    7  -0.210   0.204   0.395
    1UNK    C07    8  -0.116   0.114   0.476
    1UNK    C08    9  -0.312   0.147   0.297
    1UNK    C09   10  -0.368   0.004   0.319
    1UNK    C0A   11  -0.384  -0.006   0.167
    1UNK    C0B   12  -0.273   0.106   0.148
    1UNK    C0C   13  -0.327   0.180   0.023
    1UNK    H0D   14   0.138   0.100  -0.104
    1UNK    H0E   15   0.145   0.013   0.049
    1UNK    H0F   16   0.143   0.190   0.047
    1UNK    H0G   17  -0.087   0.012  -0.056
    1UNK    H0H   18  -0.084   0.188  -0.058
    1UNK    H0I   19   0.042  -0.028   0.230
    1UNK    H0J   20  -0.085  -0.115   0.140
    1UNK    H0K   21  -0.115  -0.058   0.300
    1UNK    H0M   22  -0.069   0.315   0.132
    1UNK    H0N   23   0.043   0.228   0.236
    1UNK    H0O   24  -0.264   0.264   0.469
    1UNK    H0P   25  -0.024   0.087   0.423
    1UNK    H0Q   26  -0.164   0.024   0.514
    1UNK    H0R   27  -0.078   0.171   0.561
    1UNK    H0S   28  -0.395   0.220   0.294
    1UNK    H0T   29  -0.461  -0.001   0.377
    1UNK    H0U   30  -0.302  -0.073   0.359
    1UNK    H0V   31  -0.486   0.027   0.141
    1UNK    H0W   32  -0.369  -0.103   0.120
    1UNK    H0X   33  -0.434   0.202   0.028
    1UNK    H0Y   34  -0.313   0.116  -0.066
    1UNK    H0Z   35  -0.275   0.275   0.004
   1.00000   1.00000   1.00000

