LIGPARGEN GENERATED GRO FILE
   30
    1UNK    C00    1   0.100   0.100   0.000
    1UNK    C01    2  -0.052   0.100   0.000
    1UNK    C02    3  -0.110   0.100   0.141
    1UNK    O03    4  -0.040   0.127   0.239
    1UNK    C04    5  -0.255   0.053   0.156
    1UNK    C05    6  -0.300   0.058   0.302
    1UNK    C06    7  -0.353   0.123   0.062
    1UNK    S07    8  -0.370   0.301   0.094
    1UNK    O08    9  -0.234   0.362   0.078
    1UNK    C09   10  -0.465   0.347  -0.056
    1UNK    C0A   11  -0.601   0.278  -0.061
    1UNK    C0B   12  -0.483   0.499  -0.057
    1UNK    H0C   13   0.138   0.095  -0.102
    1UNK    H0D   14   0.139   0.014   0.055
    1UNK    H0E   15   0.139   0.191   0.047
    1UNK    H0F   16  -0.087   0.010  -0.052
    1UNK    H0G   17  -0.089   0.188  -0.054
    1UNK    H0H   18  -0.253  -0.053   0.128
    1UNK    H0I   19  -0.304   0.160   0.341
    1UNK    H0J   20  -0.231   0.001   0.366
    1UNK    H0K   21  -0.400   0.013   0.313
    1UNK    H0M   22  -0.452   0.078   0.074
    1UNK    H0N   23  -0.323   0.110  -0.043
    1UNK    H0O   24  -0.406   0.317  -0.143
    1UNK    H0P   25  -0.658   0.294   0.032
    1UNK    H0Q   26  -0.591   0.170  -0.076
    1UNK    H0R   27  -0.661   0.317  -0.144
    1UNK    H0S   28  -0.537   0.533   0.032
    1UNK    H0T   29  -0.538   0.531  -0.145
    1UNK    H0U   30  -0.386   0.550  -0.058
   1.00000   1.00000   1.00000

