LIGPARGEN GENERATED GRO FILE
   34
    1UNK    C00    1   0.100   0.100   0.000
    1UNK    C01    2  -0.052   0.100   0.000
    1UNK    C02    3  -0.114   0.100   0.142
    1UNK    C03    4  -0.068   0.220   0.228
    1UNK    C04    5  -0.112   0.357   0.177
    1UNK    C05    6  -0.268   0.093   0.135
    1UNK    C06    7  -0.321  -0.038   0.077
    1UNK    O07    8  -0.248  -0.132   0.048
    1UNK    C08    9  -0.473  -0.046   0.057
    1UNK    C09   10  -0.509   0.018  -0.077
    1UNK    C0A   11  -0.521  -0.192   0.061
    1UNK    C0B   12  -0.496  -0.258   0.196
    1UNK    H0C   13   0.137   0.077  -0.100
    1UNK    H0D   14   0.140   0.025   0.069
    1UNK    H0E   15   0.140   0.198   0.028
    1UNK    H0F   16  -0.084   0.011  -0.055
    1UNK    H0G   17  -0.089   0.185  -0.058
    1UNK    H0H   18  -0.079   0.010   0.193
    1UNK    H0I   19   0.041   0.218   0.237
    1UNK    H0J   20  -0.106   0.207   0.330
    1UNK    H0K   21  -0.091   0.369   0.071
    1UNK    H0M   22  -0.058   0.435   0.231
    1UNK    H0N   23  -0.219   0.372   0.194
    1UNK    H0O   24  -0.307   0.176   0.075
    1UNK    H0P   25  -0.309   0.101   0.237
    1UNK    H0Q   26  -0.521   0.010   0.138
    1UNK    H0R   27  -0.458  -0.033  -0.160
    1UNK    H0S   28  -0.479   0.123  -0.080
    1UNK    H0T   29  -0.617   0.014  -0.095
    1UNK    H0U   30  -0.472  -0.251  -0.017
    1UNK    H0V   31  -0.629  -0.195   0.041
    1UNK    H0W   32  -0.390  -0.261   0.221
    1UNK    H0X   33  -0.532  -0.362   0.194
    1UNK    H0Y   34  -0.549  -0.205   0.276
   1.00000   1.00000   1.00000

