LIGPARGEN GENERATED GRO FILE
   36
    1UNK    C00    1   0.100   0.100   0.000
    1UNK    C01    2  -0.053   0.100   0.000
    1UNK    C02    3  -0.108   0.100   0.144
    1UNK    C03    4  -0.122  -0.042   0.200
    1UNK    C04    5  -0.167  -0.137   0.089
    1UNK    C05    6  -0.062  -0.157  -0.024
    1UNK    C06    7  -0.115  -0.020  -0.082
    1UNK    C07    8  -0.096  -0.002  -0.233
    1UNK    C08    9  -0.144   0.132  -0.293
    1UNK    C09   10  -0.242   0.080  -0.398
    1UNK    C0A   11  -0.178  -0.049  -0.456
    1UNK    C0B   12  -0.194  -0.094  -0.307
    1UNK    C0C   13  -0.332  -0.019  -0.320
    1UNK    C0D   14  -0.253  -0.069  -0.021
    1UNK    H0E   15   0.137   0.192   0.046
    1UNK    H0F   16   0.140   0.095  -0.102
    1UNK    H0G   17   0.142   0.017   0.057
    1UNK    H0H   18  -0.084   0.195  -0.044
    1UNK    H0I   19  -0.208   0.146   0.142
    1UNK    H0J   20  -0.048   0.163   0.210
    1UNK    H0K   21  -0.195  -0.041   0.281
    1UNK    H0M   22  -0.027  -0.076   0.242
    1UNK    H0N   23  -0.207  -0.230   0.130
    1UNK    H0O   24  -0.082  -0.245  -0.087
    1UNK    H0P   25   0.042  -0.164   0.008
    1UNK    H0Q   26   0.007  -0.023  -0.262
    1UNK    H0R   27  -0.060   0.186  -0.339
    1UNK    H0S   28  -0.195   0.197  -0.222
    1UNK    H0T   29  -0.289   0.151  -0.465
    1UNK    H0U   30  -0.076  -0.041  -0.495
    1UNK    H0V   31  -0.239  -0.103  -0.530
    1UNK    H0W   32  -0.194  -0.202  -0.288
    1UNK    H0X   33  -0.379   0.021  -0.230
    1UNK    H0Y   34  -0.409  -0.071  -0.378
    1UNK    H0Z   35  -0.308  -0.144  -0.079
    1UNK    H10   36  -0.324   0.008   0.011
   1.00000   1.00000   1.00000

