LIGPARGEN GENERATED GRO FILE
   32
    1UNK    C00    1   0.100   0.100   0.000
    1UNK    C01    2  -0.051   0.100   0.000
    1UNK    O02    3  -0.114   0.100   0.105
    1UNK    C03    4  -0.117   0.100  -0.137
    1UNK    C04    5  -0.269   0.100  -0.129
    1UNK    C05    6  -0.335   0.100  -0.268
    1UNK    C06    7  -0.301  -0.025  -0.350
    1UNK    C07    8  -0.369  -0.022  -0.487
    1UNK    C08    9  -0.334  -0.146  -0.568
    1UNK    C09   10  -0.400  -0.145  -0.704
    1UNK    O0A   11  -0.472  -0.055  -0.745
    1UNK    C0B   12  -0.371  -0.265  -0.793
    1UNK    C0C   13  -0.435  -0.268  -0.929
    1UNK    O0D   14  -0.298  -0.354  -0.752
    1UNK    H0E   15   0.137   0.100   0.103
    1UNK    H0F   16   0.136   0.190  -0.051
    1UNK    H0G   17   0.136   0.010  -0.051
    1UNK    H0H   18  -0.081   0.010  -0.188
    1UNK    H0I   19  -0.082   0.188  -0.191
    1UNK    H0J   20  -0.303   0.189  -0.074
    1UNK    H0K   21  -0.304   0.013  -0.072
    1UNK    H0M   22  -0.305   0.190  -0.322
    1UNK    H0N   23  -0.444   0.105  -0.254
    1UNK    H0O   24  -0.332  -0.115  -0.295
    1UNK    H0P   25  -0.193  -0.031  -0.365
    1UNK    H0Q   26  -0.337   0.068  -0.541
    1UNK    H0R   27  -0.478  -0.015  -0.474
    1UNK    H0S   28  -0.367  -0.236  -0.514
    1UNK    H0T   29  -0.225  -0.152  -0.583
    1UNK    H0U   30  -0.496  -0.179  -0.947
    1UNK    H0V   31  -0.499  -0.356  -0.936
    1UNK    H0W   32  -0.356  -0.271  -1.005
   1.00000   1.00000   1.00000

