LIGPARGEN GENERATED GRO FILE
   34
    1UNK    C00    1   0.100   0.100   0.000
    1UNK    C01    2  -0.053   0.100   0.000
    1UNK    C02    3  -0.121   0.100   0.139
    1UNK    C03    4  -0.276   0.093   0.122
    1UNK    C04    5  -0.328  -0.034   0.053
    1UNK    C05    6  -0.482  -0.037   0.038
    1UNK    C06    7  -0.525  -0.159  -0.043
    1UNK    C07    8  -0.548  -0.039   0.169
    1UNK    N08    9  -0.600  -0.040   0.273
    1UNK    O09   10  -0.080  -0.018   0.210
    1UNK    C0A   11  -0.069   0.009   0.344
    1UNK    O0B   12  -0.056  -0.077   0.430
    1UNK    C0C   13  -0.075   0.157   0.369
    1UNK    C0D   14  -0.075   0.216   0.229
    1UNK    C0E   15  -0.156   0.345   0.220
    1UNK    H0F   16   0.136   0.092  -0.103
    1UNK    H0G   17   0.140   0.015   0.056
    1UNK    H0H   18   0.141   0.193   0.041
    1UNK    H0I   19  -0.081   0.009  -0.054
    1UNK    H0J   20  -0.088   0.185  -0.059
    1UNK    H0K   21  -0.311   0.180   0.066
    1UNK    H0M   22  -0.322   0.099   0.222
    1UNK    H0N   23  -0.294  -0.123   0.109
    1UNK    H0O   24  -0.285  -0.042  -0.048
    1UNK    H0P   25  -0.513   0.053  -0.016
    1UNK    H0Q   26  -0.491  -0.252   0.003
    1UNK    H0R   27  -0.484  -0.154  -0.145
    1UNK    H0S   28  -0.634  -0.164  -0.051
    1UNK    H0T   29   0.015   0.188   0.423
    1UNK    H0U   30  -0.165   0.181   0.426
    1UNK    H0V   31   0.029   0.242   0.207
    1UNK    H0W   32  -0.259   0.332   0.256
    1UNK    H0X   33  -0.161   0.381   0.117
    1UNK    H0Y   34  -0.110   0.423   0.282
   1.00000   1.00000   1.00000

