LIGPARGEN GENERATED GRO FILE
   34
    1UNK    C00    1   0.100   0.100   0.000
    1UNK    C01    2  -0.054   0.100   0.000
    1UNK    C02    3  -0.103   0.100   0.145
    1UNK    C03    4  -0.109   0.218  -0.084
    1UNK    C04    5  -0.065   0.207  -0.230
    1UNK    C05    6  -0.160   0.300  -0.303
    1UNK    C06    7  -0.296   0.272  -0.238
    1UNK    C07    8  -0.392   0.390  -0.255
    1UNK    C08    9  -0.417   0.422  -0.402
    1UNK    C09   10  -0.513   0.539  -0.416
    1UNK    N0A   11  -0.592   0.637  -0.428
    1UNK    C0B   12  -0.264   0.228  -0.092
    1UNK    C0C   13  -0.324   0.317   0.017
    1UNK    H0D   14   0.139   0.019   0.063
    1UNK    H0E   15   0.139   0.195   0.038
    1UNK    H0F   16   0.140   0.085  -0.101
    1UNK    H0G   17  -0.087   0.006  -0.046
    1UNK    H0H   18  -0.079   0.194   0.195
    1UNK    H0I   19  -0.056   0.019   0.202
    1UNK    H0J   20  -0.211   0.084   0.150
    1UNK    H0K   21  -0.070   0.312  -0.043
    1UNK    H0M   22  -0.077   0.104  -0.267
    1UNK    H0N   23   0.039   0.238  -0.245
    1UNK    H0O   24  -0.161   0.279  -0.410
    1UNK    H0P   25  -0.129   0.404  -0.288
    1UNK    H0Q   26  -0.340   0.185  -0.289
    1UNK    H0R   27  -0.352   0.480  -0.207
    1UNK    H0S   28  -0.488   0.367  -0.206
    1UNK    H0T   29  -0.461   0.335  -0.453
    1UNK    H0U   30  -0.324   0.449  -0.454
    1UNK    H0V   31  -0.306   0.127  -0.079
    1UNK    H0W   32  -0.301   0.422   0.000
    1UNK    H0X   33  -0.286   0.292   0.116
    1UNK    H0Y   34  -0.433   0.305   0.020
   1.00000   1.00000   1.00000

