LIGPARGEN GENERATED GRO FILE
   39
    1UNK    C00    1   0.100   0.100   0.000
    1UNK    C01    2  -0.052   0.100   0.000
    1UNK    C02    3  -0.116   0.100   0.140
    1UNK    C03    4  -0.073   0.227   0.216
    1UNK    C04    5  -0.272   0.094   0.137
    1UNK    C05    6  -0.345  -0.040   0.097
    1UNK    C06    7  -0.289  -0.161   0.177
    1UNK    C07    8  -0.306  -0.156   0.328
    1UNK    C08    9  -0.497  -0.023   0.127
    1UNK    C09   10  -0.567   0.078   0.035
    1UNK    C0A   11  -0.544   0.049  -0.113
    1UNK    C0B   12  -0.396   0.030  -0.145
    1UNK    C0C   13  -0.335  -0.075  -0.054
    1UNK    H0D   14   0.137   0.091  -0.103
    1UNK    H0E   15   0.139   0.015   0.057
    1UNK    H0F   16   0.141   0.193   0.041
    1UNK    H0G   17  -0.081   0.010  -0.054
    1UNK    H0H   18  -0.089   0.186  -0.058
    1UNK    H0I   19  -0.078   0.015   0.197
    1UNK    H0J   20  -0.093   0.317   0.157
    1UNK    H0K   21   0.034   0.225   0.240
    1UNK    H0M   22  -0.127   0.237   0.311
    1UNK    H0N   23  -0.307   0.177   0.075
    1UNK    H0O   24  -0.306   0.119   0.238
    1UNK    H0P   25  -0.182  -0.175   0.154
    1UNK    H0Q   26  -0.338  -0.253   0.142
    1UNK    H0R   27  -0.260  -0.066   0.371
    1UNK    H0S   28  -0.258  -0.242   0.374
    1UNK    H0T   29  -0.412  -0.158   0.356
    1UNK    H0U   30  -0.513   0.007   0.231
    1UNK    H0V   31  -0.547  -0.121   0.115
    1UNK    H0W   32  -0.533   0.179   0.059
    1UNK    H0X   33  -0.675   0.076   0.056
    1UNK    H0Y   34  -0.585   0.131  -0.173
    1UNK    H0Z   35  -0.599  -0.042  -0.141
    1UNK    H10   36  -0.343   0.126  -0.136
    1UNK    H11   37  -0.386  -0.001  -0.250
    1UNK    H12   38  -0.233  -0.098  -0.085
    1UNK    H13   39  -0.389  -0.170  -0.072
   1.00000   1.00000   1.00000

