LIGPARGEN GENERATED GRO FILE
   54
    1UNK    C00    1   0.100   0.100   0.000
    1UNK    C01    2  -0.052   0.100   0.000
    1UNK    C02    3  -0.113   0.100   0.141
    1UNK    C03    4  -0.079   0.223   0.229
    1UNK    C04    5  -0.118   0.356   0.158
    1UNK    C05    6  -0.267   0.373   0.127
    1UNK    C06    7  -0.141   0.213   0.373
    1UNK    C07    8  -0.103   0.085   0.452
    1UNK    C08    9  -0.163   0.072   0.597
    1UNK    C09   10  -0.317   0.078   0.591
    1UNK    C0A   11  -0.118  -0.061   0.668
    1UNK    C0B   12   0.035  -0.073   0.693
    1UNK    C0C   13   0.087   0.007   0.813
    1UNK    C0D   14   0.007  -0.021   0.940
    1UNK    C0E   15  -0.142  -0.000   0.916
    1UNK    C0F   16  -0.191  -0.088   0.802
    1UNK    C0G   17  -0.093   0.333   0.455
    1UNK    O0H   18   0.024   0.364   0.471
    1UNK    O0I   19  -0.200   0.399   0.508
    1UNK    C0J   20  -0.164   0.509   0.592
    1UNK    H0K   21   0.138   0.082  -0.101
    1UNK    H0M   22   0.139   0.021   0.065
    1UNK    H0N   23   0.140   0.196   0.034
    1UNK    H0O   24  -0.087   0.010  -0.052
    1UNK    H0P   25  -0.091   0.184  -0.059
    1UNK    H0Q   26  -0.078   0.009   0.191
    1UNK    H0R   27  -0.222   0.090   0.132
    1UNK    H0S   28   0.030   0.226   0.241
    1UNK    H0T   29  -0.062   0.365   0.064
    1UNK    H0U   30  -0.086   0.442   0.218
    1UNK    H0V   31  -0.308   0.287   0.073
    1UNK    H0W   32  -0.282   0.461   0.064
    1UNK    H0X   33  -0.325   0.388   0.219
    1UNK    H0Y   34  -0.249   0.218   0.361
    1UNK    H0Z   35   0.007   0.081   0.458
    1UNK    H10   36  -0.135  -0.004   0.396
    1UNK    H11   37  -0.128   0.157   0.656
    1UNK    H12   38  -0.358  -0.018   0.560
    1UNK    H13   39  -0.355   0.154   0.522
    1UNK    H14   40  -0.358   0.103   0.689
    1UNK    H15   41  -0.145  -0.143   0.600
    1UNK    H16   42   0.092  -0.046   0.604
    1UNK    H17   43   0.057  -0.179   0.711
    1UNK    H18   44   0.084   0.114   0.790
    1UNK    H19   45   0.192  -0.020   0.831
    1UNK    H1A   46   0.041   0.045   1.020
    1UNK    H1B   47   0.024  -0.124   0.973
    1UNK    H1C   48  -0.163   0.105   0.894
    1UNK    H1D   49  -0.198  -0.025   1.007
    1UNK    H1E   50  -0.299  -0.079   0.792
    1UNK    H1F   51  -0.173  -0.193   0.830
    1UNK    H1G   52  -0.253   0.540   0.647
    1UNK    H1H   53  -0.131   0.593   0.530
    1UNK    H1I   54  -0.087   0.481   0.664
   1.00000   1.00000   1.00000

