LIGPARGEN GENERATED GRO FILE
   32
    1UNK    C00    1   0.100   0.100   0.000
    1UNK    C01    2  -0.051   0.100   0.000
    1UNK    O02    3  -0.113   0.100   0.106
    1UNK    C03    4  -0.120   0.100  -0.135
    1UNK    C04    5  -0.085  -0.026  -0.210
    1UNK    O05    6   0.014  -0.034  -0.283
    1UNK    C06    7  -0.269   0.116  -0.126
    1UNK    O07    8  -0.349   0.032  -0.165
    1UNK    O08    9  -0.303   0.237  -0.074
    1UNK    C09   10  -0.444   0.261  -0.061
    1UNK    C0A   11  -0.499   0.191   0.062
    1UNK    C0B   12  -0.649   0.215   0.078
    1UNK    C0C   13  -0.711   0.141   0.198
    1UNK    C0D   14  -0.652   0.184   0.332
    1UNK    C0E   15  -0.861   0.163   0.203
    1UNK    O0F   16  -0.925   0.230   0.123
    1UNK    H0G   17   0.137   0.119   0.101
    1UNK    H0H   18   0.137   0.179  -0.066
    1UNK    H0I   19   0.137   0.003  -0.033
    1UNK    H0J   20  -0.082   0.185  -0.193
    1UNK    H0K   21  -0.146  -0.115  -0.187
    1UNK    H0M   22  -0.496   0.231  -0.153
    1UNK    H0N   23  -0.457   0.370  -0.052
    1UNK    H0O   24  -0.444   0.228   0.150
    1UNK    H0P   25  -0.479   0.083   0.057
    1UNK    H0Q   26  -0.700   0.182  -0.014
    1UNK    H0R   27  -0.669   0.323   0.087
    1UNK    H0S   28  -0.696   0.033   0.185
    1UNK    H0T   29  -0.661   0.292   0.346
    1UNK    H0U   30  -0.546   0.158   0.339
    1UNK    H0V   31  -0.703   0.136   0.415
    1UNK    H0W   32  -0.914   0.109   0.284
   1.00000   1.00000   1.00000

