
;
; GENERATED BY LigParGen Server
; Jorgensen Lab @ Yale University 
;
[ atomtypes ]
  opls_818  H818     1.0080     0.000    A    2.50000E-01   1.25520E-01
  opls_814  C814    12.0110     0.000    A    3.50000E-01   2.76144E-01
  opls_824  H824     1.0080     0.000    A    2.50000E-01   1.25520E-01
  opls_805  C805    12.0110     0.000    A    3.50000E-01   2.76144E-01
  opls_833  H833     1.0080     0.000    A    2.50000E-01   1.25520E-01
  opls_836  H836     1.0080     0.000    A    2.50000E-01   1.25520E-01
  opls_834  H834     1.0080     0.000    A    2.50000E-01   1.25520E-01
  opls_810  C810    12.0110     0.000    A    3.50000E-01   2.76144E-01
  opls_828  H828     1.0080     0.000    A    2.50000E-01   1.25520E-01
  opls_832  H832     1.0080     0.000    A    2.50000E-01   1.25520E-01
  opls_806  C806    12.0110     0.000    A    3.50000E-01   2.76144E-01
  opls_815  H815     1.0080     0.000    A    2.50000E-01   1.25520E-01
  opls_809  C809    12.0110     0.000    A    3.50000E-01   2.76144E-01
  opls_838  H838     1.0080     0.000    A    2.50000E-01   1.25520E-01
  opls_802  O802    15.9990     0.000    A    2.96000E-01   8.78640E-01
  opls_822  H822     1.0080     0.000    A    2.50000E-01   1.25520E-01
  opls_803  C803    12.0110     0.000    A    3.50000E-01   2.76144E-01
  opls_825  H825     1.0080     0.000    A    2.50000E-01   1.25520E-01
  opls_830  H830     1.0080     0.000    A    2.50000E-01   1.25520E-01
  opls_821  H821     1.0080     0.000    A    2.50000E-01   1.25520E-01
  opls_820  H820     1.0080     0.000    A    2.50000E-01   1.25520E-01
  opls_801  C801    12.0110     0.000    A    3.55000E-01   2.92880E-01
  opls_837  H837     1.0080     0.000    A    2.50000E-01   1.25520E-01
  opls_829  H829     1.0080     0.000    A    2.50000E-01   1.25520E-01
  opls_831  H831     1.0080     0.000    A    2.50000E-01   1.25520E-01
  opls_816  H816     1.0080     0.000    A    2.50000E-01   1.25520E-01
  opls_800  C800    12.0110     0.000    A    3.50000E-01   2.76144E-01
  opls_811  C811    12.0110     0.000    A    3.50000E-01   2.76144E-01
  opls_823  H823     1.0080     0.000    A    2.50000E-01   1.25520E-01
  opls_813  C813    12.0110     0.000    A    3.50000E-01   2.76144E-01
  opls_826  H826     1.0080     0.000    A    2.50000E-01   1.25520E-01
  opls_835  H835     1.0080     0.000    A    2.50000E-01   1.25520E-01
  opls_819  H819     1.0080     0.000    A    2.50000E-01   1.25520E-01
  opls_804  C804    12.0110     0.000    A    3.50000E-01   2.76144E-01
  opls_827  H827     1.0080     0.000    A    2.50000E-01   1.25520E-01
  opls_839  H839     1.0080     0.000    A    2.50000E-01   1.25520E-01
  opls_812  C812    12.0110     0.000    A    3.50000E-01   2.76144E-01
  opls_808  C808    12.0110     0.000    A    3.50000E-01   2.76144E-01
  opls_817  H817     1.0080     0.000    A    2.50000E-01   1.25520E-01
  opls_840  H840     1.0080     0.000    A    2.50000E-01   1.25520E-01
  opls_807  C807    12.0110     0.000    A    3.50000E-01   2.76144E-01
[ moleculetype ]
; Name               nrexcl
UNK                   3
[ atoms ]
;   nr       type  resnr residue  atom   cgnr     charge       mass  
     1   opls_800      1    UNK   C00      1    -0.3047    12.0110 
     2   opls_801      1    UNK   C01      1     0.3584    12.0110 
     3   opls_802      1    UNK   O02      1    -0.4474    15.9990 
     4   opls_803      1    UNK   C03      1    -0.2349    12.0110 
     5   opls_804      1    UNK   C04      1    -0.1734    12.0110 
     6   opls_805      1    UNK   C05      1    -0.1708    12.0110 
     7   opls_806      1    UNK   C06      1    -0.0272    12.0110 
     8   opls_807      1    UNK   C07      1    -0.2294    12.0110 
     9   opls_808      1    UNK   C08      1    -0.2361    12.0110 
    10   opls_809      1    UNK   C09      1    -0.0902    12.0110 
    11   opls_810      1    UNK   C0A      1    -0.1652    12.0110 
    12   opls_811      1    UNK   C0B      1    -0.1707    12.0110 
    13   opls_812      1    UNK   C0C      1    -0.1702    12.0110 
    14   opls_813      1    UNK   C0D      1    -0.1713    12.0110 
    15   opls_814      1    UNK   C0E      1    -0.1642    12.0110 
    16   opls_815      1    UNK   H0F      1     0.1164     1.0080 
    17   opls_816      1    UNK   H0G      1     0.1164     1.0080 
    18   opls_817      1    UNK   H0H      1     0.1164     1.0080 
    19   opls_818      1    UNK   H0I      1     0.1177     1.0080 
    20   opls_819      1    UNK   H0J      1     0.1177     1.0080 
    21   opls_820      1    UNK   H0K      1     0.1064     1.0080 
    22   opls_821      1    UNK   H0M      1     0.1064     1.0080 
    23   opls_822      1    UNK   H0N      1     0.0843     1.0080 
    24   opls_823      1    UNK   H0O      1     0.0843     1.0080 
    25   opls_824      1    UNK   H0P      1     0.0827     1.0080 
    26   opls_825      1    UNK   H0Q      1     0.0827     1.0080 
    27   opls_826      1    UNK   H0R      1     0.0827     1.0080 
    28   opls_827      1    UNK   H0S      1     0.0826     1.0080 
    29   opls_828      1    UNK   H0T      1     0.0826     1.0080 
    30   opls_829      1    UNK   H0U      1     0.0826     1.0080 
    31   opls_830      1    UNK   H0V      1     0.0833     1.0080 
    32   opls_831      1    UNK   H0W      1     0.0844     1.0080 
    33   opls_832      1    UNK   H0X      2     0.0844     1.0080 
    34   opls_833      1    UNK   H0Y      2     0.0853     1.0080 
    35   opls_834      1    UNK   H0Z      2     0.0853     1.0080 
    36   opls_835      1    UNK   H10      2     0.0841     1.0080 
    37   opls_836      1    UNK   H11      2     0.0841     1.0080 
    38   opls_837      1    UNK   H12      2     0.0861     1.0080 
    39   opls_838      1    UNK   H13      2     0.0861     1.0080 
    40   opls_839      1    UNK   H14      2     0.0863     1.0080 
    41   opls_840      1    UNK   H15      2     0.0863     1.0080 
[ bonds ]
    2     1     1      0.1522 265265.600
    3     2     1      0.1229 476976.000
    4     2     1      0.1522 265265.600
    5     4     1      0.1529 224262.400
    6     5     1      0.1529 224262.400
    7     6     1      0.1529 224262.400
    8     7     1      0.1529 224262.400
    9     7     1      0.1529 224262.400
   10     7     1      0.1529 224262.400
   11    10     1      0.1529 224262.400
   12    11     1      0.1529 224262.400
   13    12     1      0.1529 224262.400
   14    13     1      0.1529 224262.400
   15    10     1      0.1529 224262.400
   16     1     1      0.1090 284512.000
   17     1     1      0.1090 284512.000
   18     1     1      0.1090 284512.000
   19     4     1      0.1090 284512.000
   20     4     1      0.1090 284512.000
   21     5     1      0.1090 284512.000
   22     5     1      0.1090 284512.000
   23     6     1      0.1090 284512.000
   24     6     1      0.1090 284512.000
   25     8     1      0.1090 284512.000
   26     8     1      0.1090 284512.000
   27     8     1      0.1090 284512.000
   28     9     1      0.1090 284512.000
   29     9     1      0.1090 284512.000
   30     9     1      0.1090 284512.000
   31    10     1      0.1090 284512.000
   32    11     1      0.1090 284512.000
   33    11     1      0.1090 284512.000
   34    12     1      0.1090 284512.000
   35    12     1      0.1090 284512.000
   36    13     1      0.1090 284512.000
   37    13     1      0.1090 284512.000
   38    14     1      0.1090 284512.000
   39    14     1      0.1090 284512.000
   40    15     1      0.1090 284512.000
   41    15     1      0.1090 284512.000
   15    14     1      0.1529 224262.400

[ angles ]
;  ai    aj    ak funct            c0            c1            c2            c3 
    1     2     3     1    120.400    669.440
    1     2     4     1    116.000    585.760
    2     4     5     1    111.100    527.184
    4     5     6     1    112.700    488.273
    5     6     7     1    112.700    488.273
    6     7     8     1    112.700    488.273
    6     7     9     1    112.700    488.273
    6     7    10     1    112.700    488.273
    7    10    11     1    112.700    488.273
   10    11    12     1    112.700    488.273
   11    12    13     1    112.700    488.273
   12    13    14     1    112.700    488.273
    7    10    15     1    112.700    488.273
    2     1    16     1    109.500    292.880
    2     1    17     1    109.500    292.880
    2     1    18     1    109.500    292.880
    2     4    19     1    109.500    292.880
    2     4    20     1    109.500    292.880
    4     5    21     1    110.700    313.800
    4     5    22     1    110.700    313.800
    5     6    23     1    110.700    313.800
    5     6    24     1    110.700    313.800
    7     8    25     1    110.700    313.800
    7     8    26     1    110.700    313.800
    7     8    27     1    110.700    313.800
    7     9    28     1    110.700    313.800
    7     9    29     1    110.700    313.800
    7     9    30     1    110.700    313.800
    7    10    31     1    110.700    313.800
   10    11    32     1    110.700    313.800
   10    11    33     1    110.700    313.800
   11    12    34     1    110.700    313.800
   11    12    35     1    110.700    313.800
   12    13    36     1    110.700    313.800
   12    13    37     1    110.700    313.800
   13    14    38     1    110.700    313.800
   13    14    39     1    110.700    313.800
   10    15    40     1    110.700    313.800
   10    15    41     1    110.700    313.800
   25     8    27     1    107.800    276.144
    9     7    10     1    112.700    488.273
   29     9    30     1    107.800    276.144
    7     6    24     1    110.700    313.800
   12    11    32     1    110.700    313.800
   15    10    31     1    110.700    313.800
   26     8    27     1    107.800    276.144
   14    13    37     1    110.700    313.800
   16     1    18     1    107.800    276.144
   12    11    33     1    110.700    313.800
    6     5    22     1    110.700    313.800
   21     5    22     1    107.800    276.144
   14    15    40     1    110.700    313.800
   16     1    17     1    107.800    276.144
   14    15    41     1    110.700    313.800
    7     6    23     1    110.700    313.800
   19     4    20     1    107.800    276.144
   25     8    26     1    107.800    276.144
   17     1    18     1    107.800    276.144
   11    10    15     1    112.700    488.273
   13    14    15     1    112.700    488.273
   28     9    30     1    107.800    276.144
   40    15    41     1    107.800    276.144
   10    15    14     1    112.700    488.273
   13    12    34     1    110.700    313.800
    3     2     4     1    120.400    669.440
    5     4    19     1    110.700    313.800
   34    12    35     1    107.800    276.144
   32    11    33     1    107.800    276.144
   11    10    31     1    110.700    313.800
   23     6    24     1    107.800    276.144
    6     5    21     1    110.700    313.800
    5     4    20     1    110.700    313.800
   38    14    39     1    107.800    276.144
   13    12    35     1    110.700    313.800
   14    13    36     1    110.700    313.800
    8     7    10     1    112.700    488.273
   15    14    38     1    110.700    313.800
   36    13    37     1    107.800    276.144
    8     7     9     1    112.700    488.273
   15    14    39     1    110.700    313.800
   28     9    29     1    107.800    276.144

[ dihedrals ]
; IMPROPER DIHEDRAL ANGLES 
;  ai    aj    ak    al funct            c0            c1            c2            c3            c4            c5
     4     2     1     3    4        180.000     43.932     2  

[ dihedrals ]
; PROPER DIHEDRAL ANGLES
;  ai    aj    ak    al funct            c0            c1            c2            c3            c4            c5
    5    4    2    1        3       0.818  -7.906   0.602   6.485  -0.000   0.000
    5    4    2    3        3       0.000   0.000   0.000  -0.000  -0.000   0.000
    6    5    4    2        3      -4.960   6.286   1.310  -2.636  -0.000   0.000
   15   14   13   12        3       2.301  -1.464   0.837  -1.674  -0.000   0.000
   15   10    7    6        3       2.301  -1.464   0.837  -1.674  -0.000   0.000
   15   10    7    9        3       2.301  -1.464   0.837  -1.674  -0.000   0.000
   10    7    6    5        3       2.301  -1.464   0.837  -1.674  -0.000   0.000
   15   10   11   12        3       2.301  -1.464   0.837  -1.674  -0.000   0.000
   14   15   10    7        3       2.301  -1.464   0.837  -1.674  -0.000   0.000
   14   15   10   11        3       2.301  -1.464   0.837  -1.674  -0.000   0.000
   13   14   15   10        3       2.301  -1.464   0.837  -1.674  -0.000   0.000
   11   10    7    8        3       2.301  -1.464   0.837  -1.674  -0.000   0.000
    9    7    6    5        3       2.301  -1.464   0.837  -1.674  -0.000   0.000
   11   10    7    9        3       2.301  -1.464   0.837  -1.674  -0.000   0.000
   15   10    7    8        3       2.301  -1.464   0.837  -1.674  -0.000   0.000
   13   12   11   10        3       2.301  -1.464   0.837  -1.674  -0.000   0.000
    7    6    5    4        3       2.301  -1.464   0.837  -1.674  -0.000   0.000
    8    7    6    5        3       2.301  -1.464   0.837  -1.674  -0.000   0.000
   12   11   10    7        3       2.301  -1.464   0.837  -1.674  -0.000   0.000
   11   10    7    6        3       2.301  -1.464   0.837  -1.674  -0.000   0.000
   14   13   12   11        3       2.301  -1.464   0.837  -1.674  -0.000   0.000
   20    4    2    1        3       0.575   1.726   0.000  -2.301  -0.000   0.000
   17    1    2    4        3       0.575   1.726   0.000  -2.301  -0.000   0.000
   18    1    2    4        3       0.575   1.726   0.000  -2.301  -0.000   0.000
   19    4    2    1        3       0.575   1.726   0.000  -2.301  -0.000   0.000
   16    1    2    4        3       0.575   1.726   0.000  -2.301  -0.000   0.000
   16    1    2    3        3       0.000   0.000   0.000  -0.000  -0.000   0.000
   19    4    2    3        3       0.000   0.000   0.000  -0.000  -0.000   0.000
   18    1    2    3        3       0.000   0.000   0.000  -0.000  -0.000   0.000
   17    1    2    3        3       0.000   0.000   0.000  -0.000  -0.000   0.000
   20    4    2    3        3       0.000   0.000   0.000  -0.000  -0.000   0.000
   22    5    4    2        3      -0.209  -0.628   0.000   0.837  -0.000   0.000
   21    5    4    2        3      -0.209  -0.628   0.000   0.837  -0.000   0.000
   27    8    7    6        3       0.628   1.883   0.000  -2.510  -0.000   0.000
   28    9    7   10        3       0.628   1.883   0.000  -2.510  -0.000   0.000
   38   14   13   12        3       0.628   1.883   0.000  -2.510  -0.000   0.000
   26    8    7    9        3       0.628   1.883   0.000  -2.510  -0.000   0.000
   19    4    5    6        3       0.628   1.883   0.000  -2.510  -0.000   0.000
   25    8    7   10        3       0.628   1.883   0.000  -2.510  -0.000   0.000
   36   13   14   15        3       0.628   1.883   0.000  -2.510  -0.000   0.000
   41   15   10   11        3       0.628   1.883   0.000  -2.510  -0.000   0.000
   31   10    7    6        3       0.628   1.883   0.000  -2.510  -0.000   0.000
   33   11   10   15        3       0.628   1.883   0.000  -2.510  -0.000   0.000
   37   13   14   15        3       0.628   1.883   0.000  -2.510  -0.000   0.000
   31   10   15   14        3       0.628   1.883   0.000  -2.510  -0.000   0.000
   26    8    7    6        3       0.628   1.883   0.000  -2.510  -0.000   0.000
   41   15   14   13        3       0.628   1.883   0.000  -2.510  -0.000   0.000
   24    6    5    4        3       0.628   1.883   0.000  -2.510  -0.000   0.000
   26    8    7   10        3       0.628   1.883   0.000  -2.510  -0.000   0.000
   35   12   13   14        3       0.628   1.883   0.000  -2.510  -0.000   0.000
   20    4    5    6        3       0.628   1.883   0.000  -2.510  -0.000   0.000
   34   12   11   10        3       0.628   1.883   0.000  -2.510  -0.000   0.000
   29    9    7   10        3       0.628   1.883   0.000  -2.510  -0.000   0.000
   31   10    7    9        3       0.628   1.883   0.000  -2.510  -0.000   0.000
   30    9    7    8        3       0.628   1.883   0.000  -2.510  -0.000   0.000
   33   11   10    7        3       0.628   1.883   0.000  -2.510  -0.000   0.000
   21    5    6    7        3       0.628   1.883   0.000  -2.510  -0.000   0.000
   37   13   12   11        3       0.628   1.883   0.000  -2.510  -0.000   0.000
   29    9    7    6        3       0.628   1.883   0.000  -2.510  -0.000   0.000
   34   12   13   14        3       0.628   1.883   0.000  -2.510  -0.000   0.000
   22    5    6    7        3       0.628   1.883   0.000  -2.510  -0.000   0.000
   39   14   13   12        3       0.628   1.883   0.000  -2.510  -0.000   0.000
   40   15   10   11        3       0.628   1.883   0.000  -2.510  -0.000   0.000
   27    8    7    9        3       0.628   1.883   0.000  -2.510  -0.000   0.000
   28    9    7    8        3       0.628   1.883   0.000  -2.510  -0.000   0.000
   28    9    7    6        3       0.628   1.883   0.000  -2.510  -0.000   0.000
   33   11   12   13        3       0.628   1.883   0.000  -2.510  -0.000   0.000
   25    8    7    9        3       0.628   1.883   0.000  -2.510  -0.000   0.000
   25    8    7    6        3       0.628   1.883   0.000  -2.510  -0.000   0.000
   30    9    7    6        3       0.628   1.883   0.000  -2.510  -0.000   0.000
   32   11   10   15        3       0.628   1.883   0.000  -2.510  -0.000   0.000
   23    6    7    8        3       0.628   1.883   0.000  -2.510  -0.000   0.000
   32   11   12   13        3       0.628   1.883   0.000  -2.510  -0.000   0.000
   40   15   10    7        3       0.628   1.883   0.000  -2.510  -0.000   0.000
   24    6    7   10        3       0.628   1.883   0.000  -2.510  -0.000   0.000
   30    9    7   10        3       0.628   1.883   0.000  -2.510  -0.000   0.000
   36   13   12   11        3       0.628   1.883   0.000  -2.510  -0.000   0.000
   23    6    7    9        3       0.628   1.883   0.000  -2.510  -0.000   0.000
   23    6    7   10        3       0.628   1.883   0.000  -2.510  -0.000   0.000
   23    6    5    4        3       0.628   1.883   0.000  -2.510  -0.000   0.000
   35   12   11   10        3       0.628   1.883   0.000  -2.510  -0.000   0.000
   32   11   10    7        3       0.628   1.883   0.000  -2.510  -0.000   0.000
   24    6    7    9        3       0.628   1.883   0.000  -2.510  -0.000   0.000
   41   15   10    7        3       0.628   1.883   0.000  -2.510  -0.000   0.000
   40   15   14   13        3       0.628   1.883   0.000  -2.510  -0.000   0.000
   31   10    7    8        3       0.628   1.883   0.000  -2.510  -0.000   0.000
   29    9    7    8        3       0.628   1.883   0.000  -2.510  -0.000   0.000
   27    8    7   10        3       0.628   1.883   0.000  -2.510  -0.000   0.000
   38   14   15   10        3       0.628   1.883   0.000  -2.510  -0.000   0.000
   39   14   15   10        3       0.628   1.883   0.000  -2.510  -0.000   0.000
   31   10   11   12        3       0.628   1.883   0.000  -2.510  -0.000   0.000
   24    6    7    8        3       0.628   1.883   0.000  -2.510  -0.000   0.000
   24    6    5   21        3       0.628   1.883   0.000  -2.510  -0.000   0.000
   23    6    5   22        3       0.628   1.883   0.000  -2.510  -0.000   0.000
   23    6    5   21        3       0.628   1.883   0.000  -2.510  -0.000   0.000
   22    5    4   20        3       0.628   1.883   0.000  -2.510  -0.000   0.000
   39   14   13   36        3       0.628   1.883   0.000  -2.510  -0.000   0.000
   39   14   13   37        3       0.628   1.883   0.000  -2.510  -0.000   0.000
   40   15   10   31        3       0.628   1.883   0.000  -2.510  -0.000   0.000
   21    5    4   20        3       0.628   1.883   0.000  -2.510  -0.000   0.000
   40   15   14   38        3       0.628   1.883   0.000  -2.510  -0.000   0.000
   37   13   12   35        3       0.628   1.883   0.000  -2.510  -0.000   0.000
   24    6    5   22        3       0.628   1.883   0.000  -2.510  -0.000   0.000
   35   12   11   33        3       0.628   1.883   0.000  -2.510  -0.000   0.000
   22    5    4   19        3       0.628   1.883   0.000  -2.510  -0.000   0.000
   35   12   11   32        3       0.628   1.883   0.000  -2.510  -0.000   0.000
   34   12   11   33        3       0.628   1.883   0.000  -2.510  -0.000   0.000
   37   13   12   34        3       0.628   1.883   0.000  -2.510  -0.000   0.000
   36   13   12   35        3       0.628   1.883   0.000  -2.510  -0.000   0.000
   34   12   11   32        3       0.628   1.883   0.000  -2.510  -0.000   0.000
   41   15   14   38        3       0.628   1.883   0.000  -2.510  -0.000   0.000
   40   15   14   39        3       0.628   1.883   0.000  -2.510  -0.000   0.000
   36   13   12   34        3       0.628   1.883   0.000  -2.510  -0.000   0.000
   38   14   13   36        3       0.628   1.883   0.000  -2.510  -0.000   0.000
   41   15   14   39        3       0.628   1.883   0.000  -2.510  -0.000   0.000
   33   11   10   31        3       0.628   1.883   0.000  -2.510  -0.000   0.000
   41   15   10   31        3       0.628   1.883   0.000  -2.510  -0.000   0.000
   38   14   13   37        3       0.628   1.883   0.000  -2.510  -0.000   0.000
   21    5    4   19        3       0.628   1.883   0.000  -2.510  -0.000   0.000
   32   11   10   31        3       0.628   1.883   0.000  -2.510  -0.000   0.000

[ pairs ]
     1     5    1
     3     5    1
     2     6    1
     4     7    1
     5     8    1
     5     9    1
     5    10    1
     6    11    1
     8    11    1
     7    12    1
     3    16    1
     9    11    1
     4    16    1
     3    17    1
     1    19    1
     7    14    1
     6    15    1
     4    17    1
     3    18    1
     1    20    1
     4    18    1
     3    19    1
    10    13    1
     8    15    1
     3    20    1
     2    21    1
     9    15    1
     2    22    1
    11    14    1
     6    19    1
     6    20    1
    12    15    1
     4    23    1
     7    21    1
     4    24    1
     7    22    1
     8    23    1
     6    25    1
     9    23    1
     8    24    1
     6    26    1
    10    23    1
     9    24    1
     6    27    1
    10    24    1
     9    25    1
     6    28    1
    10    25    1
     9    26    1
     6    29    1
    10    26    1
     9    27    1
     8    28    1
     6    30    1
    10    27    1
     8    29    1
     6    31    1
    10    28    1
     8    30    1
    10    29    1
     8    31    1
     7    32    1
    19    21    1
    10    30    1
     9    31    1
     7    33    1
    20    21    1
    19    22    1
    20    22    1
    12    31    1
    21    23    1
    10    34    1
    22    23    1
    21    24    1
    14    31    1
    13    32    1
    10    35    1
    22    24    1
    13    33    1
    15    32    1
    11    36    1
     7    40    1
    15    33    1
    14    34    1
    11    37    1
    10    38    1
     7    41    1
    14    35    1
    10    39    1
    12    38    1
    15    36    1
    12    39    1
    11    40    1
    15    37    1
    11    41    1
    13    40    1
    13    41    1
    31    32    1
    31    33    1
    32    34    1
    33    34    1
    32    35    1
    33    35    1
    34    36    1
    35    36    1
    34    37    1
    31    40    1
    35    37    1
    31    41    1
    36    38    1
    37    38    1
    36    39    1
    37    39    1
    38    40    1
    39    40    1
    38    41    1
    39    41    1

