LIGPARGEN GENERATED GRO FILE
   41
    1UNK    C00    1   0.100   0.100   0.000
    1UNK    C01    2  -0.051   0.100   0.000
    1UNK    O02    3  -0.114   0.100   0.106
    1UNK    C03    4  -0.118   0.100  -0.136
    1UNK    C04    5  -0.270   0.100  -0.125
    1UNK    C05    6  -0.338   0.100  -0.264
    1UNK    C06    7  -0.495   0.100  -0.264
    1UNK    C07    8  -0.544  -0.024  -0.186
    1UNK    C08    9  -0.544   0.225  -0.186
    1UNK    C09   10  -0.547   0.108  -0.414
    1UNK    C0A   11  -0.504  -0.005  -0.510
    1UNK    C0B   12  -0.588  -0.132  -0.503
    1UNK    C0C   13  -0.738  -0.106  -0.511
    1UNK    C0D   14  -0.786   0.009  -0.423
    1UNK    C0E   15  -0.698   0.133  -0.436
    1UNK    H0F   16   0.137   0.100   0.103
    1UNK    H0G   17   0.136   0.190  -0.051
    1UNK    H0H   18   0.136   0.010  -0.051
    1UNK    H0I   19  -0.085   0.011  -0.190
    1UNK    H0J   20  -0.084   0.189  -0.191
    1UNK    H0K   21  -0.301   0.188  -0.068
    1UNK    H0M   22  -0.301   0.012  -0.068
    1UNK    H0N   23  -0.302   0.011  -0.317
    1UNK    H0O   24  -0.302   0.187  -0.320
    1UNK    H0P   25  -0.512  -0.021  -0.082
    1UNK    H0Q   26  -0.503  -0.116  -0.228
    1UNK    H0R   27  -0.652  -0.031  -0.182
    1UNK    H0S   28  -0.511   0.224  -0.082
    1UNK    H0T   29  -0.654   0.229  -0.181
    1UNK    H0U   30  -0.508   0.317  -0.233
    1UNK    H0V   31  -0.498   0.199  -0.454
    1UNK    H0W   32  -0.398  -0.030  -0.498
    1UNK    H0X   33  -0.512   0.034  -0.612
    1UNK    H0Y   34  -0.565  -0.188  -0.412
    1UNK    H0Z   35  -0.560  -0.198  -0.586
    1UNK    H10   36  -0.792  -0.197  -0.483
    1UNK    H11   37  -0.765  -0.084  -0.615
    1UNK    H12   38  -0.793  -0.023  -0.319
    1UNK    H13   39  -0.888   0.035  -0.452
    1UNK    H14   40  -0.736   0.213  -0.371
    1UNK    H15   41  -0.711   0.171  -0.538
   1.00000   1.00000   1.00000

