LIGPARGEN GENERATED GRO FILE
   28
    1UNK    C00    1   0.100   0.100   0.000
    1UNK    C01    2  -0.054   0.100   0.000
    1UNK    C02    3  -0.099   0.100   0.147
    1UNK    C03    4  -0.125   0.215  -0.077
    1UNK    C04    5  -0.088   0.356  -0.028
    1UNK    C05    6  -0.154   0.446  -0.130
    1UNK    C06    7  -0.126   0.377  -0.263
    1UNK    C07    8  -0.111   0.226  -0.232
    1UNK    C08    9   0.021   0.177  -0.292
    1UNK    C09   10  -0.221   0.151  -0.306
    1UNK    N0A   11  -0.312   0.089  -0.368
    1UNK    H0B   12   0.139   0.031   0.076
    1UNK    H0C   13   0.142   0.199   0.021
    1UNK    H0D   14   0.141   0.064  -0.095
    1UNK    H0E   15  -0.087   0.005  -0.044
    1UNK    H0F   16  -0.061   0.188   0.201
    1UNK    H0G   17  -0.062   0.011   0.199
    1UNK    H0H   18  -0.208   0.099   0.155
    1UNK    H0I   19  -0.232   0.202  -0.056
    1UNK    H0J   20   0.020   0.372  -0.028
    1UNK    H0K   21  -0.126   0.377   0.073
    1UNK    H0M   22  -0.114   0.548  -0.128
    1UNK    H0N   23  -0.262   0.452  -0.113
    1UNK    H0O   24  -0.032   0.417  -0.304
    1UNK    H0P   25  -0.205   0.400  -0.335
    1UNK    H0Q   26   0.107   0.227  -0.246
    1UNK    H0R   27   0.026   0.199  -0.400
    1UNK    H0S   28   0.033   0.069  -0.282
   1.00000   1.00000   1.00000

