LIGPARGEN GENERATED GRO FILE
   20
    1UNK    C00    1   0.100   0.100   0.000
    1UNK    C01    2  -0.053   0.100   0.000
    1UNK    C02    3  -0.104   0.100   0.144
    1UNK    F03    4  -0.240   0.090   0.144
    1UNK    C04    5  -0.112   0.220  -0.077
    1UNK    C05    6  -0.075   0.221  -0.226
    1UNK    C06    7  -0.136   0.341  -0.297
    1UNK    F07    8  -0.085   0.455  -0.243
    1UNK    H08    9   0.139   0.017   0.060
    1UNK    H09   10   0.140   0.193   0.042
    1UNK    H0A   11   0.140   0.088  -0.101
    1UNK    H0B   12  -0.088   0.008  -0.048
    1UNK    H0C   13  -0.077   0.192   0.197
    1UNK    H0D   14  -0.065   0.014   0.200
    1UNK    H0E   15  -0.078   0.314  -0.030
    1UNK    H0F   16  -0.221   0.218  -0.068
    1UNK    H0G   17  -0.110   0.129  -0.273
    1UNK    H0H   18   0.034   0.226  -0.237
    1UNK    H0I   19  -0.244   0.344  -0.287
    1UNK    H0J   20  -0.109   0.340  -0.403
   1.00000   1.00000   1.00000

