
;
; GENERATED BY LigParGen Server
; Jorgensen Lab @ Yale University 
;
[ atomtypes ]
  opls_810  H810     1.0080     0.000    A    2.50000E-01   1.25520E-01
  opls_802  C802    12.0110     0.000    A    3.50000E-01   2.76144E-01
  opls_818  H818     1.0080     0.000    A    2.50000E-01   1.25520E-01
  opls_800  C800    12.0110     0.000    A    3.50000E-01   2.76144E-01
  opls_801  C801    12.0110     0.000    A    3.50000E-01   2.76144E-01
  opls_814  H814     1.0080     0.000    A    2.50000E-01   1.25520E-01
  opls_808  H808     1.0080     0.000    A    2.50000E-01   1.25520E-01
  opls_804  C804    12.0110     0.000    A    3.50000E-01   2.76144E-01
  opls_806  C806    12.0110     0.000    A    3.50000E-01   2.76144E-01
  opls_812  H812     1.0080     0.000    A    2.50000E-01   1.25520E-01
  opls_809  H809     1.0080     0.000    A    2.50000E-01   1.25520E-01
  opls_819  H819     1.0080     0.000    A    2.50000E-01   1.25520E-01
  opls_817  H817     1.0080     0.000    A    2.50000E-01   1.25520E-01
  opls_805  C805    12.0110     0.000    A    3.50000E-01   2.76144E-01
  opls_816  H816     1.0080     0.000    A    2.50000E-01   1.25520E-01
  opls_813  H813     1.0080     0.000    A    2.50000E-01   1.25520E-01
  opls_807  F807    18.9984     0.000    A    2.90000E-01   2.51040E-01
  opls_811  H811     1.0080     0.000    A    2.50000E-01   1.25520E-01
  opls_803  F803    18.9984     0.000    A    2.90000E-01   2.51040E-01
  opls_815  H815     1.0080     0.000    A    2.50000E-01   1.25520E-01
[ moleculetype ]
; Name               nrexcl
UNK                   3
[ atoms ]
;   nr       type  resnr residue  atom   cgnr     charge       mass  
     1   opls_800      1    UNK   C00      1    -0.2362    12.0110 
     2   opls_801      1    UNK   C01      1     -0.157    12.0110 
     3   opls_802      1    UNK   C02      1     0.0117    12.0110 
     4   opls_803      1    UNK   F03      1    -0.1879    18.9984 
     5   opls_804      1    UNK   C04      1    -0.1759    12.0110 
     6   opls_805      1    UNK   C05      1     -0.221    12.0110 
     7   opls_806      1    UNK   C06      1     0.0106    12.0110 
     8   opls_807      1    UNK   F07      1    -0.1873    18.9984 
     9   opls_808      1    UNK   H08      1     0.0868     1.0080 
    10   opls_809      1    UNK   H09      1     0.0868     1.0080 
    11   opls_810      1    UNK   H0A      1     0.0868     1.0080 
    12   opls_811      1    UNK   H0B      1     0.1114     1.0080 
    13   opls_812      1    UNK   H0C      1     0.0891     1.0080 
    14   opls_813      1    UNK   H0D      1     0.0891     1.0080 
    15   opls_814      1    UNK   H0E      1     0.1047     1.0080 
    16   opls_815      1    UNK   H0F      1     0.1047     1.0080 
    17   opls_816      1    UNK   H0G      1     0.1038     1.0080 
    18   opls_817      1    UNK   H0H      1     0.1038     1.0080 
    19   opls_818      1    UNK   H0I      1     0.0879     1.0080 
    20   opls_819      1    UNK   H0J      1     0.0879     1.0080 
[ bonds ]
    2     1     1      0.1529 224262.400
    3     2     1      0.1529 224262.400
    4     3     1      0.1360 307105.600
    5     2     1      0.1529 224262.400
    6     5     1      0.1529 224262.400
    7     6     1      0.1529 224262.400
    8     7     1      0.1360 307105.600
    9     1     1      0.1090 284512.000
   10     1     1      0.1090 284512.000
   11     1     1      0.1090 284512.000
   12     2     1      0.1090 284512.000
   13     3     1      0.1090 284512.000
   14     3     1      0.1090 284512.000
   15     5     1      0.1090 284512.000
   16     5     1      0.1090 284512.000
   17     6     1      0.1090 284512.000
   18     6     1      0.1090 284512.000
   19     7     1      0.1090 284512.000
   20     7     1      0.1090 284512.000

[ angles ]
;  ai    aj    ak funct            c0            c1            c2            c3 
    1     2     3     1    112.700    488.273
    2     3     4     1    109.500    418.400
    1     2     5     1    112.700    488.273
    2     5     6     1    112.700    488.273
    5     6     7     1    112.700    488.273
    6     7     8     1    109.500    418.400
    2     1     9     1    110.700    313.800
    2     1    10     1    110.700    313.800
    2     1    11     1    110.700    313.800
    1     2    12     1    110.700    313.800
    2     3    13     1    110.700    313.800
    2     3    14     1    110.700    313.800
    2     5    15     1    110.700    313.800
    2     5    16     1    110.700    313.800
    5     6    17     1    110.700    313.800
    5     6    18     1    110.700    313.800
    6     7    19     1    110.700    313.800
    6     7    20     1    110.700    313.800
    7     6    17     1    110.700    313.800
   15     5    16     1    107.800    276.144
    7     6    18     1    110.700    313.800
   17     6    18     1    107.800    276.144
   13     3    14     1    107.800    276.144
    5     2    12     1    110.700    313.800
    8     7    19     1    107.000    334.720
    3     2     5     1    112.700    488.273
    3     2    12     1    110.700    313.800
   19     7    20     1    107.800    276.144
    6     5    16     1    110.700    313.800
   10     1    11     1    107.800    276.144
    9     1    10     1    107.800    276.144
    9     1    11     1    107.800    276.144
    4     3    14     1    107.000    334.720
    4     3    13     1    107.000    334.720
    6     5    15     1    110.700    313.800
    8     7    20     1    107.000    334.720

[ dihedrals ]
; IMPROPER DIHEDRAL ANGLES 
;  ai    aj    ak    al funct            c0            c1            c2            c3            c4            c5

[ dihedrals ]
; PROPER DIHEDRAL ANGLES
;  ai    aj    ak    al funct            c0            c1            c2            c3            c4            c5
    6    5    2    3        3       2.301  -1.464   0.837  -1.674  -0.000   0.000
    6    5    2    1        3       2.301  -1.464   0.837  -1.674  -0.000   0.000
    7    6    5    2        3       2.301  -1.464   0.837  -1.674  -0.000   0.000
    5    2    3    4        3      -0.209   1.883   1.674  -3.347  -0.000   0.000
    4    3    2    1        3      -0.209   1.883   1.674  -3.347  -0.000   0.000
    8    7    6    5        3      -0.209   1.883   1.674  -3.347  -0.000   0.000
   14    3    2    1        3       0.628   1.883   0.000  -2.510  -0.000   0.000
   19    7    6    5        3       0.628   1.883   0.000  -2.510  -0.000   0.000
   10    1    2    5        3       0.628   1.883   0.000  -2.510  -0.000   0.000
   18    6    5    2        3       0.628   1.883   0.000  -2.510  -0.000   0.000
   17    6    5    2        3       0.628   1.883   0.000  -2.510  -0.000   0.000
   16    5    2    3        3       0.628   1.883   0.000  -2.510  -0.000   0.000
   15    5    6    7        3       0.628   1.883   0.000  -2.510  -0.000   0.000
   13    3    2    5        3       0.628   1.883   0.000  -2.510  -0.000   0.000
   11    1    2    5        3       0.628   1.883   0.000  -2.510  -0.000   0.000
   15    5    2    3        3       0.628   1.883   0.000  -2.510  -0.000   0.000
   12    2    5    6        3       0.628   1.883   0.000  -2.510  -0.000   0.000
   10    1    2    3        3       0.628   1.883   0.000  -2.510  -0.000   0.000
   13    3    2    1        3       0.628   1.883   0.000  -2.510  -0.000   0.000
   16    5    2    1        3       0.628   1.883   0.000  -2.510  -0.000   0.000
   20    7    6    5        3       0.628   1.883   0.000  -2.510  -0.000   0.000
   11    1    2    3        3       0.628   1.883   0.000  -2.510  -0.000   0.000
   15    5    2    1        3       0.628   1.883   0.000  -2.510  -0.000   0.000
    9    1    2    3        3       0.628   1.883   0.000  -2.510  -0.000   0.000
    9    1    2    5        3       0.628   1.883   0.000  -2.510  -0.000   0.000
   14    3    2    5        3       0.628   1.883   0.000  -2.510  -0.000   0.000
   16    5    6    7        3       0.628   1.883   0.000  -2.510  -0.000   0.000
   17    6    7    8        3       0.837   2.510   0.000  -3.347  -0.000   0.000
   12    2    3    4        3       0.837   2.510   0.000  -3.347  -0.000   0.000
   18    6    7    8        3       0.837   2.510   0.000  -3.347  -0.000   0.000
   12    2    1   11        3       0.628   1.883   0.000  -2.510  -0.000   0.000
   20    7    6   18        3       0.628   1.883   0.000  -2.510  -0.000   0.000
   19    7    6   18        3       0.628   1.883   0.000  -2.510  -0.000   0.000
   17    6    5   16        3       0.628   1.883   0.000  -2.510  -0.000   0.000
   19    7    6   17        3       0.628   1.883   0.000  -2.510  -0.000   0.000
   15    5    2   12        3       0.628   1.883   0.000  -2.510  -0.000   0.000
   17    6    5   15        3       0.628   1.883   0.000  -2.510  -0.000   0.000
   13    3    2   12        3       0.628   1.883   0.000  -2.510  -0.000   0.000
   12    2    1   10        3       0.628   1.883   0.000  -2.510  -0.000   0.000
   12    2    1    9        3       0.628   1.883   0.000  -2.510  -0.000   0.000
   14    3    2   12        3       0.628   1.883   0.000  -2.510  -0.000   0.000
   20    7    6   17        3       0.628   1.883   0.000  -2.510  -0.000   0.000
   18    6    5   16        3       0.628   1.883   0.000  -2.510  -0.000   0.000
   18    6    5   15        3       0.628   1.883   0.000  -2.510  -0.000   0.000
   16    5    2   12        3       0.628   1.883   0.000  -2.510  -0.000   0.000

[ pairs ]
     1     4    1
     1     6    1
     4     5    1
     3     6    1
     2     7    1
     3     9    1
     5     8    1
     3    10    1
     5     9    1
     3    11    1
     1    13    1
     5    10    1
     1    14    1
     5    11    1
     4    12    1
     1    15    1
     1    16    1
     6    12    1
     5    13    1
     3    15    1
     5    14    1
     3    16    1
     2    17    1
     2    18    1
     9    12    1
    10    12    1
     7    15    1
    11    12    1
     7    16    1
     5    19    1
    12    13    1
     8    17    1
     5    20    1
    12    14    1
     8    18    1
    12    15    1
    12    16    1
    15    17    1
    16    17    1
    15    18    1
    16    18    1
    17    19    1
    18    19    1
    17    20    1
    18    20    1

