LIGPARGEN GENERATED GRO FILE
   43
    1UNK    C00    1   0.100   0.100   0.000
    1UNK    O01    2  -0.042   0.100   0.000
    1UNK    C02    3  -0.093   0.100   0.133
    1UNK    C03    4  -0.246   0.100   0.133
    1UNK    C04    5  -0.303  -0.020   0.056
    1UNK    C05    6  -0.302   0.107   0.279
    1UNK    C06    7  -0.277   0.244   0.351
    1UNK    C07    8  -0.342   0.342   0.255
    1UNK    N08    9  -0.396   0.423   0.175
    1UNK    C09   10  -0.331   0.255   0.495
    1UNK    C0A   11  -0.285   0.138   0.587
    1UNK    N0B   12  -0.329   0.145   0.729
    1UNK    C0C   13  -0.474   0.138   0.743
    1UNK    C0D   14  -0.267   0.037   0.808
    1UNK    O0E   15  -0.271   0.375   0.549
    1UNK    C0F   16  -0.353   0.468   0.602
    1UNK    O0G   17  -0.475   0.463   0.605
    1UNK    O0H   18  -0.276   0.568   0.651
    1UNK    C0I   19  -0.351   0.674   0.711
    1UNK    H0J   20   0.135   0.100  -0.103
    1UNK    H0K   21   0.138   0.010   0.050
    1UNK    H0M   22   0.138   0.190   0.050
    1UNK    H0N   23  -0.056   0.190   0.183
    1UNK    H0O   24  -0.056   0.012   0.186
    1UNK    H0P   25  -0.279   0.187   0.074
    1UNK    H0Q   26  -0.289  -0.113   0.112
    1UNK    H0R   27  -0.256  -0.031  -0.042
    1UNK    H0S   28  -0.411  -0.007   0.039
    1UNK    H0T   29  -0.257   0.025   0.336
    1UNK    H0U   30  -0.410   0.089   0.276
    1UNK    H0V   31  -0.169   0.266   0.352
    1UNK    H0W   32  -0.440   0.260   0.493
    1UNK    H0X   33  -0.175   0.137   0.587
    1UNK    H0Y   34  -0.318   0.042   0.545
    1UNK    H0Z   35  -0.519   0.235   0.720
    1UNK    H10   36  -0.504   0.115   0.846
    1UNK    H11   37  -0.519   0.062   0.677
    1UNK    H12   38  -0.158   0.046   0.808
    1UNK    H13   39  -0.294  -0.063   0.770
    1UNK    H14   40  -0.298   0.043   0.913
    1UNK    H15   41  -0.282   0.756   0.731
    1UNK    H16   42  -0.394   0.641   0.805
    1UNK    H17   43  -0.428   0.710   0.643
   1.00000   1.00000   1.00000

