LIGPARGEN GENERATED GRO FILE
   46
    1UNK    C00    1   0.100   0.100   0.000
    1UNK    C01    2  -0.052   0.100   0.000
    1UNK    C02    3  -0.112   0.100   0.141
    1UNK    C03    4  -0.264   0.100   0.130
    1UNK    O04    5  -0.330   0.094   0.257
    1UNK    C05    6  -0.396   0.207   0.290
    1UNK    O06    7  -0.368   0.320   0.252
    1UNK    O07    8  -0.507   0.172   0.361
    1UNK    C08    9  -0.606   0.275   0.379
    1UNK    C09   10  -0.719   0.257   0.276
    1UNK    C0A   11  -0.827   0.366   0.292
    1UNK    C0B   12  -0.951   0.353   0.200
    1UNK    C0C   13  -0.906   0.363   0.052
    1UNK    O0D   14  -1.007   0.220   0.210
    1UNK    C0E   15  -1.073   0.186   0.331
    1UNK    C0F   16  -1.059   0.464   0.232
    1UNK    C0G   17  -1.007   0.608   0.223
    1UNK    C0H   18  -1.186   0.453   0.145
    1UNK    H0I   19   0.137   0.100  -0.103
    1UNK    H0J   20   0.139   0.011   0.050
    1UNK    H0K   21   0.140   0.189   0.050
    1UNK    H0M   22  -0.087   0.012  -0.055
    1UNK    H0N   23  -0.087   0.188  -0.055
    1UNK    H0O   24  -0.078   0.188   0.197
    1UNK    H0P   25  -0.078   0.012   0.197
    1UNK    H0Q   26  -0.296   0.010   0.075
    1UNK    H0R   27  -0.298   0.186   0.071
    1UNK    H0S   28  -0.562   0.375   0.371
    1UNK    H0T   29  -0.645   0.264   0.480
    1UNK    H0U   30  -0.762   0.157   0.287
    1UNK    H0V   31  -0.676   0.261   0.175
    1UNK    H0W   32  -0.778   0.463   0.276
    1UNK    H0X   33  -0.860   0.366   0.397
    1UNK    H0Y   34  -0.838   0.282   0.026
    1UNK    H0Z   35  -0.855   0.458   0.031
    1UNK    H10   36  -0.990   0.353  -0.017
    1UNK    H11   37  -1.088   0.078   0.332
    1UNK    H12   38  -1.171   0.234   0.337
    1UNK    H13   39  -1.014   0.213   0.419
    1UNK    H14   40  -1.091   0.449   0.336
    1UNK    H15   41  -0.973   0.633   0.122
    1UNK    H16   42  -0.924   0.625   0.293
    1UNK    H17   43  -1.086   0.679   0.250
    1UNK    H18   44  -1.166   0.480   0.041
    1UNK    H19   45  -1.263   0.521   0.182
    1UNK    H1A   46  -1.228   0.352   0.147
   1.00000   1.00000   1.00000

