LIGPARGEN GENERATED GRO FILE
   28
    1UNK    C00    1   0.100   0.100   0.000
    1UNK    C01    2  -0.054   0.100   0.000
    1UNK    C02    3  -0.099   0.100   0.141
    1UNK    N03    4  -0.135   0.095   0.250
    1UNK    C04    5  -0.125  -0.022  -0.074
    1UNK    C05    6  -0.074   0.040  -0.203
    1UNK    C06    7  -0.164   0.123  -0.287
    1UNK    O07    8  -0.145   0.133  -0.428
    1UNK    C08    9  -0.141   0.267  -0.454
    1UNK    O09   10  -0.143   0.317  -0.565
    1UNK    O0A   11  -0.134   0.338  -0.335
    1UNK    C0B   12  -0.077   0.255  -0.229
    1UNK    C0C   13  -0.007   0.366  -0.153
    1UNK    C0D   14  -0.139   0.183  -0.104
    1UNK    C0E   15  -0.260   0.251  -0.042
    1UNK    H0F   16   0.139   0.006   0.042
    1UNK    H0G   17   0.139   0.182   0.062
    1UNK    H0H   18   0.143   0.112  -0.100
    1UNK    H0I   19  -0.234  -0.033  -0.067
    1UNK    H0J   20  -0.081  -0.120  -0.052
    1UNK    H0K   21  -0.089  -0.049  -0.265
    1UNK    H0M   22  -0.272   0.114  -0.267
    1UNK    H0N   23   0.065   0.417  -0.219
    1UNK    H0O   24   0.049   0.337  -0.065
    1UNK    H0P   25  -0.079   0.443  -0.122
    1UNK    H0Q   26  -0.315   0.312  -0.113
    1UNK    H0R   27  -0.225   0.320   0.037
    1UNK    H0S   28  -0.328   0.180   0.005
   1.00000   1.00000   1.00000

