
;
; GENERATED BY LigParGen Server
; Jorgensen Lab @ Yale University 
;
[ atomtypes ]
  opls_818  H818     1.0080     0.000    A    2.50000E-01   1.25520E-01
  opls_804  C804    12.0110     0.000    A    3.45000E-01   3.47272E-01
  opls_814  C814    12.0110     0.000    A    3.50000E-01   2.76144E-01
  opls_802  C802    12.0110     0.000    A    3.30000E-01   2.76144E-01
  opls_824  H824     1.0080     0.000    A    2.50000E-01   1.25520E-01
  opls_806  C806    12.0110     0.000    A    3.45000E-01   3.47272E-01
  opls_810  O810    15.9990     0.000    A    2.90000E-01   5.85760E-01
  opls_805  C805    12.0110     0.000    A    3.45000E-01   3.47272E-01
  opls_815  H815     1.0080     0.000    A    2.50000E-01   1.25520E-01
  opls_812  C812    12.0110     0.000    A    3.50000E-01   2.76144E-01
  opls_822  H822     1.0080     0.000    A    2.50000E-01   1.25520E-01
  opls_825  H825     1.0080     0.000    A    2.50000E-01   1.25520E-01
  opls_826  H826     1.0080     0.000    A    2.50000E-01   1.25520E-01
  opls_809  O809    15.9990     0.000    A    2.96000E-01   8.78640E-01
  opls_821  H821     1.0080     0.000    A    2.50000E-01   1.25520E-01
  opls_820  H820     1.0080     0.000    A    2.50000E-01   1.25520E-01
  opls_816  H816     1.0080     0.000    A    2.50000E-01   1.25520E-01
  opls_800  C800    12.0110     0.000    A    3.50000E-01   2.76144E-01
  opls_813  C813    12.0110     0.000    A    3.45000E-01   3.47272E-01
  opls_823  H823     1.0080     0.000    A    2.50000E-01   1.25520E-01
  opls_811  C811    12.0110     0.000    A    3.45000E-01   3.47272E-01
  opls_819  H819     1.0080     0.000    A    2.50000E-01   1.25520E-01
  opls_827  H827     1.0080     0.000    A    2.50000E-01   1.25520E-01
  opls_807  O807    15.9990     0.000    A    2.90000E-01   5.85760E-01
  opls_817  H817     1.0080     0.000    A    2.50000E-01   1.25520E-01
  opls_801  C801    12.0110     0.000    A    3.45000E-01   3.47272E-01
  opls_803  N803    14.0070     0.000    A    3.20000E-01   7.11280E-01
  opls_808  C808    12.0110     0.000    A    3.55000E-01   2.92880E-01
[ moleculetype ]
; Name               nrexcl
UNK                   3
[ atoms ]
;   nr       type  resnr residue  atom   cgnr     charge       mass  
     1   opls_800      1    UNK   C00      1    -0.1992    12.0110 
     2   opls_801      1    UNK   C01      1     0.0801    12.0110 
     3   opls_802      1    UNK   C02      1     0.1145    12.0110 
     4   opls_803      1    UNK   N03      1    -0.3486    14.0070 
     5   opls_804      1    UNK   C04      1    -0.2304    12.0110 
     6   opls_805      1    UNK   C05      1    -0.3751    12.0110 
     7   opls_806      1    UNK   C06      1     0.0661    12.0110 
     8   opls_807      1    UNK   O07      1    -0.3275    15.9990 
     9   opls_808      1    UNK   C08      1     0.5891    12.0110 
    10   opls_809      1    UNK   O09      1    -0.3756    15.9990 
    11   opls_810      1    UNK   O0A      1     -0.406    15.9990 
    12   opls_811      1    UNK   C0B      1     0.1414    12.0110 
    13   opls_812      1    UNK   C0C      1    -0.1971    12.0110 
    14   opls_813      1    UNK   C0D      1     0.0267    12.0110 
    15   opls_814      1    UNK   C0E      1    -0.2558    12.0110 
    16   opls_815      1    UNK   H0F      1     0.1095     1.0080 
    17   opls_816      1    UNK   H0G      1     0.1095     1.0080 
    18   opls_817      1    UNK   H0H      1     0.1095     1.0080 
    19   opls_818      1    UNK   H0I      1     0.1227     1.0080 
    20   opls_819      1    UNK   H0J      1     0.1227     1.0080 
    21   opls_820      1    UNK   H0K      1     0.2293     1.0080 
    22   opls_821      1    UNK   H0M      1     0.1581     1.0080 
    23   opls_822      1    UNK   H0N      1     0.1207     1.0080 
    24   opls_823      1    UNK   H0O      1     0.1207     1.0080 
    25   opls_824      1    UNK   H0P      1     0.1207     1.0080 
    26   opls_825      1    UNK   H0Q      1     0.1246     1.0080 
    27   opls_826      1    UNK   H0R      1     0.1246     1.0080 
    28   opls_827      1    UNK   H0S      1     0.1246     1.0080 
[ bonds ]
    2     1     1      0.1510 234304.000
    3     2     1      0.1451 334720.000
    4     3     1      0.1157 543920.000
    5     2     1      0.1520 217568.000
    6     5     1      0.1520 217568.000
    7     6     1      0.1520 217568.000
    8     7     1      0.1410 267776.000
    9     8     1      0.1327 179075.200
   10     9     1      0.1229 476976.000
   11     9     1      0.1327 179075.200
   12     7     1      0.1520 217568.000
   13    12     1      0.1510 234304.000
   14     2     1      0.1520 217568.000
   15    14     1      0.1510 234304.000
   16     1     1      0.1090 284512.000
   17     1     1      0.1090 284512.000
   18     1     1      0.1090 284512.000
   19     5     1      0.1088 284512.000
   20     5     1      0.1088 284512.000
   21     6     1      0.1088 284512.000
   22     7     1      0.1088 284512.000
   23    13     1      0.1090 284512.000
   24    13     1      0.1090 284512.000
   25    13     1      0.1090 284512.000
   26    15     1      0.1090 284512.000
   27    15     1      0.1090 284512.000
   28    15     1      0.1090 284512.000
   14     6     1      0.1520 217568.000
   12    11     1      0.1410 267776.000
   14    12     1      0.1520 217568.000

[ angles ]
;  ai    aj    ak funct            c0            c1            c2            c3 
    1     2     3     1    112.700    488.273
    2     3     4     1    180.000   1255.200
    1     2     5     1    117.200    313.800
    2     5     6     1     83.000    251.040
    5     6     7     1     83.000    251.040
    6     7     8     1    109.500    418.400
    7     8     9     1    116.900    694.544
    8     9    10     1    123.400    694.544
    8     9    11     1    118.180    584.923
    6     7    12     1     83.000    251.040
    7    12    13     1    117.200    313.800
    1     2    14     1    117.200    313.800
    2    14    15     1    117.200    313.800
    2     1    16     1    110.700    313.800
    2     1    17     1    110.700    313.800
    2     1    18     1    110.700    313.800
    2     5    19     1    117.200    313.800
    2     5    20     1    117.200    313.800
    5     6    21     1    117.200    313.800
    6     7    22     1    117.200    313.800
   12    13    23     1    110.700    313.800
   12    13    24     1    110.700    313.800
   12    13    25     1    110.700    313.800
   14    15    26     1    110.700    313.800
   14    15    27     1    110.700    313.800
   14    15    28     1    110.700    313.800
    7     6    14     1     83.000    251.040
   27    15    28     1    107.800    276.144
    7    12    11     1    109.500    418.400
   11    12    14     1    109.500    418.400
    3     2    14     1    109.430    358.401
   13    12    14     1    117.200    313.800
    5     6    14     1     83.000    251.040
   24    13    25     1    107.800    276.144
    8     7    12     1    109.500    418.400
    6     5    19     1    117.200    313.800
   16     1    18     1    107.800    276.144
   12    14    15     1    117.200    313.800
   10     9    11     1    123.400    694.544
    7    12    14     1     83.000    251.040
   23    13    24     1    107.800    276.144
   26    15    28     1    107.800    276.144
   19     5    20     1    114.300    292.880
   12     7    22     1    117.200    313.800
    6     5    20     1    117.200    313.800
    2    14     6     1     83.000    251.040
    3     2     5     1    109.430    358.401
    9    11    12     1    116.900    694.544
    6    14    15     1    117.200    313.800
    8     7    22     1    109.500    292.880
   14     6    21     1    117.200    313.800
    5     2    14     1     83.000    251.040
   16     1    17     1    107.800    276.144
   17     1    18     1    107.800    276.144
   23    13    25     1    107.800    276.144
   26    15    27     1    107.800    276.144
   11    12    13     1    109.500    418.400
    2    14    12     1     83.000    251.040
    6    14    12     1     83.000    251.040
    7     6    21     1    117.200    313.800

[ dihedrals ]
; IMPROPER DIHEDRAL ANGLES 
;  ai    aj    ak    al funct            c0            c1            c2            c3            c4            c5
    11     9     8    10    4        180.000     43.932     2  

[ dihedrals ]
; PROPER DIHEDRAL ANGLES
;  ai    aj    ak    al funct            c0            c1            c2            c3            c4            c5
    9   11   12    7        3      -2.197   5.201   0.527  -3.531  -0.000   0.000
    9    8    7    6        3      -2.197   5.201   0.527  -3.531  -0.000   0.000
   15   14   12   13        3       0.000   0.000   0.000  -0.000  -0.000   0.000
   15   14    2    1        3       0.000   0.000   0.000  -0.000  -0.000   0.000
   15   14    6    7        3       0.000   0.000   0.000  -0.000  -0.000   0.000
   15   14   12    7        3       0.000   0.000   0.000  -0.000  -0.000   0.000
   13   12    7    6        3       0.000   0.000   0.000  -0.000  -0.000   0.000
   15   14    6    5        3       0.000   0.000   0.000  -0.000  -0.000   0.000
   13   12   14    2        3       0.000   0.000   0.000  -0.000  -0.000   0.000
   15   14    2    5        3       0.000   0.000   0.000  -0.000  -0.000   0.000
   13   12   14    6        3       0.000   0.000   0.000  -0.000  -0.000   0.000
   15   14    2    3        3       0.000   0.000   0.000  -0.000  -0.000   0.000
   15   14   12   11        3       0.000   0.000   0.000  -0.000  -0.000   0.000
   13   12    7    8        3       0.000   0.000   0.000  -0.000  -0.000   0.000
   13   12   11    9        3      -2.197   5.201   0.527  -3.531  -0.000   0.000
    6   14    2    1        3       0.000   0.000   0.000  -0.000  -0.000   0.000
    6    5    2    1        3       0.000   0.000   0.000  -0.000  -0.000   0.000
   12   14    2    1        3       0.000   0.000   0.000  -0.000  -0.000   0.000
   12   14    2    5        3       0.000   0.000   0.000  -0.000  -0.000   0.000
   12   14    6    5        3       0.000   0.000   0.000  -0.000  -0.000   0.000
   12    7    6    5        3       0.000   0.000   0.000  -0.000  -0.000   0.000
    7    6   14    2        3       0.000   0.000   0.000  -0.000  -0.000   0.000
    7   12   14    2        3       0.000   0.000   0.000  -0.000  -0.000   0.000
    7    6    5    2        3       0.000   0.000   0.000  -0.000  -0.000   0.000
    6   14    2    3        3       0.000   0.000   0.000  -0.000  -0.000   0.000
    6    5    2    3        3       0.000   0.000   0.000  -0.000  -0.000   0.000
   12   14    2    3        3       0.000   0.000   0.000  -0.000  -0.000   0.000
   14   12    7    8        3       0.000   0.000   0.000  -0.000  -0.000   0.000
   14    6    7    8        3       0.000   0.000   0.000  -0.000  -0.000   0.000
    5    2    3    4        3       0.000   0.000   0.000  -0.000  -0.000   0.000
   14    2    3    4        3       0.000   0.000   0.000  -0.000  -0.000   0.000
   14   12   11    9        3      -2.197   5.201   0.527  -3.531  -0.000   0.000
   12    7    8    9        3      -2.197   5.201   0.527  -3.531  -0.000   0.000
   12   11    9   10        3      21.439   0.000  -21.439  -0.000  -0.000   0.000
   12   11    9    8        3      31.206  -9.768  -21.439  -0.000  -0.000   0.000
   26   15   14    2        3       0.628   1.883   0.000  -2.510  -0.000   0.000
   16    1    2   14        3       0.628   1.883   0.000  -2.510  -0.000   0.000
   28   15   14    6        3       0.628   1.883   0.000  -2.510  -0.000   0.000
   24   13   12   14        3       0.628   1.883   0.000  -2.510  -0.000   0.000
   23   13   12    7        3       0.628   1.883   0.000  -2.510  -0.000   0.000
   17    1    2    5        3       0.628   1.883   0.000  -2.510  -0.000   0.000
   18    1    2    5        3       0.628   1.883   0.000  -2.510  -0.000   0.000
   17    1    2   14        3       0.628   1.883   0.000  -2.510  -0.000   0.000
   16    1    2    5        3       0.628   1.883   0.000  -2.510  -0.000   0.000
   27   15   14   12        3       0.628   1.883   0.000  -2.510  -0.000   0.000
   18    1    2   14        3       0.628   1.883   0.000  -2.510  -0.000   0.000
   25   13   12    7        3       0.628   1.883   0.000  -2.510  -0.000   0.000
   27   15   14    6        3       0.628   1.883   0.000  -2.510  -0.000   0.000
   28   15   14   12        3       0.628   1.883   0.000  -2.510  -0.000   0.000
   27   15   14    2        3       0.628   1.883   0.000  -2.510  -0.000   0.000
   25   13   12   14        3       0.628   1.883   0.000  -2.510  -0.000   0.000
   26   15   14    6        3       0.628   1.883   0.000  -2.510  -0.000   0.000
   23   13   12   14        3       0.628   1.883   0.000  -2.510  -0.000   0.000
   28   15   14    2        3       0.628   1.883   0.000  -2.510  -0.000   0.000
   24   13   12    7        3       0.628   1.883   0.000  -2.510  -0.000   0.000
   26   15   14   12        3       0.628   1.883   0.000  -2.510  -0.000   0.000
   16    1    2    3        3       0.628   1.883   0.000  -2.510  -0.000   0.000
   17    1    2    3        3       0.628   1.883   0.000  -2.510  -0.000   0.000
   18    1    2    3        3       0.628   1.883   0.000  -2.510  -0.000   0.000
   25   13   12   11        3       0.979   2.937   0.000  -3.916  -0.000   0.000
   24   13   12   11        3       0.979   2.937   0.000  -3.916  -0.000   0.000
   23   13   12   11        3       0.979   2.937   0.000  -3.916  -0.000   0.000
   21    6   14   15        3       0.000   0.000   0.000  -0.000  -0.000   0.000
   20    5    2    1        3       0.000   0.000   0.000  -0.000  -0.000   0.000
   22    7   12   13        3       0.000   0.000   0.000  -0.000  -0.000   0.000
   19    5    2    1        3       0.000   0.000   0.000  -0.000  -0.000   0.000
   22    7    6   14        3       0.000   0.000   0.000  -0.000  -0.000   0.000
   21    6   14   12        3       0.000   0.000   0.000  -0.000  -0.000   0.000
   20    5    6   14        3       0.000   0.000   0.000  -0.000  -0.000   0.000
   21    6    5    2        3       0.000   0.000   0.000  -0.000  -0.000   0.000
   21    6   14    2        3       0.000   0.000   0.000  -0.000  -0.000   0.000
   21    6    7   12        3       0.000   0.000   0.000  -0.000  -0.000   0.000
   19    5    2   14        3       0.000   0.000   0.000  -0.000  -0.000   0.000
   20    5    2   14        3       0.000   0.000   0.000  -0.000  -0.000   0.000
   20    5    6    7        3       0.000   0.000   0.000  -0.000  -0.000   0.000
   19    5    6    7        3       0.000   0.000   0.000  -0.000  -0.000   0.000
   19    5    6   14        3       0.000   0.000   0.000  -0.000  -0.000   0.000
   22    7   12   14        3       0.000   0.000   0.000  -0.000  -0.000   0.000
   22    7    6    5        3       0.000   0.000   0.000  -0.000  -0.000   0.000
   19    5    2    3        3       0.000   0.000   0.000  -0.000  -0.000   0.000
   20    5    2    3        3       0.000   0.000   0.000  -0.000  -0.000   0.000
   22    7    6   21        3       0.000   0.000   0.000  -0.000  -0.000   0.000
   21    6    5   19        3       0.000   0.000   0.000  -0.000  -0.000   0.000
   21    6    5   20        3       0.000   0.000   0.000  -0.000  -0.000   0.000
   22    7   12   11        3       0.000   0.000   0.000  -0.000  -0.000   0.000
   21    6    7    8        3       0.000   0.000   0.000  -0.000  -0.000   0.000
   22    7    8    9        3       0.414   1.243   0.000  -1.657  -0.000   0.000
    4    3    2    1        3       0.000   0.000   0.000  -0.000  -0.000   0.000
   10    9    8    7        3      21.439   0.000  -21.439  -0.000  -0.000   0.000
   11    9    8    7        3      31.206  -9.768  -21.439  -0.000  -0.000   0.000
   11   12   14    6        3       0.000   0.000   0.000  -0.000  -0.000   0.000
    8    7    6    5        3       0.000   0.000   0.000  -0.000  -0.000   0.000
   11   12   14    2        3       0.000   0.000   0.000  -0.000  -0.000   0.000
   11   12    7    6        3       0.000   0.000   0.000  -0.000  -0.000   0.000
   11   12    7    8        3      -1.151   1.151   0.000  -0.000  -0.000   0.000

[ pairs ]
     1     4    1
     1     6    1
     4     5    1
     3     6    1
     2     7    1
     5     8    1
     2    11    1
     1    12    1
     6     9    1
     3    12    1
     2    13    1
     1    15    1
     7    10    1
     6    11    1
     5    12    1
     4    14    1
     3    15    1
     6    13    1
     3    16    1
     5    15    1
     3    17    1
     1    19    1
     8    13    1
     5    16    1
     3    18    1
     1    20    1
    10    12    1
     9    13    1
     8    14    1
     7    15    1
     5    17    1
     3    19    1
     9    14    1
     5    18    1
     3    20    1
     2    21    1
    11    15    1
     7    19    1
     7    20    1
     5    22    1
    13    15    1
     2    26    1
     8    21    1
     2    27    1
    14    16    1
     7    23    1
     2    28    1
    14    17    1
     9    22    1
     7    24    1
    14    18    1
     7    25    1
     6    26    1
    14    19    1
    12    21    1
    11    22    1
     6    27    1
    14    20    1
    11    23    1
     6    28    1
    13    22    1
    11    24    1
    15    21    1
    14    22    1
    11    25    1
    14    23    1
    14    24    1
    12    26    1
    14    25    1
    12    27    1
    19    21    1
    12    28    1
    20    21    1
    21    22    1

