LIGPARGEN GENERATED GRO FILE
   34
    1UNK    C00    1   0.100   0.100   0.000
    1UNK    C01    2  -0.053   0.100   0.000
    1UNK    C02    3  -0.100   0.100   0.146
    1UNK    C03    4  -0.117   0.219  -0.076
    1UNK    C04    5  -0.080   0.230  -0.227
    1UNK    C05    6  -0.122   0.104  -0.304
    1UNK    C06    7   0.064   0.283  -0.259
    1UNK    C07    8   0.007   0.426  -0.251
    1UNK    C08    9   0.077   0.528  -0.339
    1UNK    C09   10  -0.120   0.361  -0.294
    1UNK    C0A   11  -0.184   0.378  -0.429
    1UNK    C0B   12  -0.256   0.421  -0.304
    1UNK    H0C   13   0.140   0.025   0.069
    1UNK    H0D   14   0.140   0.197   0.031
    1UNK    H0E   15   0.139   0.074  -0.099
    1UNK    H0F   16  -0.086   0.006  -0.045
    1UNK    H0G   17  -0.066   0.189   0.199
    1UNK    H0H   18  -0.061   0.013   0.199
    1UNK    H0I   19  -0.210   0.097   0.152
    1UNK    H0J   20  -0.092   0.312  -0.024
    1UNK    H0K   21  -0.226   0.209  -0.069
    1UNK    H0M   22  -0.072   0.014  -0.266
    1UNK    H0N   23  -0.096   0.110  -0.410
    1UNK    H0O   24  -0.230   0.088  -0.297
    1UNK    H0P   25   0.101   0.254  -0.358
    1UNK    H0Q   26   0.145   0.266  -0.188
    1UNK    H0R   27   0.001   0.465  -0.148
    1UNK    H0S   28   0.089   0.492  -0.441
    1UNK    H0T   29   0.176   0.549  -0.299
    1UNK    H0U   30   0.021   0.622  -0.342
    1UNK    H0V   31  -0.222   0.292  -0.482
    1UNK    H0W   32  -0.146   0.456  -0.495
    1UNK    H0X   33  -0.343   0.363  -0.275
    1UNK    H0Y   34  -0.267   0.528  -0.288
   1.00000   1.00000   1.00000

