LIGPARGEN GENERATED GRO FILE
   42
    1UNK    C00    1   0.100   0.100   0.000
    1UNK    C01    2  -0.053   0.100   0.000
    1UNK    C02    3  -0.104   0.100   0.144
    1UNK    C03    4  -0.112   0.220  -0.078
    1UNK    C04    5  -0.073   0.223  -0.227
    1UNK    C05    6  -0.117   0.101  -0.311
    1UNK    C06    7  -0.259   0.053  -0.279
    1UNK    C07    8  -0.103   0.154  -0.456
    1UNK    C08    9  -0.193   0.085  -0.560
    1UNK    S09   10   0.072   0.142  -0.518
    1UNK    O0A   11   0.073   0.194  -0.654
    1UNK    O0B   12   0.162   0.199  -0.419
    1UNK    C0C   13   0.106  -0.032  -0.527
    1UNK    C0D   14   0.243  -0.045  -0.575
    1UNK    N0E   15   0.351  -0.065  -0.613
    1UNK    C0F   16  -0.139   0.302  -0.442
    1UNK    N0G   17  -0.131   0.338  -0.299
    1UNK    C0H   18  -0.049   0.459  -0.282
    1UNK    H0I   19   0.138   0.014   0.056
    1UNK    H0J   20   0.140   0.191   0.046
    1UNK    H0K   21   0.140   0.092  -0.101
    1UNK    H0M   22  -0.086   0.006  -0.046
    1UNK    H0N   23  -0.074   0.191   0.197
    1UNK    H0O   24  -0.065   0.014   0.199
    1UNK    H0P   25  -0.214   0.094   0.147
    1UNK    H0Q   26  -0.079   0.312  -0.029
    1UNK    H0R   27  -0.222   0.219  -0.068
    1UNK    H0S   28   0.036   0.231  -0.230
    1UNK    H0T   29  -0.049   0.017  -0.292
    1UNK    H0U   30  -0.333   0.133  -0.291
    1UNK    H0V   31  -0.267   0.015  -0.176
    1UNK    H0W   32  -0.288  -0.031  -0.343
    1UNK    H0X   33  -0.174  -0.022  -0.565
    1UNK    H0Y   34  -0.177   0.127  -0.660
    1UNK    H0Z   35  -0.299   0.099  -0.538
    1UNK    H10   36   0.036  -0.078  -0.596
    1UNK    H11   37   0.096  -0.075  -0.427
    1UNK    H12   38  -0.244   0.319  -0.471
    1UNK    H13   39  -0.079   0.367  -0.507
    1UNK    H14   40  -0.096   0.544  -0.333
    1UNK    H15   41   0.052   0.446  -0.324
    1UNK    H16   42  -0.039   0.486  -0.177
   1.00000   1.00000   1.00000

