LIGPARGEN GENERATED GRO FILE
   34
    1UNK    C00    1   0.100   0.100   0.000
    1UNK    C01    2  -0.052   0.100   0.000
    1UNK    C02    3  -0.105   0.100   0.144
    1UNK    C03    4  -0.258   0.109   0.155
    1UNK    C04    5  -0.328  -0.009   0.086
    1UNK    S05    6  -0.311   0.106   0.331
    1UNK    C06    7  -0.227   0.255   0.399
    1UNK    C07    8  -0.248   0.277   0.551
    1UNK    C08    9  -0.398   0.290   0.586
    1UNK    C09   10  -0.190   0.163   0.626
    1UNK    N0A   11  -0.141   0.076   0.686
    1UNK    C0B   12  -0.172   0.407   0.591
    1UNK    C0C   13  -0.181   0.445   0.739
    1UNK    H0D   14   0.138   0.100  -0.102
    1UNK    H0E   15   0.139   0.011   0.051
    1UNK    H0F   16   0.139   0.189   0.051
    1UNK    H0G   17  -0.087   0.012  -0.054
    1UNK    H0H   18  -0.089   0.189  -0.053
    1UNK    H0I   19  -0.059   0.186   0.193
    1UNK    H0J   20  -0.069   0.010   0.195
    1UNK    H0K   21  -0.294   0.202   0.110
    1UNK    H0M   22  -0.293  -0.105   0.126
    1UNK    H0N   23  -0.309  -0.009  -0.022
    1UNK    H0O   24  -0.437  -0.004   0.099
    1UNK    H0P   25  -0.265   0.342   0.343
    1UNK    H0Q   26  -0.120   0.246   0.380
    1UNK    H0R   27  -0.455   0.202   0.556
    1UNK    H0S   28  -0.442   0.377   0.535
    1UNK    H0T   29  -0.414   0.302   0.693
    1UNK    H0U   30  -0.210   0.491   0.532
    1UNK    H0V   31  -0.066   0.397   0.566
    1UNK    H0W   32  -0.284   0.467   0.769
    1UNK    H0X   33  -0.122   0.536   0.758
    1UNK    H0Y   34  -0.142   0.366   0.804
   1.00000   1.00000   1.00000

