
;
; GENERATED BY LigParGen Server
; Jorgensen Lab @ Yale University 
;
[ atomtypes ]
  opls_814  N814    14.0070     0.000    A    3.20000E-01   7.11280E-01
  opls_818  H818     1.0080     0.000    A    2.50000E-01   1.25520E-01
  opls_808  C808    12.0110     0.000    A    3.50000E-01   2.76144E-01
  opls_824  H824     1.0080     0.000    A    2.50000E-01   1.25520E-01
  opls_805  C805    12.0110     0.000    A    3.50000E-01   2.76144E-01
  opls_836  H836     1.0080     0.000    A    2.50000E-01   1.25520E-01
  opls_834  H834     1.0080     0.000    A    2.50000E-01   1.25520E-01
  opls_828  H828     1.0080     0.000    A    2.50000E-01   1.25520E-01
  opls_802  C802    12.0110     0.000    A    3.50000E-01   2.76144E-01
  opls_827  H827     1.0080     0.000    A    2.50000E-01   1.25520E-01
  opls_801  C801    12.0110     0.000    A    3.50000E-01   2.76144E-01
  opls_806  C806    12.0110     0.000    A    3.50000E-01   2.76144E-01
  opls_822  H822     1.0080     0.000    A    2.50000E-01   1.25520E-01
  opls_803  C803    12.0110     0.000    A    3.50000E-01   2.76144E-01
  opls_838  H838     1.0080     0.000    A    2.50000E-01   1.25520E-01
  opls_825  H825     1.0080     0.000    A    2.50000E-01   1.25520E-01
  opls_830  H830     1.0080     0.000    A    2.50000E-01   1.25520E-01
  opls_821  H821     1.0080     0.000    A    2.50000E-01   1.25520E-01
  opls_820  H820     1.0080     0.000    A    2.50000E-01   1.25520E-01
  opls_837  H837     1.0080     0.000    A    2.50000E-01   1.25520E-01
  opls_809  S809    32.0600     0.000    A    3.55000E-01   1.04600E+00
  opls_831  H831     1.0080     0.000    A    2.50000E-01   1.25520E-01
  opls_816  N816    14.0070     0.000    A    3.30000E-01   7.11280E-01
  opls_832  H832     1.0080     0.000    A    2.50000E-01   1.25520E-01
  opls_800  C800    12.0110     0.000    A    3.50000E-01   2.76144E-01
  opls_807  C807    12.0110     0.000    A    3.50000E-01   2.76144E-01
  opls_815  C815    12.0110     0.000    A    3.50000E-01   2.76144E-01
  opls_823  H823     1.0080     0.000    A    2.50000E-01   1.25520E-01
  opls_826  H826     1.0080     0.000    A    2.50000E-01   1.25520E-01
  opls_835  H835     1.0080     0.000    A    2.50000E-01   1.25520E-01
  opls_841  H841     1.0080     0.000    A    2.50000E-01   1.25520E-01
  opls_819  H819     1.0080     0.000    A    2.50000E-01   1.25520E-01
  opls_804  C804    12.0110     0.000    A    3.50000E-01   2.76144E-01
  opls_833  H833     1.0080     0.000    A    2.50000E-01   1.25520E-01
  opls_839  H839     1.0080     0.000    A    2.50000E-01   1.25520E-01
  opls_817  C817    12.0110     0.000    A    3.50000E-01   2.76144E-01
  opls_812  C812    12.0110     0.000    A    3.50000E-01   2.76144E-01
  opls_810  O810    15.9990     0.000    A    2.96000E-01   7.11280E-01
  opls_840  H840     1.0080     0.000    A    2.50000E-01   1.25520E-01
  opls_829  H829     1.0080     0.000    A    2.50000E-01   1.25520E-01
  opls_813  C813    12.0110     0.000    A    3.30000E-01   2.76144E-01
  opls_811  O811    15.9990     0.000    A    2.96000E-01   7.11280E-01
[ moleculetype ]
; Name               nrexcl
UNK                   3
[ atoms ]
;   nr       type  resnr residue  atom   cgnr     charge       mass  
     1   opls_800      1    UNK   C00      1    -0.2403    12.0110 
     2   opls_801      1    UNK   C01      1    -0.1184    12.0110 
     3   opls_802      1    UNK   C02      1    -0.2359    12.0110 
     4   opls_803      1    UNK   C03      1    -0.1547    12.0110 
     5   opls_804      1    UNK   C04      1      0.041    12.0110 
     6   opls_805      1    UNK   C05      1    -0.0744    12.0110 
     7   opls_806      1    UNK   C06      1    -0.2222    12.0110 
     8   opls_807      1    UNK   C07      1    -0.3237    12.0110 
     9   opls_808      1    UNK   C08      1    -0.2257    12.0110 
    10   opls_809      1    UNK   S09      1     1.2751    32.0600 
    11   opls_810      1    UNK   O0A      1    -0.5445    15.9990 
    12   opls_811      1    UNK   O0B      1    -0.5445    15.9990 
    13   opls_812      1    UNK   C0C      1     -0.418    12.0110 
    14   opls_813      1    UNK   C0D      1     0.1628    12.0110 
    15   opls_814      1    UNK   N0E      1    -0.3104    14.0070 
    16   opls_815      1    UNK   C0F      1     0.0214    12.0110 
    17   opls_816      1    UNK   N0G      1    -0.5422    14.0070 
    18   opls_817      1    UNK   C0H      1    -0.0739    12.0110 
    19   opls_818      1    UNK   H0I      1     0.0855     1.0080 
    20   opls_819      1    UNK   H0J      1     0.0855     1.0080 
    21   opls_820      1    UNK   H0K      1     0.0855     1.0080 
    22   opls_821      1    UNK   H0M      1     0.0896     1.0080 
    23   opls_822      1    UNK   H0N      1     0.0836     1.0080 
    24   opls_823      1    UNK   H0O      1     0.0836     1.0080 
    25   opls_824      1    UNK   H0P      1     0.0836     1.0080 
    26   opls_825      1    UNK   H0Q      1     0.1022     1.0080 
    27   opls_826      1    UNK   H0R      1     0.1022     1.0080 
    28   opls_827      1    UNK   H0S      1     0.1187     1.0080 
    29   opls_828      1    UNK   H0T      1     0.0959     1.0080 
    30   opls_829      1    UNK   H0U      1     0.0928     1.0080 
    31   opls_830      1    UNK   H0V      1     0.0928     1.0080 
    32   opls_831      1    UNK   H0W      1     0.0928     1.0080 
    33   opls_832      1    UNK   H0X      2     0.1076     1.0080 
    34   opls_833      1    UNK   H0Y      2     0.1076     1.0080 
    35   opls_834      1    UNK   H0Z      2     0.1076     1.0080 
    36   opls_835      1    UNK   H10      2     0.1951     1.0080 
    37   opls_836      1    UNK   H11      2     0.1951     1.0080 
    38   opls_837      1    UNK   H12      2     0.1216     1.0080 
    39   opls_838      1    UNK   H13      2     0.1216     1.0080 
    40   opls_839      1    UNK   H14      2     0.0927     1.0080 
    41   opls_840      1    UNK   H15      2     0.0927     1.0080 
    42   opls_841      1    UNK   H16      2     0.0927     1.0080 
[ bonds ]
    2     1     1      0.1529 224262.400
    3     2     1      0.1529 224262.400
    4     2     1      0.1529 224262.400
    5     4     1      0.1529 224262.400
    6     5     1      0.1529 224262.400
    7     6     1      0.1529 224262.400
    8     6     1      0.1529 224262.400
    9     8     1      0.1529 224262.400
   10     8     1      0.1770 284512.000
   11    10     1      0.1440 585760.000
   12    10     1      0.1440 585760.000
   13    10     1      0.1770 284512.000
   14    13     1      0.1470 326352.000
   15    14     1      0.1157 543920.000
   16     8     1      0.1529 224262.400
   17     5     1      0.1448 319657.600
   18    17     1      0.1448 319657.600
   19     1     1      0.1090 284512.000
   20     1     1      0.1090 284512.000
   21     1     1      0.1090 284512.000
   22     2     1      0.1090 284512.000
   23     3     1      0.1090 284512.000
   24     3     1      0.1090 284512.000
   25     3     1      0.1090 284512.000
   26     4     1      0.1090 284512.000
   27     4     1      0.1090 284512.000
   28     5     1      0.1090 284512.000
   29     6     1      0.1090 284512.000
   30     7     1      0.1090 284512.000
   31     7     1      0.1090 284512.000
   32     7     1      0.1090 284512.000
   33     9     1      0.1090 284512.000
   34     9     1      0.1090 284512.000
   35     9     1      0.1090 284512.000
   36    13     1      0.1090 284512.000
   37    13     1      0.1090 284512.000
   38    16     1      0.1090 284512.000
   39    16     1      0.1090 284512.000
   40    18     1      0.1090 284512.000
   41    18     1      0.1090 284512.000
   42    18     1      0.1090 284512.000
   17    16     1      0.1448 319657.600

[ angles ]
;  ai    aj    ak funct            c0            c1            c2            c3 
    1     2     3     1    112.700    488.273
    1     2     4     1    112.700    488.273
    2     4     5     1    112.700    488.273
    4     5     6     1    112.700    488.273
    5     6     7     1    112.700    488.273
    5     6     8     1    112.700    488.273
    6     8     9     1    112.700    488.273
    6     8    10     1    108.600    418.400
    8    10    11     1    108.900    619.232
    8    10    12     1    108.900    619.232
    8    10    13     1    102.000    518.816
   10    13    14     1    110.580    432.207
   13    14    15     1    180.000   1255.200
    6     8    16     1    112.700    488.273
    4     5    17     1    109.470    470.282
    5    17    18     1    107.200    433.462
    2     1    19     1    110.700    313.800
    2     1    20     1    110.700    313.800
    2     1    21     1    110.700    313.800
    1     2    22     1    110.700    313.800
    2     3    23     1    110.700    313.800
    2     3    24     1    110.700    313.800
    2     3    25     1    110.700    313.800
    2     4    26     1    110.700    313.800
    2     4    27     1    110.700    313.800
    4     5    28     1    110.700    313.800
    5     6    29     1    110.700    313.800
    6     7    30     1    110.700    313.800
    6     7    31     1    110.700    313.800
    6     7    32     1    110.700    313.800
    8     9    33     1    110.700    313.800
    8     9    34     1    110.700    313.800
    8     9    35     1    110.700    313.800
   10    13    36     1    109.500    292.880
   10    13    37     1    109.500    292.880
    8    16    38     1    110.700    313.800
    8    16    39     1    110.700    313.800
   17    18    40     1    109.500    292.880
   17    18    41     1    109.500    292.880
   17    18    42     1    109.500    292.880
    8    16    17     1    109.470    470.282
   34     9    35     1    107.800    276.144
   17    16    38     1    109.500    292.880
   20     1    21     1    107.800    276.144
   11    10    12     1    119.000    870.272
   14    13    37     1    108.500    292.880
   23     3    25     1    107.800    276.144
   17    16    39     1    109.500    292.880
    4     2    22     1    110.700    313.800
    8     6    29     1    110.700    313.800
    5     4    26     1    110.700    313.800
   16    17    18     1    107.200    433.462
   12    10    13     1    108.900    619.232
    6     5    17     1    109.470    470.282
   19     1    20     1    107.800    276.144
   23     3    24     1    107.800    276.144
    3     2    22     1    110.700    313.800
   33     9    35     1    107.800    276.144
   19     1    21     1    107.800    276.144
   26     4    27     1    107.800    276.144
   11    10    13     1    108.900    619.232
   31     7    32     1    107.800    276.144
    3     2     4     1    112.700    488.273
    7     6    29     1    110.700    313.800
    7     6     8     1    112.700    488.273
   30     7    32     1    107.800    276.144
   33     9    34     1    107.800    276.144
   24     3    25     1    107.800    276.144
   14    13    36     1    108.500    292.880
   41    18    42     1    107.800    276.144
   30     7    31     1    107.800    276.144
   40    18    42     1    107.800    276.144
   38    16    39     1    107.800    276.144
    5    17    16     1    107.200    433.462
   17     5    28     1    109.500    292.880
    9     8    16     1    112.700    488.273
    5     4    27     1    110.700    313.800
    6     5    28     1    110.700    313.800
    9     8    10     1    108.600    418.400
   40    18    41     1    107.800    276.144
   36    13    37     1    107.800    276.144
   10     8    16     1    108.600    418.400

[ dihedrals ]
; IMPROPER DIHEDRAL ANGLES 
;  ai    aj    ak    al funct            c0            c1            c2            c3            c4            c5

[ dihedrals ]
; PROPER DIHEDRAL ANGLES
;  ai    aj    ak    al funct            c0            c1            c2            c3            c4            c5
   16    8    6    7        3       2.301  -1.464   0.837  -1.674  -0.000   0.000
    5    4    2    3        3       2.301  -1.464   0.837  -1.674  -0.000   0.000
   16    8    6    5        3       2.301  -1.464   0.837  -1.674  -0.000   0.000
    8    6    5    4        3       2.301  -1.464   0.837  -1.674  -0.000   0.000
    9    8    6    7        3       2.301  -1.464   0.837  -1.674  -0.000   0.000
    5    4    2    1        3       2.301  -1.464   0.837  -1.674  -0.000   0.000
    6    5    4    2        3       2.301  -1.464   0.837  -1.674  -0.000   0.000
    7    6    5    4        3       2.301  -1.464   0.837  -1.674  -0.000   0.000
    9    8    6    5        3       2.301  -1.464   0.837  -1.674  -0.000   0.000
    8   16   17    5        3       1.789   3.492   0.536  -5.816  -0.000   0.000
   16    8   10   13        3       0.000   0.000   0.000  -0.000  -0.000   0.000
   16    8   10   12        3       0.000   0.000   0.000  -0.000  -0.000   0.000
   16    8   10   11        3       0.000   0.000   0.000  -0.000  -0.000   0.000
   18   17    5    6        3       1.789   3.492   0.536  -5.816  -0.000   0.000
   18   17   16    8        3       1.789   3.492   0.536  -5.816  -0.000   0.000
   18   17    5    4        3       1.789   3.492   0.536  -5.816  -0.000   0.000
   16   17    5    6        3       1.789   3.492   0.536  -5.816  -0.000   0.000
   16   17    5    4        3       1.789   3.492   0.536  -5.816  -0.000   0.000
   13   10    8    6        3       0.000   0.000   0.000  -0.000  -0.000   0.000
   13   10    8    9        3       0.000   0.000   0.000  -0.000  -0.000   0.000
   14   13   10    8        3       0.000   0.000   0.000  -0.000  -0.000   0.000
   14   13   10   11        3       0.000   0.000   0.000  -0.000  -0.000   0.000
   14   13   10   12        3       0.000   0.000   0.000  -0.000  -0.000   0.000
   30    7    6    8        3       0.628   1.883   0.000  -2.510  -0.000   0.000
   32    7    6    5        3       0.628   1.883   0.000  -2.510  -0.000   0.000
   39   16    8    6        3       0.628   1.883   0.000  -2.510  -0.000   0.000
   34    9    8    6        3       0.628   1.883   0.000  -2.510  -0.000   0.000
   23    3    2    4        3       0.628   1.883   0.000  -2.510  -0.000   0.000
   31    7    6    8        3       0.628   1.883   0.000  -2.510  -0.000   0.000
   29    6    8   16        3       0.628   1.883   0.000  -2.510  -0.000   0.000
   32    7    6    8        3       0.628   1.883   0.000  -2.510  -0.000   0.000
   28    5    6    8        3       0.628   1.883   0.000  -2.510  -0.000   0.000
   29    6    8    9        3       0.628   1.883   0.000  -2.510  -0.000   0.000
   24    3    2    4        3       0.628   1.883   0.000  -2.510  -0.000   0.000
   19    1    2    4        3       0.628   1.883   0.000  -2.510  -0.000   0.000
   29    6    5    4        3       0.628   1.883   0.000  -2.510  -0.000   0.000
   20    1    2    3        3       0.628   1.883   0.000  -2.510  -0.000   0.000
   21    1    2    4        3       0.628   1.883   0.000  -2.510  -0.000   0.000
   26    4    2    3        3       0.628   1.883   0.000  -2.510  -0.000   0.000
   22    2    4    5        3       0.628   1.883   0.000  -2.510  -0.000   0.000
   27    4    5    6        3       0.628   1.883   0.000  -2.510  -0.000   0.000
   33    9    8   16        3       0.628   1.883   0.000  -2.510  -0.000   0.000
   20    1    2    4        3       0.628   1.883   0.000  -2.510  -0.000   0.000
   38   16    8    9        3       0.628   1.883   0.000  -2.510  -0.000   0.000
   21    1    2    3        3       0.628   1.883   0.000  -2.510  -0.000   0.000
   24    3    2    1        3       0.628   1.883   0.000  -2.510  -0.000   0.000
   35    9    8    6        3       0.628   1.883   0.000  -2.510  -0.000   0.000
   27    4    2    1        3       0.628   1.883   0.000  -2.510  -0.000   0.000
   38   16    8    6        3       0.628   1.883   0.000  -2.510  -0.000   0.000
   28    5    6    7        3       0.628   1.883   0.000  -2.510  -0.000   0.000
   26    4    5    6        3       0.628   1.883   0.000  -2.510  -0.000   0.000
   28    5    4    2        3       0.628   1.883   0.000  -2.510  -0.000   0.000
   27    4    2    3        3       0.628   1.883   0.000  -2.510  -0.000   0.000
   31    7    6    5        3       0.628   1.883   0.000  -2.510  -0.000   0.000
   23    3    2    1        3       0.628   1.883   0.000  -2.510  -0.000   0.000
   25    3    2    1        3       0.628   1.883   0.000  -2.510  -0.000   0.000
   34    9    8   16        3       0.628   1.883   0.000  -2.510  -0.000   0.000
   39   16    8    9        3       0.628   1.883   0.000  -2.510  -0.000   0.000
   33    9    8    6        3       0.628   1.883   0.000  -2.510  -0.000   0.000
   25    3    2    4        3       0.628   1.883   0.000  -2.510  -0.000   0.000
   19    1    2    3        3       0.628   1.883   0.000  -2.510  -0.000   0.000
   26    4    2    1        3       0.628   1.883   0.000  -2.510  -0.000   0.000
   30    7    6    5        3       0.628   1.883   0.000  -2.510  -0.000   0.000
   35    9    8   16        3       0.628   1.883   0.000  -2.510  -0.000   0.000
   22    2    1   20        3       0.628   1.883   0.000  -2.510  -0.000   0.000
   25    3    2   22        3       0.628   1.883   0.000  -2.510  -0.000   0.000
   31    7    6   29        3       0.628   1.883   0.000  -2.510  -0.000   0.000
   22    2    1   19        3       0.628   1.883   0.000  -2.510  -0.000   0.000
   29    6    5   28        3       0.628   1.883   0.000  -2.510  -0.000   0.000
   30    7    6   29        3       0.628   1.883   0.000  -2.510  -0.000   0.000
   32    7    6   29        3       0.628   1.883   0.000  -2.510  -0.000   0.000
   24    3    2   22        3       0.628   1.883   0.000  -2.510  -0.000   0.000
   28    5    4   26        3       0.628   1.883   0.000  -2.510  -0.000   0.000
   22    2    1   21        3       0.628   1.883   0.000  -2.510  -0.000   0.000
   26    4    2   22        3       0.628   1.883   0.000  -2.510  -0.000   0.000
   23    3    2   22        3       0.628   1.883   0.000  -2.510  -0.000   0.000
   27    4    2   22        3       0.628   1.883   0.000  -2.510  -0.000   0.000
   28    5    4   27        3       0.628   1.883   0.000  -2.510  -0.000   0.000
   27    4    5   17        3      -4.096   5.088   2.966  -3.958  -0.000   0.000
   26    4    5   17        3      -4.096   5.088   2.966  -3.958  -0.000   0.000
   29    6    5   17        3      -4.096   5.088   2.966  -3.958  -0.000   0.000
   33    9    8   10        3       0.946   2.837   0.000  -3.782  -0.000   0.000
   38   16    8   10        3       0.946   2.837   0.000  -3.782  -0.000   0.000
   39   16    8   10        3       0.946   2.837   0.000  -3.782  -0.000   0.000
   34    9    8   10        3       0.946   2.837   0.000  -3.782  -0.000   0.000
   35    9    8   10        3       0.946   2.837   0.000  -3.782  -0.000   0.000
   29    6    8   10        3       0.946   2.837   0.000  -3.782  -0.000   0.000
   37   13   14   15        3       0.000   0.000   0.000  -0.000  -0.000   0.000
   36   13   14   15        3       0.000   0.000   0.000  -0.000  -0.000   0.000
   28    5   17   18        3       1.172   3.515   0.000  -4.686  -0.000   0.000
   38   16   17    5        3       1.172   3.515   0.000  -4.686  -0.000   0.000
   41   18   17   16        3       1.172   3.515   0.000  -4.686  -0.000   0.000
   39   16   17   18        3       1.172   3.515   0.000  -4.686  -0.000   0.000
   40   18   17    5        3       1.172   3.515   0.000  -4.686  -0.000   0.000
   40   18   17   16        3       1.172   3.515   0.000  -4.686  -0.000   0.000
   28    5   17   16        3       1.172   3.515   0.000  -4.686  -0.000   0.000
   41   18   17    5        3       1.172   3.515   0.000  -4.686  -0.000   0.000
   42   18   17    5        3       1.172   3.515   0.000  -4.686  -0.000   0.000
   38   16   17   18        3       1.172   3.515   0.000  -4.686  -0.000   0.000
   42   18   17   16        3       1.172   3.515   0.000  -4.686  -0.000   0.000
   39   16   17    5        3       1.172   3.515   0.000  -4.686  -0.000   0.000
   37   13   10    8        3       0.732   2.197   0.000  -2.929  -0.000   0.000
   36   13   10    8        3       0.732   2.197   0.000  -2.929  -0.000   0.000
   37   13   10   11        3       0.732   2.197   0.000  -2.929  -0.000   0.000
   36   13   10   12        3       0.732   2.197   0.000  -2.929  -0.000   0.000
   37   13   10   12        3       0.732   2.197   0.000  -2.929  -0.000   0.000
   36   13   10   11        3       0.732   2.197   0.000  -2.929  -0.000   0.000
   17   16    8    9        3       3.335  -1.552   2.820  -4.602  -0.000   0.000
   17   16    8    6        3       3.335  -1.552   2.820  -4.602  -0.000   0.000
   17    5    4    2        3       3.335  -1.552   2.820  -4.602  -0.000   0.000
   17    5    6    7        3       3.335  -1.552   2.820  -4.602  -0.000   0.000
   17    5    6    8        3       3.335  -1.552   2.820  -4.602  -0.000   0.000
   17   16    8   10        3       3.408  -2.805  -0.360  -0.243  -0.000   0.000
   15   14   13   10        3       0.000   0.000   0.000  -0.000  -0.000   0.000
   12   10    8    9        3       0.000   0.000   0.000  -0.000  -0.000   0.000
   11   10    8    9        3       0.000   0.000   0.000  -0.000  -0.000   0.000
   12   10    8    6        3       0.000   0.000   0.000  -0.000  -0.000   0.000
   11   10    8    6        3       0.000   0.000   0.000  -0.000  -0.000   0.000
   10    8    6    7        3       2.784   0.278   0.828  -3.891  -0.000   0.000
   10    8    6    5        3       2.784   0.278   0.828  -3.891  -0.000   0.000

[ pairs ]
     1     5    1
     3     5    1
     2     6    1
     4     7    1
     4     8    1
     5     9    1
     5    10    1
     7     9    1
     7    10    1
     6    11    1
     6    12    1
     6    13    1
     2    17    1
     9    11    1
     4    16    1
     9    12    1
     9    13    1
     8    14    1
     4    18    1
     3    19    1
     7    16    1
     4    19    1
     3    20    1
     7    17    1
     6    18    1
     4    20    1
     3    21    1
     1    23    1
    11    14    1
    10    15    1
     4    21    1
     1    24    1
    12    14    1
     9    17    1
     8    18    1
     1    25    1
    11    16    1
    10    17    1
     5    22    1
     4    23    1
     1    26    1
    12    16    1
     4    24    1
     1    27    1
    13    16    1
     4    25    1
     3    26    1
     3    27    1
     2    28    1
     6    26    1
     6    27    1
     4    29    1
     7    28    1
     5    30    1
     8    28    1
     5    31    1
     5    32    1
     9    29    1
     8    30    1
    10    29    1
     8    31    1
     6    33    1
     8    32    1
     6    34    1
    19    22    1
     6    35    1
    20    22    1
    21    22    1
    17    26    1
    10    33    1
     5    38    1
    17    27    1
    16    28    1
    10    34    1
     8    36    1
     6    38    1
     5    39    1
    22    23    1
    16    29    1
    10    35    1
     8    37    1
     6    39    1
     5    40    1
    22    24    1
    18    28    1
    17    29    1
     5    41    1
    22    25    1
    11    36    1
     9    38    1
     5    42    1
    22    26    1
    12    36    1
    11    37    1
    10    38    1
     9    39    1
    22    27    1
    16    33    1
    12    37    1
    10    39    1
    16    34    1
    16    35    1
    15    36    1
    15    37    1
    26    28    1
    27    28    1
    18    38    1
    16    40    1
    28    29    1
    18    39    1
    16    41    1
    16    42    1
    29    30    1
    29    31    1
    29    32    1

