LIGPARGEN GENERATED GRO FILE
   44
    1UNK    C00    1   0.100   0.100   0.000
    1UNK    C01    2  -0.052   0.100   0.000
    1UNK    C02    3  -0.107   0.100   0.142
    1UNK    C03    4  -0.261   0.093   0.143
    1UNK    C04    5  -0.315   0.093   0.286
    1UNK    C05    6  -0.468   0.106   0.296
    1UNK    C06    7  -0.536  -0.015   0.230
    1UNK    C07    8  -0.522   0.125   0.443
    1UNK    C08    9  -0.476   0.013   0.538
    1UNK    C09   10  -0.504   0.265   0.510
    1UNK    C0A   11  -0.361   0.301   0.553
    1UNK    C0B   12  -0.565   0.383   0.431
    1UNK    C0C   13  -0.717   0.375   0.421
    1UNK    C0D   14  -0.774   0.498   0.352
    1UNK    H0E   15   0.138   0.100  -0.103
    1UNK    H0F   16   0.139   0.011   0.051
    1UNK    H0G   17   0.139   0.189   0.051
    1UNK    H0H   18  -0.088   0.012  -0.054
    1UNK    H0I   19  -0.088   0.188  -0.054
    1UNK    H0J   20  -0.074   0.191   0.194
    1UNK    H0K   21  -0.067   0.014   0.197
    1UNK    H0M   22  -0.292   0.003   0.090
    1UNK    H0N   23  -0.301   0.179   0.088
    1UNK    H0O   24  -0.268   0.177   0.337
    1UNK    H0P   25  -0.280   0.002   0.337
    1UNK    H0Q   26  -0.499   0.193   0.238
    1UNK    H0R   27  -0.518  -0.108   0.286
    1UNK    H0S   28  -0.501  -0.032   0.128
    1UNK    H0T   29  -0.644   0.000   0.224
    1UNK    H0U   30  -0.631   0.111   0.436
    1UNK    H0V   31  -0.367   0.013   0.552
    1UNK    H0W   32  -0.505  -0.086   0.502
    1UNK    H0X   33  -0.522   0.026   0.637
    1UNK    H0Y   34  -0.560   0.260   0.605
    1UNK    H0Z   35  -0.295   0.319   0.468
    1UNK    H10   36  -0.317   0.225   0.617
    1UNK    H11   37  -0.361   0.394   0.610
    1UNK    H12   38  -0.520   0.389   0.331
    1UNK    H13   39  -0.539   0.476   0.482
    1UNK    H14   40  -0.761   0.368   0.521
    1UNK    H15   41  -0.748   0.286   0.365
    1UNK    H16   42  -0.748   0.589   0.406
    1UNK    H17   43  -0.884   0.492   0.348
    1UNK    H18   44  -0.737   0.506   0.249
   1.00000   1.00000   1.00000

