LIGPARGEN GENERATED GRO FILE
   58
    1UNK    C00    1   0.100   0.100   0.000
    1UNK    C01    2  -0.052   0.100   0.000
    1UNK    C02    3  -0.108   0.100   0.143
    1UNK    C03    4  -0.262   0.109   0.151
    1UNK    C04    5  -0.330  -0.013   0.088
    1UNK    C05    6  -0.310   0.126   0.299
    1UNK    C06    7  -0.266   0.256   0.374
    1UNK    C07    8  -0.321   0.375   0.293
    1UNK    C08    9  -0.313   0.258   0.526
    1UNK    S09   10  -0.254   0.104   0.620
    1UNK    C0A   11  -0.068   0.110   0.625
    1UNK    C0B   12   0.000   0.231   0.690
    1UNK    C0C   13  -0.032   0.244   0.839
    1UNK    C0D   14   0.017   0.122   0.915
    1UNK    C0E   15  -0.037  -0.009   0.854
    1UNK    C0F   16   0.032  -0.128   0.922
    1UNK    C0G   17  -0.017  -0.015   0.701
    1UNK    C0H   18  -0.292   0.386   0.615
    1UNK    C0I   19  -0.337   0.521   0.559
    1UNK    C0J   20  -0.358   0.374   0.754
    1UNK    H0K   21   0.138   0.095  -0.102
    1UNK    H0M   22   0.139   0.014   0.055
    1UNK    H0N   23   0.139   0.191   0.047
    1UNK    H0O   24  -0.086   0.011  -0.054
    1UNK    H0P   25  -0.088   0.188  -0.054
    1UNK    H0Q   26  -0.064   0.186   0.195
    1UNK    H0R   27  -0.073   0.011   0.196
    1UNK    H0S   28  -0.293   0.195   0.091
    1UNK    H0T   29  -0.329  -0.100   0.155
    1UNK    H0U   30  -0.284  -0.043  -0.007
    1UNK    H0V   31  -0.435   0.010   0.065
    1UNK    H0W   32  -0.275   0.037   0.353
    1UNK    H0X   33  -0.420   0.121   0.299
    1UNK    H0Y   34  -0.157   0.263   0.374
    1UNK    H0Z   35  -0.429   0.383   0.304
    1UNK    H10   36  -0.298   0.368   0.187
    1UNK    H11   37  -0.274   0.469   0.322
    1UNK    H12   38  -0.422   0.243   0.522
    1UNK    H13   39  -0.035   0.103   0.520
    1UNK    H14   40  -0.018   0.323   0.636
    1UNK    H15   41   0.109   0.217   0.681
    1UNK    H16   42  -0.139   0.255   0.855
    1UNK    H17   43   0.016   0.334   0.880
    1UNK    H18   44  -0.014   0.129   1.020
    1UNK    H19   45   0.127   0.121   0.914
    1UNK    H1A   46  -0.144  -0.015   0.876
    1UNK    H1B   47   0.140  -0.124   0.908
    1UNK    H1C   48  -0.004  -0.223   0.881
    1UNK    H1D   49   0.012  -0.127   1.029
    1UNK    H1E   50  -0.064  -0.106   0.661
    1UNK    H1F   51   0.091  -0.025   0.681
    1UNK    H1G   52  -0.185   0.399   0.631
    1UNK    H1H   53  -0.434   0.516   0.511
    1UNK    H1I   54  -0.262   0.562   0.491
    1UNK    H1J   55  -0.344   0.596   0.640
    1UNK    H1K   56  -0.466   0.392   0.748
    1UNK    H1M   57  -0.315   0.449   0.822
    1UNK    H1N   58  -0.344   0.277   0.802
   1.00000   1.00000   1.00000

