LIGPARGEN GENERATED GRO FILE
   35
    1UNK    C00    1   0.100   0.100   0.000
    1UNK    C01    2  -0.052   0.100   0.000
    1UNK    C02    3  -0.106   0.100   0.143
    1UNK    C03    4  -0.259   0.118   0.169
    1UNK    C04    5  -0.354   0.004   0.108
    1UNK    C05    6  -0.318  -0.137   0.159
    1UNK    C06    7  -0.504   0.030   0.137
    1UNK    C07    8  -0.346  -0.001  -0.047
    1UNK    C08    9  -0.275   0.148   0.320
    1UNK    C09   10  -0.207   0.266   0.386
    1UNK    C0A   11  -0.255   0.400   0.334
    1UNK    O0B   12  -0.397   0.112   0.384
    1UNK    O0C   13  -0.277   0.032   0.404
    1UNK    H0D   14   0.138   0.093  -0.102
    1UNK    H0E   15   0.139   0.014   0.056
    1UNK    H0F   16   0.140   0.191   0.046
    1UNK    H0G   17  -0.083   0.010  -0.053
    1UNK    H0H   18  -0.089   0.187  -0.055
    1UNK    H0I   19  -0.054   0.184   0.191
    1UNK    H0J   20  -0.071   0.011   0.195
    1UNK    H0K   21  -0.289   0.211   0.117
    1UNK    H0M   22  -0.341  -0.150   0.265
    1UNK    H0N   23  -0.212  -0.160   0.144
    1UNK    H0O   24  -0.375  -0.214   0.106
    1UNK    H0P   25  -0.533   0.011   0.240
    1UNK    H0Q   26  -0.568  -0.037   0.078
    1UNK    H0R   27  -0.532   0.133   0.111
    1UNK    H0S   28  -0.260  -0.059  -0.082
    1UNK    H0T   29  -0.341   0.100  -0.090
    1UNK    H0U   30  -0.433  -0.051  -0.091
    1UNK    H0V   31  -0.099   0.259   0.377
    1UNK    H0W   32  -0.227   0.262   0.494
    1UNK    H0X   33  -0.227   0.414   0.230
    1UNK    H0Y   34  -0.211   0.480   0.393
    1UNK    H0Z   35  -0.364   0.407   0.341
   1.00000   1.00000   1.00000

