LIGPARGEN GENERATED GRO FILE
   37
    1UNK    C00    1   0.100   0.100   0.000
    1UNK    C01    2  -0.054   0.100   0.000
    1UNK    C02    3  -0.103   0.100   0.145
    1UNK    O03    4  -0.111   0.212  -0.070
    1UNK    C04    5  -0.072   0.223  -0.208
    1UNK    C05    6  -0.130   0.112  -0.293
    1UNK    C06    7  -0.074   0.125  -0.437
    1UNK    C07    8   0.065   0.061  -0.442
    1UNK    C08    9  -0.079   0.272  -0.489
    1UNK    C09   10   0.049   0.356  -0.465
    1UNK    C0A   11   0.033   0.419  -0.325
    1UNK    C0B   12  -0.102   0.363  -0.272
    1UNK    C0C   13  -0.176   0.360  -0.408
    1UNK    C0D   14  -0.323   0.329  -0.417
    1UNK    O0E   15  -0.373   0.266  -0.510
    1UNK    H0F   16   0.140   0.023   0.067
    1UNK    H0G   17   0.139   0.198   0.030
    1UNK    H0H   18   0.140   0.078  -0.100
    1UNK    H0I   19  -0.089   0.006  -0.046
    1UNK    H0J   20  -0.104   0.201   0.187
    1UNK    H0K   21  -0.041   0.036   0.209
    1UNK    H0M   22  -0.205   0.061   0.150
    1UNK    H0N   23   0.036   0.213  -0.208
    1UNK    H0O   24  -0.239   0.117  -0.294
    1UNK    H0P   25  -0.107   0.013  -0.253
    1UNK    H0Q   26  -0.140   0.066  -0.502
    1UNK    H0R   27   0.137   0.112  -0.376
    1UNK    H0S   28   0.105   0.062  -0.543
    1UNK    H0T   29   0.062  -0.043  -0.408
    1UNK    H0U   30  -0.104   0.271  -0.596
    1UNK    H0V   31   0.052   0.437  -0.539
    1UNK    H0W   32   0.143   0.301  -0.477
    1UNK    H0X   33   0.028   0.528  -0.334
    1UNK    H0Y   34   0.118   0.396  -0.259
    1UNK    H0Z   35  -0.149   0.431  -0.199
    1UNK    H10   36  -0.173   0.462  -0.449
    1UNK    H11   37  -0.387   0.382  -0.345
   1.00000   1.00000   1.00000

