
;
; GENERATED BY LigParGen Server
; Jorgensen Lab @ Yale University 
;
[ atomtypes ]
  opls_818  H818     1.0080     0.000    A    2.50000E-01   1.25520E-01
  opls_805  C805    12.0110     0.000    A    3.45000E-01   3.47272E-01
  opls_815  C815    12.0110     0.000    A    3.30000E-01   2.76144E-01
  opls_824  H824     1.0080     0.000    A    2.50000E-01   1.25520E-01
  opls_804  C804    12.0110     0.000    A    3.50000E-01   2.76144E-01
  opls_834  H834     1.0080     0.000    A    2.50000E-01   1.25520E-01
  opls_828  H828     1.0080     0.000    A    2.50000E-01   1.25520E-01
  opls_807  C807    12.0110     0.000    A    3.45000E-01   3.47272E-01
  opls_827  H827     1.0080     0.000    A    2.50000E-01   1.25520E-01
  opls_801  C801    12.0110     0.000    A    3.50000E-01   2.76144E-01
  opls_811  O811    15.9990     0.000    A    2.96000E-01   8.78640E-01
  opls_822  H822     1.0080     0.000    A    2.50000E-01   1.25520E-01
  opls_803  C803    12.0110     0.000    A    3.50000E-01   2.76144E-01
  opls_808  C808    12.0110     0.000    A    3.45000E-01   3.47272E-01
  opls_825  H825     1.0080     0.000    A    2.50000E-01   1.25520E-01
  opls_826  H826     1.0080     0.000    A    2.50000E-01   1.25520E-01
  opls_830  H830     1.0080     0.000    A    2.50000E-01   1.25520E-01
  opls_821  H821     1.0080     0.000    A    2.50000E-01   1.25520E-01
  opls_820  H820     1.0080     0.000    A    2.50000E-01   1.25520E-01
  opls_809  C809    12.0110     0.000    A    3.55000E-01   2.92880E-01
  opls_829  H829     1.0080     0.000    A    2.50000E-01   1.25520E-01
  opls_831  H831     1.0080     0.000    A    2.50000E-01   1.25520E-01
  opls_832  H832     1.0080     0.000    A    2.50000E-01   1.25520E-01
  opls_800  C800    12.0110     0.000    A    3.50000E-01   2.76144E-01
  opls_823  H823     1.0080     0.000    A    2.50000E-01   1.25520E-01
  opls_833  H833     1.0080     0.000    A    2.50000E-01   1.25520E-01
  opls_806  C806    12.0110     0.000    A    3.45000E-01   3.47272E-01
  opls_813  O813    15.9990     0.000    A    2.96000E-01   7.11280E-01
  opls_816  N816    14.0070     0.000    A    3.20000E-01   7.11280E-01
  opls_819  H819     1.0080     0.000    A    2.50000E-01   1.25520E-01
  opls_810  C810    12.0110     0.000    A    3.50000E-01   2.76144E-01
  opls_812  S812    32.0600     0.000    A    3.55000E-01   1.04600E+00
  opls_817  H817     1.0080     0.000    A    2.50000E-01   1.25520E-01
  opls_814  O814    15.9990     0.000    A    2.96000E-01   7.11280E-01
  opls_802  N802    14.0070     0.000    A    3.30000E-01   7.11280E-01
[ moleculetype ]
; Name               nrexcl
UNK                   3
[ atoms ]
;   nr       type  resnr residue  atom   cgnr     charge       mass  
     1   opls_800      1    UNK   C00      1     -0.243    12.0110 
     2   opls_801      1    UNK   C01      1    -0.0016    12.0110 
     3   opls_802      1    UNK   N02      1    -0.4783    14.0070 
     4   opls_803      1    UNK   C03      1    -0.1046    12.0110 
     5   opls_804      1    UNK   C04      1    -0.1079    12.0110 
     6   opls_805      1    UNK   C05      1    -0.1283    12.0110 
     7   opls_806      1    UNK   C06      1    -0.1886    12.0110 
     8   opls_807      1    UNK   C07      1    -0.1897    12.0110 
     9   opls_808      1    UNK   C08      1    -0.1979    12.0110 
    10   opls_809      1    UNK   C09      1     0.3819    12.0110 
    11   opls_810      1    UNK   C0A      1    -0.2916    12.0110 
    12   opls_811      1    UNK   O0B      1    -0.4519    15.9990 
    13   opls_812      1    UNK   S0C      1     1.3253    32.0600 
    14   opls_813      1    UNK   O0D      1    -0.4965    15.9990 
    15   opls_814      1    UNK   O0E      1    -0.4965    15.9990 
    16   opls_815      1    UNK   C0F      1    -0.1841    12.0110 
    17   opls_816      1    UNK   N0G      1    -0.2162    14.0070 
    18   opls_817      1    UNK   H0H      1     0.0942     1.0080 
    19   opls_818      1    UNK   H0I      1     0.0942     1.0080 
    20   opls_819      1    UNK   H0J      1     0.0942     1.0080 
    21   opls_820      1    UNK   H0K      1     0.0915     1.0080 
    22   opls_821      1    UNK   H0M      1     0.0915     1.0080 
    23   opls_822      1    UNK   H0N      1      0.101     1.0080 
    24   opls_823      1    UNK   H0O      1      0.101     1.0080 
    25   opls_824      1    UNK   H0P      1      0.101     1.0080 
    26   opls_825      1    UNK   H0Q      1     0.1473     1.0080 
    27   opls_826      1    UNK   H0R      1     0.1536     1.0080 
    28   opls_827      1    UNK   H0S      1     0.1234     1.0080 
    29   opls_828      1    UNK   H0T      1     0.1234     1.0080 
    30   opls_829      1    UNK   H0U      1     0.1148     1.0080 
    31   opls_830      1    UNK   H0V      1     0.1148     1.0080 
    32   opls_831      1    UNK   H0W      1     0.1605     1.0080 
    33   opls_832      1    UNK   H0X      2      0.121     1.0080 
    34   opls_833      1    UNK   H0Y      2      0.121     1.0080 
    35   opls_834      1    UNK   H0Z      2      0.121     1.0080 
[ bonds ]
    2     1     1      0.1529 224262.400
    3     2     1      0.1448 319657.600
    4     3     1      0.1448 319657.600
    5     3     1      0.1448 319657.600
    6     5     1      0.1510 234304.000
    7     6     1      0.1520 217568.000
    8     7     1      0.1520 217568.000
    9     6     1      0.1520 217568.000
   10     9     1      0.1522 265265.600
   11    10     1      0.1522 265265.600
   12    10     1      0.1229 476976.000
   13     5     1      0.1770 284512.000
   14    13     1      0.1440 585760.000
   15    13     1      0.1440 585760.000
   16    13     1      0.1685 251040.000
   17    16     1      0.1157 543920.000
   18     1     1      0.1090 284512.000
   19     1     1      0.1090 284512.000
   20     1     1      0.1090 284512.000
   21     2     1      0.1090 284512.000
   22     2     1      0.1090 284512.000
   23     4     1      0.1090 284512.000
   24     4     1      0.1090 284512.000
   25     4     1      0.1090 284512.000
   26     5     1      0.1090 284512.000
   27     6     1      0.1088 284512.000
   28     7     1      0.1088 284512.000
   29     7     1      0.1088 284512.000
   30     8     1      0.1088 284512.000
   31     8     1      0.1088 284512.000
   32     9     1      0.1088 284512.000
   33    11     1      0.1090 284512.000
   34    11     1      0.1090 284512.000
   35    11     1      0.1090 284512.000
    9     8     1      0.1520 217568.000

[ angles ]
;  ai    aj    ak funct            c0            c1            c2            c3 
    1     2     3     1    109.470    470.282
    2     3     4     1    107.200    433.462
    2     3     5     1    107.200    433.462
    3     5     6     1    109.470    470.282
    5     6     7     1    117.200    313.800
    6     7     8     1     83.000    251.040
    5     6     9     1    117.200    313.800
    6     9    10     1    111.100    527.184
    9    10    11     1    116.000    585.760
    9    10    12     1    120.400    669.440
    3     5    13     1    108.600    418.400
    5    13    14     1    108.900    619.232
    5    13    15     1    108.900    619.232
    5    13    16     1    100.000    543.920
   13    16    17     1    156.000    924.413
    2     1    18     1    110.700    313.800
    2     1    19     1    110.700    313.800
    2     1    20     1    110.700    313.800
    1     2    21     1    110.700    313.800
    1     2    22     1    110.700    313.800
    3     4    23     1    109.500    292.880
    3     4    24     1    109.500    292.880
    3     4    25     1    109.500    292.880
    3     5    26     1    109.500    292.880
    5     6    27     1    114.300    292.880
    6     7    28     1    117.200    313.800
    6     7    29     1    117.200    313.800
    7     8    30     1    117.200    313.800
    7     8    31     1    117.200    313.800
    6     9    32     1    117.200    313.800
   10    11    33     1    109.500    292.880
   10    11    34     1    109.500    292.880
   10    11    35     1    109.500    292.880
   11    10    12     1    120.400    669.440
    9     8    30     1    117.200    313.800
   15    13    16     1    104.360    658.311
   23     4    24     1    107.800    276.144
   13     5    26     1    109.500    292.880
    7     6     9     1     83.000    251.040
    6     9     8     1     83.000    251.040
    6     5    13     1    108.600    418.400
   24     4    25     1    107.800    276.144
    9     8    31     1    117.200    313.800
   23     4    25     1    107.800    276.144
   14    13    15     1    119.000    870.272
    3     2    22     1    109.500    292.880
    4     3     5     1    107.200    433.462
   34    11    35     1    107.800    276.144
    8     7    29     1    117.200    313.800
   18     1    19     1    107.800    276.144
    8     7    28     1    117.200    313.800
   33    11    35     1    107.800    276.144
   33    11    34     1    107.800    276.144
   28     7    29     1    114.300    292.880
    7     6    27     1    117.200    313.800
    9     6    27     1    117.200    313.800
   18     1    20     1    107.800    276.144
   14    13    16     1    104.360    658.311
   30     8    31     1    114.300    292.880
   19     1    20     1    107.800    276.144
   10     9    32     1    109.500    292.880
    8     9    32     1    117.200    313.800
    8     9    10     1    111.100    527.184
    3     2    21     1    109.500    292.880
    7     8     9     1     83.000    251.040
   21     2    22     1    107.800    276.144
    6     5    26     1    110.700    313.800

[ dihedrals ]
; IMPROPER DIHEDRAL ANGLES 
;  ai    aj    ak    al funct            c0            c1            c2            c3            c4            c5
    12    10     9    11    4        180.000     43.932     2  

[ dihedrals ]
; PROPER DIHEDRAL ANGLES
;  ai    aj    ak    al funct            c0            c1            c2            c3            c4            c5
   10    9    6    5        3       0.000   0.000   0.000  -0.000  -0.000   0.000
   10    9    6    7        3       0.000   0.000   0.000  -0.000  -0.000   0.000
   10    9    8    7        3       0.000   0.000   0.000  -0.000  -0.000   0.000
   11   10    9    8        3       0.000   0.000   0.000  -0.000  -0.000   0.000
   11   10    9    6        3       0.000   0.000   0.000  -0.000  -0.000   0.000
    4    3    2    1        3       1.789   3.492   0.536  -5.816  -0.000   0.000
    5    3    2    1        3       1.789   3.492   0.536  -5.816  -0.000   0.000
    6    5    3    2        3       1.789   3.492   0.536  -5.816  -0.000   0.000
    6    5    3    4        3       1.789   3.492   0.536  -5.816  -0.000   0.000
    9    6    5    3        3       3.335  -1.552   2.820  -4.602  -0.000   0.000
    7    6    5    3        3       3.335  -1.552   2.820  -4.602  -0.000   0.000
    8    7    6    5        3       0.000   0.000   0.000  -0.000  -0.000   0.000
    8    9    6    5        3       0.000   0.000   0.000  -0.000  -0.000   0.000
   16   13    5    6        3       0.000   0.000   0.000  -0.000  -0.000   0.000
   16   13    5    3        3       0.000   0.000   0.000  -0.000  -0.000   0.000
   34   11   10    9        3       0.575   1.726   0.000  -2.301  -0.000   0.000
   35   11   10    9        3       0.575   1.726   0.000  -2.301  -0.000   0.000
   33   11   10    9        3       0.575   1.726   0.000  -2.301  -0.000   0.000
   35   11   10   12        3       0.000   0.000   0.000  -0.000  -0.000   0.000
   33   11   10   12        3       0.000   0.000   0.000  -0.000  -0.000   0.000
   34   11   10   12        3       0.000   0.000   0.000  -0.000  -0.000   0.000
   22    2    1   20        3       0.628   1.883   0.000  -2.510  -0.000   0.000
   21    2    1   18        3       0.628   1.883   0.000  -2.510  -0.000   0.000
   22    2    1   19        3       0.628   1.883   0.000  -2.510  -0.000   0.000
   21    2    1   20        3       0.628   1.883   0.000  -2.510  -0.000   0.000
   21    2    1   19        3       0.628   1.883   0.000  -2.510  -0.000   0.000
   22    2    1   18        3       0.628   1.883   0.000  -2.510  -0.000   0.000
   20    1    2    3        3      -4.096   5.088   2.966  -3.958  -0.000   0.000
   18    1    2    3        3      -4.096   5.088   2.966  -3.958  -0.000   0.000
   19    1    2    3        3      -4.096   5.088   2.966  -3.958  -0.000   0.000
   26    5    6    7        3       0.628   1.883   0.000  -2.510  -0.000   0.000
   26    5    6    9        3       0.628   1.883   0.000  -2.510  -0.000   0.000
   21    2    3    5        3       1.172   3.515   0.000  -4.686  -0.000   0.000
   26    5    3    2        3       1.172   3.515   0.000  -4.686  -0.000   0.000
   23    4    3    2        3       1.172   3.515   0.000  -4.686  -0.000   0.000
   22    2    3    4        3       1.172   3.515   0.000  -4.686  -0.000   0.000
   21    2    3    4        3       1.172   3.515   0.000  -4.686  -0.000   0.000
   26    5    3    4        3       1.172   3.515   0.000  -4.686  -0.000   0.000
   25    4    3    2        3       1.172   3.515   0.000  -4.686  -0.000   0.000
   23    4    3    5        3       1.172   3.515   0.000  -4.686  -0.000   0.000
   24    4    3    5        3       1.172   3.515   0.000  -4.686  -0.000   0.000
   25    4    3    5        3       1.172   3.515   0.000  -4.686  -0.000   0.000
   24    4    3    2        3       1.172   3.515   0.000  -4.686  -0.000   0.000
   22    2    3    5        3       1.172   3.515   0.000  -4.686  -0.000   0.000
   26    5   13   16        3       0.732   2.197   0.000  -2.929  -0.000   0.000
   26    5   13   15        3       0.732   2.197   0.000  -2.929  -0.000   0.000
   26    5   13   14        3       0.732   2.197   0.000  -2.929  -0.000   0.000
   32    9   10   11        3       0.575   1.726   0.000  -2.301  -0.000   0.000
   32    9   10   12        3       0.000   0.000   0.000  -0.000  -0.000   0.000
   27    6    5   26        3       0.628   1.883   0.000  -2.510  -0.000   0.000
   27    6    5    3        3      -4.096   5.088   2.966  -3.958  -0.000   0.000
   27    6    5   13        3       0.946   2.837   0.000  -3.782  -0.000   0.000
   31    8    9   10        3       0.000   0.000   0.000  -0.000  -0.000   0.000
   27    6    9   10        3       0.000   0.000   0.000  -0.000  -0.000   0.000
   30    8    9   10        3       0.000   0.000   0.000  -0.000  -0.000   0.000
   28    7    6    5        3       0.000   0.000   0.000  -0.000  -0.000   0.000
   29    7    6    5        3       0.000   0.000   0.000  -0.000  -0.000   0.000
   32    9    6    5        3       0.000   0.000   0.000  -0.000  -0.000   0.000
   32    9    8    7        3       0.000   0.000   0.000  -0.000  -0.000   0.000
   28    7    6    9        3       0.000   0.000   0.000  -0.000  -0.000   0.000
   27    6    7    8        3       0.000   0.000   0.000  -0.000  -0.000   0.000
   30    8    7    6        3       0.000   0.000   0.000  -0.000  -0.000   0.000
   27    6    9    8        3       0.000   0.000   0.000  -0.000  -0.000   0.000
   31    8    7    6        3       0.000   0.000   0.000  -0.000  -0.000   0.000
   28    7    8    9        3       0.000   0.000   0.000  -0.000  -0.000   0.000
   30    8    9    6        3       0.000   0.000   0.000  -0.000  -0.000   0.000
   29    7    6    9        3       0.000   0.000   0.000  -0.000  -0.000   0.000
   29    7    8    9        3       0.000   0.000   0.000  -0.000  -0.000   0.000
   32    9    6    7        3       0.000   0.000   0.000  -0.000  -0.000   0.000
   31    8    9    6        3       0.000   0.000   0.000  -0.000  -0.000   0.000
   32    9    8   31        3       0.000   0.000   0.000  -0.000  -0.000   0.000
   32    9    8   30        3       0.000   0.000   0.000  -0.000  -0.000   0.000
   30    8    7   29        3       0.000   0.000   0.000  -0.000  -0.000   0.000
   31    8    7   29        3       0.000   0.000   0.000  -0.000  -0.000   0.000
   29    7    6   27        3       0.000   0.000   0.000  -0.000  -0.000   0.000
   30    8    7   28        3       0.000   0.000   0.000  -0.000  -0.000   0.000
   32    9    6   27        3       0.000   0.000   0.000  -0.000  -0.000   0.000
   31    8    7   28        3       0.000   0.000   0.000  -0.000  -0.000   0.000
   28    7    6   27        3       0.000   0.000   0.000  -0.000  -0.000   0.000
   17   16   13    5        3       0.732   2.197   0.000  -2.929  -0.000   0.000
   17   16   13   14        3       0.000   0.000   0.000  -0.000  -0.000   0.000
   17   16   13   15        3       0.000   0.000   0.000  -0.000  -0.000   0.000
   12   10    9    6        3       0.000   0.000   0.000  -0.000  -0.000   0.000
   12   10    9    8        3       0.000   0.000   0.000  -0.000  -0.000   0.000
   15   13    5    6        3       0.000   0.000   0.000  -0.000  -0.000   0.000
   14   13    5    6        3       0.000   0.000   0.000  -0.000  -0.000   0.000
   14   13    5    3        3       0.000   0.000   0.000  -0.000  -0.000   0.000
   15   13    5    3        3       0.000   0.000   0.000  -0.000  -0.000   0.000
   13    5    6    9        3       2.784   0.278   0.828  -3.891  -0.000   0.000
   13    5    6    7        3       2.784   0.278   0.828  -3.891  -0.000   0.000
   13    5    3    4        3       2.784   0.278   0.828  -3.891  -0.000   0.000
   13    5    3    2        3       2.784   0.278   0.828  -3.891  -0.000   0.000

[ pairs ]
     1     4    1
     1     5    1
     2     6    1
     4     6    1
     3     7    1
     3     9    1
     5     8    1
     5    10    1
     2    13    1
     7    10    1
     6    11    1
     4    13    1
     3    14    1
     6    12    1
     3    15    1
     8    11    1
     3    16    1
     8    12    1
     7    13    1
     6    14    1
     6    15    1
     3    18    1
     9    13    1
     6    16    1
     5    17    1
     3    19    1
     3    20    1
     4    21    1
     2    23    1
     5    21    1
     4    22    1
     2    24    1
     5    22    1
     2    25    1
     5    23    1
     2    26    1
     5    24    1
     5    25    1
     4    26    1
     3    27    1
    14    17    1
    15    17    1
     7    26    1
     5    28    1
     5    29    1
     9    26    1
     8    27    1
     6    30    1
    10    27    1
     9    28    1
     6    31    1
     5    32    1
     9    29    1
    18    21    1
     7    32    1
    19    21    1
    18    22    1
    14    26    1
    13    27    1
    10    30    1
    20    21    1
    19    22    1
    15    26    1
    10    31    1
    20    22    1
    16    26    1
     9    33    1
    11    32    1
     9    34    1
    12    32    1
     9    35    1
    12    33    1
    12    34    1
    12    35    1
    26    27    1
    27    28    1
    27    29    1
    28    30    1
    29    30    1
    28    31    1
    27    32    1
    29    31    1
    30    32    1
    31    32    1

