LIGPARGEN GENERATED GRO FILE
   35
    1UNK    C00    1   0.100   0.100   0.000
    1UNK    C01    2  -0.053   0.100   0.000
    1UNK    N02    3  -0.112   0.100   0.136
    1UNK    C03    4  -0.063   0.217   0.210
    1UNK    C04    5  -0.265   0.094   0.134
    1UNK    C05    6  -0.314  -0.036   0.063
    1UNK    C06    7  -0.272  -0.174   0.119
    1UNK    C07    8  -0.403  -0.233   0.061
    1UNK    C08    9  -0.463  -0.090   0.065
    1UNK    C09   10  -0.555  -0.048  -0.053
    1UNK    C0A   11  -0.683  -0.126  -0.074
    1UNK    O0B   12  -0.528   0.046  -0.128
    1UNK    S0C   13  -0.353   0.105   0.299
    1UNK    O0D   14  -0.497   0.109   0.287
    1UNK    O0E   15  -0.284   0.035   0.406
    1UNK    C0F   16  -0.331   0.276   0.353
    1UNK    N0G   17  -0.313   0.387   0.384
    1UNK    H0H   18   0.138   0.073  -0.099
    1UNK    H0I   19   0.140   0.028   0.072
    1UNK    H0J   20   0.141   0.199   0.024
    1UNK    H0K   21  -0.082   0.009  -0.053
    1UNK    H0M   22  -0.089   0.185  -0.059
    1UNK    H0N   23   0.046   0.222   0.213
    1UNK    H0O   24  -0.090   0.210   0.316
    1UNK    H0P   25  -0.101   0.311   0.168
    1UNK    H0Q   26  -0.304   0.180   0.078
    1UNK    H0R   27  -0.285  -0.027  -0.043
    1UNK    H0S   28  -0.266  -0.180   0.228
    1UNK    H0T   29  -0.181  -0.217   0.075
    1UNK    H0U   30  -0.453  -0.306   0.126
    1UNK    H0V   31  -0.393  -0.275  -0.039
    1UNK    H0W   32  -0.517  -0.078   0.160
    1UNK    H0X   33  -0.692  -0.205   0.001
    1UNK    H0Y   34  -0.681  -0.172  -0.173
    1UNK    H0Z   35  -0.768  -0.059  -0.064
   1.00000   1.00000   1.00000

