
;
; GENERATED BY LigParGen Server
; Jorgensen Lab @ Yale University 
;
[ atomtypes ]
  opls_818  H818     1.0080     0.000    A    2.50000E-01   1.25520E-01
  opls_824  H824     1.0080     0.000    A    2.50000E-01   1.25520E-01
  opls_805  C805    12.0110     0.000    A    3.50000E-01   2.76144E-01
  opls_807  O807    15.9990     0.000    A    2.96000E-01   7.11280E-01
  opls_808 Cl808    35.4500     0.000    A    3.40000E-01   1.25520E+00
  opls_813  H813     1.0080     0.000    A    2.50000E-01   1.25520E-01
  opls_802  C802    12.0110     0.000    A    3.50000E-01   2.76144E-01
  opls_815  H815     1.0080     0.000    A    2.50000E-01   1.25520E-01
  opls_801  C801    12.0110     0.000    A    3.50000E-01   2.76144E-01
  opls_822  H822     1.0080     0.000    A    2.50000E-01   1.25520E-01
  opls_803  C803    12.0110     0.000    A    3.50000E-01   2.76144E-01
  opls_814  H814     1.0080     0.000    A    2.50000E-01   1.25520E-01
  opls_810  O810    15.9990     0.000    A    2.96000E-01   8.78640E-01
  opls_821  H821     1.0080     0.000    A    2.50000E-01   1.25520E-01
  opls_820  H820     1.0080     0.000    A    2.50000E-01   1.25520E-01
  opls_809  C809    12.0110     0.000    A    3.55000E-01   2.92880E-01
  opls_816  H816     1.0080     0.000    A    2.50000E-01   1.25520E-01
  opls_800  C800    12.0110     0.000    A    3.50000E-01   2.76144E-01
  opls_823  H823     1.0080     0.000    A    2.50000E-01   1.25520E-01
  opls_811 Cl811    35.4500     0.000    A    3.40000E-01   1.25520E+00
  opls_819  H819     1.0080     0.000    A    2.50000E-01   1.25520E-01
  opls_804  C804    12.0110     0.000    A    3.50000E-01   2.76144E-01
  opls_812  C812    12.0110     0.000    A    3.50000E-01   2.76144E-01
  opls_817  H817     1.0080     0.000    A    2.50000E-01   1.25520E-01
  opls_806  S806    32.0600     0.000    A    3.56000E-01   1.65268E+00
[ moleculetype ]
; Name               nrexcl
UNK                   3
[ atoms ]
;   nr       type  resnr residue  atom   cgnr     charge       mass  
     1   opls_800      1    UNK   C00      1    -0.2387    12.0110 
     2   opls_801      1    UNK   C01      1    -0.1145    12.0110 
     3   opls_802      1    UNK   C02      1    -0.1816    12.0110 
     4   opls_803      1    UNK   C03      1    -0.1879    12.0110 
     5   opls_804      1    UNK   C04      1    -0.0305    12.0110 
     6   opls_805      1    UNK   C05      1    -0.3754    12.0110 
     7   opls_806      1    UNK   S06      1      0.729    32.0600 
     8   opls_807      1    UNK   O07      1    -0.5193    15.9990 
     9   opls_808      1    UNK   Cl0      1    -0.1882    35.4500 
    10   opls_809      1    UNK   C09      1     0.4217    12.0110 
    11   opls_810      1    UNK   O0A      1    -0.3892    15.9990 
    12   opls_811      1    UNK   Cl1      1    -0.1285    35.4500 
    13   opls_812      1    UNK   C0C      1    -0.1891    12.0110 
    14   opls_813      1    UNK   H0D      1     0.0937     1.0080 
    15   opls_814      1    UNK   H0E      1     0.0937     1.0080 
    16   opls_815      1    UNK   H0F      1     0.0937     1.0080 
    17   opls_816      1    UNK   H0G      1     0.1087     1.0080 
    18   opls_817      1    UNK   H0H      1     0.0991     1.0080 
    19   opls_818      1    UNK   H0I      1     0.0991     1.0080 
    20   opls_819      1    UNK   H0J      1      0.111     1.0080 
    21   opls_820      1    UNK   H0K      1      0.111     1.0080 
    22   opls_821      1    UNK   H0M      1     0.1638     1.0080 
    23   opls_822      1    UNK   H0N      1     0.1638     1.0080 
    24   opls_823      1    UNK   H0O      1     0.1275     1.0080 
    25   opls_824      1    UNK   H0P      1     0.1275     1.0080 
[ bonds ]
    2     1     1      0.1529 224262.400
    3     2     1      0.1529 224262.400
    4     3     1      0.1529 224262.400
    5     4     1      0.1529 224262.400
    6     5     1      0.1529 224262.400
    7     6     1      0.1790 284512.000
    8     7     1      0.1530 585760.000
    9     7     1      0.2040 166849.552
   10     5     1      0.1522 265265.600
   11    10     1      0.1229 476976.000
   12    10     1      0.1790 251040.000
   13     2     1      0.1529 224262.400
   14     1     1      0.1090 284512.000
   15     1     1      0.1090 284512.000
   16     1     1      0.1090 284512.000
   17     2     1      0.1090 284512.000
   18     3     1      0.1090 284512.000
   19     3     1      0.1090 284512.000
   20     4     1      0.1090 284512.000
   21     4     1      0.1090 284512.000
   22     6     1      0.1090 284512.000
   23     6     1      0.1090 284512.000
   24    13     1      0.1090 284512.000
   25    13     1      0.1090 284512.000
   13     5     1      0.1529 224262.400

[ angles ]
;  ai    aj    ak funct            c0            c1            c2            c3 
    1     2     3     1    112.700    488.273
    2     3     4     1    112.700    488.273
    3     4     5     1    112.700    488.273
    4     5     6     1    112.700    488.273
    5     6     7     1    108.600    418.400
    6     7     8     1    107.000    619.232
    6     7     9     1     97.670    407.271
    4     5    10     1    111.100    527.184
    5    10    11     1    120.400    669.440
    5    10    12     1    109.000    627.600
    1     2    13     1    112.700    488.273
    2     1    14     1    110.700    313.800
    2     1    15     1    110.700    313.800
    2     1    16     1    110.700    313.800
    1     2    17     1    110.700    313.800
    2     3    18     1    110.700    313.800
    2     3    19     1    110.700    313.800
    3     4    20     1    110.700    313.800
    3     4    21     1    110.700    313.800
    5     6    22     1    110.700    313.800
    5     6    23     1    110.700    313.800
    2    13    24     1    110.700    313.800
    2    13    25     1    110.700    313.800
   24    13    25     1    107.800    276.144
   13     2    17     1    110.700    313.800
    5    13    24     1    110.700    313.800
   14     1    16     1    107.800    276.144
   11    10    12     1    119.000    627.600
    7     6    22     1    109.500    292.880
    6     5    10     1    111.100    527.184
    4     5    13     1    112.700    488.273
    2    13     5     1    112.700    488.273
    4     3    19     1    110.700    313.800
    8     7     9     1     97.670    407.271
    7     6    23     1    109.500    292.880
   22     6    23     1    107.800    276.144
    6     5    13     1    112.700    488.273
   18     3    19     1    107.800    276.144
    4     3    18     1    110.700    313.800
    3     2    17     1    110.700    313.800
    5    13    25     1    110.700    313.800
   15     1    16     1    107.800    276.144
   14     1    15     1    107.800    276.144
    3     2    13     1    112.700    488.273
    5     4    20     1    110.700    313.800
   10     5    13     1    111.100    527.184
    5     4    21     1    110.700    313.800
   20     4    21     1    107.800    276.144

[ dihedrals ]
; IMPROPER DIHEDRAL ANGLES 
;  ai    aj    ak    al funct            c0            c1            c2            c3            c4            c5
    12    10     5    11    4        180.000     43.932     2  

[ dihedrals ]
; PROPER DIHEDRAL ANGLES
;  ai    aj    ak    al funct            c0            c1            c2            c3            c4            c5
   10    5   13    2        3      -4.960   6.286   1.310  -2.636  -0.000   0.000
   10    5    4    3        3      -4.960   6.286   1.310  -2.636  -0.000   0.000
   10    5    6    7        3      -16.259   9.088   7.171  -0.000  -0.000   0.000
   13    5   10   12        3       0.000   0.000   0.000  -0.000  -0.000   0.000
   13    5   10   11        3       0.000   0.000   0.000  -0.000  -0.000   0.000
    4    3    2    1        3       2.301  -1.464   0.837  -1.674  -0.000   0.000
    5    4    3    2        3       2.301  -1.464   0.837  -1.674  -0.000   0.000
    6    5    4    3        3       2.301  -1.464   0.837  -1.674  -0.000   0.000
    5   13    2    3        3       2.301  -1.464   0.837  -1.674  -0.000   0.000
   13    5    4    3        3       2.301  -1.464   0.837  -1.674  -0.000   0.000
    5   13    2    1        3       2.301  -1.464   0.837  -1.674  -0.000   0.000
   13    2    3    4        3       2.301  -1.464   0.837  -1.674  -0.000   0.000
    4    5   13    2        3       2.301  -1.464   0.837  -1.674  -0.000   0.000
    6    5   13    2        3       2.301  -1.464   0.837  -1.674  -0.000   0.000
   13    5    6    7        3       2.784   0.278   0.828  -3.891  -0.000   0.000
   12   10    5    6        3       0.000   0.000   0.000  -0.000  -0.000   0.000
   12   10    5    4        3       0.000   0.000   0.000  -0.000  -0.000   0.000
    9    7    6    5        3       0.941   2.314   2.410  -5.665  -0.000   0.000
   23    6    5   10        3      -0.209  -0.628   0.000   0.837  -0.000   0.000
   22    6    5   10        3      -0.209  -0.628   0.000   0.837  -0.000   0.000
   21    4    5   10        3      -0.209  -0.628   0.000   0.837  -0.000   0.000
   24   13    5   10        3      -0.209  -0.628   0.000   0.837  -0.000   0.000
   25   13    5   10        3      -0.209  -0.628   0.000   0.837  -0.000   0.000
   20    4    5   10        3      -0.209  -0.628   0.000   0.837  -0.000   0.000
   14    1    2   13        3       0.628   1.883   0.000  -2.510  -0.000   0.000
   16    1    2   13        3       0.628   1.883   0.000  -2.510  -0.000   0.000
   17    2    3    4        3       0.628   1.883   0.000  -2.510  -0.000   0.000
   20    4    5   13        3       0.628   1.883   0.000  -2.510  -0.000   0.000
   18    3    2   13        3       0.628   1.883   0.000  -2.510  -0.000   0.000
   23    6    5    4        3       0.628   1.883   0.000  -2.510  -0.000   0.000
   19    3    2   13        3       0.628   1.883   0.000  -2.510  -0.000   0.000
   24   13    5    6        3       0.628   1.883   0.000  -2.510  -0.000   0.000
   24   13    5    4        3       0.628   1.883   0.000  -2.510  -0.000   0.000
   15    1    2    3        3       0.628   1.883   0.000  -2.510  -0.000   0.000
   14    1    2    3        3       0.628   1.883   0.000  -2.510  -0.000   0.000
   21    4    5   13        3       0.628   1.883   0.000  -2.510  -0.000   0.000
   25   13    5    6        3       0.628   1.883   0.000  -2.510  -0.000   0.000
   25   13    2    3        3       0.628   1.883   0.000  -2.510  -0.000   0.000
   16    1    2    3        3       0.628   1.883   0.000  -2.510  -0.000   0.000
   17    2   13    5        3       0.628   1.883   0.000  -2.510  -0.000   0.000
   20    4    3    2        3       0.628   1.883   0.000  -2.510  -0.000   0.000
   25   13    2    1        3       0.628   1.883   0.000  -2.510  -0.000   0.000
   22    6    5    4        3       0.628   1.883   0.000  -2.510  -0.000   0.000
   24   13    2    1        3       0.628   1.883   0.000  -2.510  -0.000   0.000
   23    6    5   13        3       0.628   1.883   0.000  -2.510  -0.000   0.000
   21    4    5    6        3       0.628   1.883   0.000  -2.510  -0.000   0.000
   18    3    2    1        3       0.628   1.883   0.000  -2.510  -0.000   0.000
   25   13    5    4        3       0.628   1.883   0.000  -2.510  -0.000   0.000
   15    1    2   13        3       0.628   1.883   0.000  -2.510  -0.000   0.000
   19    3    4    5        3       0.628   1.883   0.000  -2.510  -0.000   0.000
   19    3    2    1        3       0.628   1.883   0.000  -2.510  -0.000   0.000
   24   13    2    3        3       0.628   1.883   0.000  -2.510  -0.000   0.000
   21    4    3    2        3       0.628   1.883   0.000  -2.510  -0.000   0.000
   18    3    4    5        3       0.628   1.883   0.000  -2.510  -0.000   0.000
   22    6    5   13        3       0.628   1.883   0.000  -2.510  -0.000   0.000
   20    4    5    6        3       0.628   1.883   0.000  -2.510  -0.000   0.000
   17    2    1   14        3       0.628   1.883   0.000  -2.510  -0.000   0.000
   24   13    2   17        3       0.628   1.883   0.000  -2.510  -0.000   0.000
   17    2    1   16        3       0.628   1.883   0.000  -2.510  -0.000   0.000
   20    4    3   19        3       0.628   1.883   0.000  -2.510  -0.000   0.000
   25   13    2   17        3       0.628   1.883   0.000  -2.510  -0.000   0.000
   20    4    3   18        3       0.628   1.883   0.000  -2.510  -0.000   0.000
   21    4    3   18        3       0.628   1.883   0.000  -2.510  -0.000   0.000
   21    4    3   19        3       0.628   1.883   0.000  -2.510  -0.000   0.000
   17    2    1   15        3       0.628   1.883   0.000  -2.510  -0.000   0.000
   19    3    2   17        3       0.628   1.883   0.000  -2.510  -0.000   0.000
   18    3    2   17        3       0.628   1.883   0.000  -2.510  -0.000   0.000
   22    6    7    9        3       1.354   4.061   0.000  -5.414  -0.000   0.000
   23    6    7    9        3       1.354   4.061   0.000  -5.414  -0.000   0.000
   23    6    7    8        3       0.732   2.197   0.000  -2.929  -0.000   0.000
   22    6    7    8        3       0.732   2.197   0.000  -2.929  -0.000   0.000
   11   10    5    4        3       0.000   0.000   0.000  -0.000  -0.000   0.000
   11   10    5    6        3       0.000   0.000   0.000  -0.000  -0.000   0.000
    8    7    6    5        3       0.000   0.000   0.000  -0.000  -0.000   0.000
    7    6    5    4        3       2.784   0.278   0.828  -3.891  -0.000   0.000

[ pairs ]
     1     4    1
     1     5    1
     2     6    1
     3     6    1
     4     7    1
     2    10    1
     5     8    1
     3    10    1
     5     9    1
     4    11    1
     4    12    1
     7    10    1
     6    11    1
     3    14    1
     6    12    1
     3    15    1
     3    16    1
     1    18    1
     7    13    1
     1    19    1
     4    17    1
     5    17    1
     2    20    1
     5    18    1
     2    21    1
    11    13    1
     5    19    1
    12    13    1
     1    24    1
     6    20    1
     4    22    1
     1    25    1
    13    14    1
     6    21    1
     4    23    1
     3    24    1
    13    15    1
     4    24    1
     3    25    1
    13    16    1
     4    25    1
    10    20    1
     8    22    1
     6    24    1
    14    17    1
    13    18    1
    10    21    1
     9    22    1
     8    23    1
     6    25    1
    15    17    1
    13    19    1
    10    22    1
     9    23    1
    16    17    1
    13    20    1
    10    23    1
    13    21    1
    10    24    1
    17    18    1
    13    22    1
    10    25    1
    17    19    1
    13    23    1
    18    20    1
    19    20    1
    18    21    1
    19    21    1
    17    24    1
    17    25    1

