LIGPARGEN GENERATED GRO FILE
   25
    1UNK    C00    1   0.100   0.100   0.000
    1UNK    C01    2  -0.052   0.100   0.000
    1UNK    C02    3  -0.110   0.100   0.141
    1UNK    C03    4  -0.249   0.159   0.125
    1UNK    C04    5  -0.237   0.264   0.012
    1UNK    C05    6  -0.228   0.409   0.066
    1UNK    S06    7  -0.094   0.443   0.185
    1UNK    O07    8   0.037   0.430   0.114
    1UNK    Cl0    9  -0.105   0.641   0.196
    1UNK    C09   10  -0.364   0.260  -0.077
    1UNK    O0A   11  -0.442   0.355  -0.082
    1UNK    Cl1   12  -0.388   0.111  -0.166
    1UNK    C0C   13  -0.111   0.224  -0.069
    1UNK    H0D   14   0.139   0.010   0.049
    1UNK    H0E   15   0.140   0.187   0.053
    1UNK    H0F   16   0.139   0.103  -0.102
    1UNK    H0G   17  -0.088   0.010  -0.052
    1UNK    H0H   18  -0.050   0.161   0.209
    1UNK    H0I   19  -0.114  -0.001   0.183
    1UNK    H0J   20  -0.286   0.202   0.219
    1UNK    H0K   21  -0.319   0.078   0.099
    1UNK    H0M   22  -0.321   0.435   0.119
    1UNK    H0N   23  -0.217   0.479  -0.017
    1UNK    H0O   24  -0.039   0.305  -0.074
    1UNK    H0P   25  -0.133   0.200  -0.174
   1.00000   1.00000   1.00000

