
;
; GENERATED BY LigParGen Server
; Jorgensen Lab @ Yale University 
;
[ atomtypes ]
  opls_818  H818     1.0080     0.000    A    2.50000E-01   1.25520E-01
  opls_810  C810    12.0110     0.000    A    3.45000E-01   3.47272E-01
  opls_824  H824     1.0080     0.000    A    2.50000E-01   1.25520E-01
  opls_805  C805    12.0110     0.000    A    3.50000E-01   2.76144E-01
  opls_828  H828     1.0080     0.000    A    2.50000E-01   1.25520E-01
  opls_813  H813     1.0080     0.000    A    2.50000E-01   1.25520E-01
  opls_807  C807    12.0110     0.000    A    3.45000E-01   3.47272E-01
  opls_802  C802    12.0110     0.000    A    3.50000E-01   2.76144E-01
  opls_815  H815     1.0080     0.000    A    2.50000E-01   1.25520E-01
  opls_801  C801    12.0110     0.000    A    3.50000E-01   2.76144E-01
  opls_830  H830     1.0080     0.000    A    2.50000E-01   1.25520E-01
  opls_822  H822     1.0080     0.000    A    2.50000E-01   1.25520E-01
  opls_803  C803    12.0110     0.000    A    3.50000E-01   2.76144E-01
  opls_825  H825     1.0080     0.000    A    2.50000E-01   1.25520E-01
  opls_826  H826     1.0080     0.000    A    2.50000E-01   1.25520E-01
  opls_814  H814     1.0080     0.000    A    2.50000E-01   1.25520E-01
  opls_821  H821     1.0080     0.000    A    2.50000E-01   1.25520E-01
  opls_820  H820     1.0080     0.000    A    2.50000E-01   1.25520E-01
  opls_829  H829     1.0080     0.000    A    2.50000E-01   1.25520E-01
  opls_831  H831     1.0080     0.000    A    2.50000E-01   1.25520E-01
  opls_832  H832     1.0080     0.000    A    2.50000E-01   1.25520E-01
  opls_816  H816     1.0080     0.000    A    2.50000E-01   1.25520E-01
  opls_800  C800    12.0110     0.000    A    3.50000E-01   2.76144E-01
  opls_823  H823     1.0080     0.000    A    2.50000E-01   1.25520E-01
  opls_833  H833     1.0080     0.000    A    2.50000E-01   1.25520E-01
  opls_806  C806    12.0110     0.000    A    3.45000E-01   3.47272E-01
  opls_819  H819     1.0080     0.000    A    2.50000E-01   1.25520E-01
  opls_804  C804    12.0110     0.000    A    3.50000E-01   2.76144E-01
  opls_827  H827     1.0080     0.000    A    2.50000E-01   1.25520E-01
  opls_812  C812    12.0110     0.000    A    3.50000E-01   2.76144E-01
  opls_808  C808    12.0110     0.000    A    3.50000E-01   2.76144E-01
  opls_817  H817     1.0080     0.000    A    2.50000E-01   1.25520E-01
  opls_809  C809    12.0110     0.000    A    3.45000E-01   3.47272E-01
  opls_811  N811    14.0070     0.000    A    3.25000E-01   7.11280E-01
[ moleculetype ]
; Name               nrexcl
UNK                   3
[ atoms ]
;   nr       type  resnr residue  atom   cgnr     charge       mass  
     1   opls_800      1    UNK   C00      1    -0.2364    12.0110 
     2   opls_801      1    UNK   C01      1    -0.1132    12.0110 
     3   opls_802      1    UNK   C02      1    -0.2361    12.0110 
     4   opls_803      1    UNK   C03      1    -0.1003    12.0110 
     5   opls_804      1    UNK   C04      1    -0.1729    12.0110 
     6   opls_805      1    UNK   C05      1     -0.158    12.0110 
     7   opls_806      1    UNK   C06      1    -0.1508    12.0110 
     8   opls_807      1    UNK   C07      1    -0.1254    12.0110 
     9   opls_808      1    UNK   C08      1    -0.1508    12.0110 
    10   opls_809      1    UNK   C09      1    -0.2207    12.0110 
    11   opls_810      1    UNK   C0A      1     0.0297    12.0110 
    12   opls_811      1    UNK   N0B      1    -0.2133    14.0070 
    13   opls_812      1    UNK   C0C      1    -0.1996    12.0110 
    14   opls_813      1    UNK   H0D      1     0.0819     1.0080 
    15   opls_814      1    UNK   H0E      1     0.0819     1.0080 
    16   opls_815      1    UNK   H0F      1     0.0819     1.0080 
    17   opls_816      1    UNK   H0G      1      0.098     1.0080 
    18   opls_817      1    UNK   H0H      1     0.0814     1.0080 
    19   opls_818      1    UNK   H0I      1     0.0814     1.0080 
    20   opls_819      1    UNK   H0J      1     0.0814     1.0080 
    21   opls_820      1    UNK   H0K      1     0.0988     1.0080 
    22   opls_821      1    UNK   H0M      1     0.0907     1.0080 
    23   opls_822      1    UNK   H0N      1     0.0907     1.0080 
    24   opls_823      1    UNK   H0O      1     0.0966     1.0080 
    25   opls_824      1    UNK   H0P      1     0.0966     1.0080 
    26   opls_825      1    UNK   H0Q      1     0.1392     1.0080 
    27   opls_826      1    UNK   H0R      1     0.1381     1.0080 
    28   opls_827      1    UNK   H0S      1     0.0956     1.0080 
    29   opls_828      1    UNK   H0T      1     0.0956     1.0080 
    30   opls_829      1    UNK   H0U      1     0.1723     1.0080 
    31   opls_830      1    UNK   H0V      1     0.0597     1.0080 
    32   opls_831      1    UNK   H0W      1     0.0954     1.0080 
    33   opls_832      1    UNK   H0X      2     0.0954     1.0080 
    34   opls_833      1    UNK   H0Y      2     0.0954     1.0080 
[ bonds ]
    2     1     1      0.1529 224262.400
    3     2     1      0.1529 224262.400
    4     2     1      0.1529 224262.400
    5     4     1      0.1529 224262.400
    6     5     1      0.1529 224262.400
    7     6     1      0.1510 234304.000
    8     7     1      0.1520 217568.000
    9     4     1      0.1529 224262.400
   10     8     1      0.1520 217568.000
   11     7     1      0.1520 217568.000
   12    10     1      0.1449 282001.600
   13    12     1      0.1449 282001.600
   14     1     1      0.1090 284512.000
   15     1     1      0.1090 284512.000
   16     1     1      0.1090 284512.000
   17     2     1      0.1090 284512.000
   18     3     1      0.1090 284512.000
   19     3     1      0.1090 284512.000
   20     3     1      0.1090 284512.000
   21     4     1      0.1090 284512.000
   22     5     1      0.1090 284512.000
   23     5     1      0.1090 284512.000
   24     6     1      0.1090 284512.000
   25     6     1      0.1090 284512.000
   26     7     1      0.1088 284512.000
   27     8     1      0.1088 284512.000
   28     9     1      0.1090 284512.000
   29     9     1      0.1090 284512.000
   30    10     1      0.1088 284512.000
   31    11     1      0.1088 284512.000
   32    13     1      0.1090 284512.000
   33    13     1      0.1090 284512.000
   34    13     1      0.1090 284512.000
    9     8     1      0.1510 234304.000
   11    10     1      0.1520 217568.000
   12    11     1      0.1449 282001.600

[ angles ]
;  ai    aj    ak funct            c0            c1            c2            c3 
    1     2     3     1    112.700    488.273
    1     2     4     1    112.700    488.273
    2     4     5     1    112.700    488.273
    4     5     6     1    112.700    488.273
    5     6     7     1    112.700    488.273
    6     7     8     1    117.200    313.800
    2     4     9     1    112.700    488.273
    7     8    10     1     83.000    251.040
    6     7    11     1    117.200    313.800
    8    10    12     1     89.000    669.440
   10    12    13     1    126.000    418.400
    2     1    14     1    110.700    313.800
    2     1    15     1    110.700    313.800
    2     1    16     1    110.700    313.800
    1     2    17     1    110.700    313.800
    2     3    18     1    110.700    313.800
    2     3    19     1    110.700    313.800
    2     3    20     1    110.700    313.800
    2     4    21     1    110.700    313.800
    4     5    22     1    110.700    313.800
    4     5    23     1    110.700    313.800
    5     6    24     1    110.700    313.800
    5     6    25     1    110.700    313.800
    6     7    26     1    114.300    292.880
    7     8    27     1    117.200    313.800
    4     9    28     1    110.700    313.800
    4     9    29     1    110.700    313.800
    8    10    30     1    117.200    313.800
    7    11    31     1    117.200    313.800
   12    13    32     1    109.500    292.880
   12    13    33     1    109.500    292.880
   12    13    34     1    109.500    292.880
   11    10    12     1     89.000    669.440
   33    13    34     1    107.800    276.144
   12    10    30     1    111.000    292.880
    7     6    24     1    110.700    313.800
    8     7    26     1    117.200    313.800
   22     5    23     1    107.800    276.144
   14     1    16     1    107.800    276.144
   10    11    31     1    117.200    313.800
    8     7    11     1     83.000    251.040
   24     6    25     1    107.800    276.144
    7     6    25     1    110.700    313.800
    6     5    22     1    110.700    313.800
    8     9    28     1    110.700    313.800
    3     2    17     1    110.700    313.800
    5     4     9     1    112.700    488.273
   12    11    31     1    111.000    292.880
   19     3    20     1    107.800    276.144
    9     4    21     1    110.700    313.800
   18     3    20     1    107.800    276.144
   14     1    15     1    107.800    276.144
   32    13    33     1    107.800    276.144
    4     9     8     1    112.700    488.273
    8    10    11     1     83.000    251.040
    9     8    27     1    114.300    292.880
   10    11    12     1     89.000    669.440
   10     8    27     1    117.200    313.800
   11     7    26     1    117.200    313.800
    3     2     4     1    112.700    488.273
   18     3    19     1    107.800    276.144
    4     2    17     1    110.700    313.800
    5     4    21     1    110.700    313.800
   15     1    16     1    107.800    276.144
   32    13    34     1    107.800    276.144
    6     5    23     1    110.700    313.800
    7    11    10     1     83.000    251.040
   11    12    13     1    126.000    418.400
   10    12    11     1    126.000    418.400
    7     8     9     1    117.200    313.800
    9     8    10     1    117.200    313.800
    8     9    29     1    110.700    313.800
   11    10    30     1    117.200    313.800
    7    11    12     1     89.000    669.440
   28     9    29     1    107.800    276.144

[ dihedrals ]
; IMPROPER DIHEDRAL ANGLES 
;  ai    aj    ak    al funct            c0            c1            c2            c3            c4            c5

[ dihedrals ]
; PROPER DIHEDRAL ANGLES
;  ai    aj    ak    al funct            c0            c1            c2            c3            c4            c5
    9    4    2    1        3       2.301  -1.464   0.837  -1.674  -0.000   0.000
    9    4    2    3        3       2.301  -1.464   0.837  -1.674  -0.000   0.000
    5    4    2    3        3       2.301  -1.464   0.837  -1.674  -0.000   0.000
    9    4    5    6        3       2.301  -1.464   0.837  -1.674  -0.000   0.000
    6    5    4    2        3       2.301  -1.464   0.837  -1.674  -0.000   0.000
    5    4    2    1        3       2.301  -1.464   0.837  -1.674  -0.000   0.000
    9    8    7    6        3       0.000   0.000   0.000  -0.000  -0.000   0.000
   13   12   10   11        3       0.000   0.000   0.000  -0.000  -0.000   0.000
   13   12   10    8        3       0.000   0.000   0.000  -0.000  -0.000   0.000
   13   12   11    7        3       0.000   0.000   0.000  -0.000  -0.000   0.000
   13   12   11   10        3       0.000   0.000   0.000  -0.000  -0.000   0.000
    7    6    5    4        3       2.301  -1.464   0.837  -1.674  -0.000   0.000
    8    9    4    5        3       2.301  -1.464   0.837  -1.674  -0.000   0.000
    8    9    4    2        3       2.301  -1.464   0.837  -1.674  -0.000   0.000
   10    8    9    4        3       0.000   0.000   0.000  -0.000  -0.000   0.000
   11    7    6    5        3       0.000   0.000   0.000  -0.000  -0.000   0.000
    8    7    6    5        3       0.000   0.000   0.000  -0.000  -0.000   0.000
    7    8    9    4        3       0.000   0.000   0.000  -0.000  -0.000   0.000
   11    7    8    9        3       0.000   0.000   0.000  -0.000  -0.000   0.000
   10    8    7    6        3       0.000   0.000   0.000  -0.000  -0.000   0.000
   11   10    8    9        3       0.000   0.000   0.000  -0.000  -0.000   0.000
   10   11    7    6        3       0.000   0.000   0.000  -0.000  -0.000   0.000
   28    9    4    5        3       0.628   1.883   0.000  -2.510  -0.000   0.000
   18    3    2    1        3       0.628   1.883   0.000  -2.510  -0.000   0.000
   21    4    5    6        3       0.628   1.883   0.000  -2.510  -0.000   0.000
   16    1    2    4        3       0.628   1.883   0.000  -2.510  -0.000   0.000
   19    3    2    4        3       0.628   1.883   0.000  -2.510  -0.000   0.000
   29    9    4    2        3       0.628   1.883   0.000  -2.510  -0.000   0.000
   19    3    2    1        3       0.628   1.883   0.000  -2.510  -0.000   0.000
   22    5    4    9        3       0.628   1.883   0.000  -2.510  -0.000   0.000
   15    1    2    3        3       0.628   1.883   0.000  -2.510  -0.000   0.000
   21    4    2    3        3       0.628   1.883   0.000  -2.510  -0.000   0.000
   14    1    2    3        3       0.628   1.883   0.000  -2.510  -0.000   0.000
   20    3    2    1        3       0.628   1.883   0.000  -2.510  -0.000   0.000
   23    5    4    9        3       0.628   1.883   0.000  -2.510  -0.000   0.000
   14    1    2    4        3       0.628   1.883   0.000  -2.510  -0.000   0.000
   25    6    5    4        3       0.628   1.883   0.000  -2.510  -0.000   0.000
   20    3    2    4        3       0.628   1.883   0.000  -2.510  -0.000   0.000
   22    5    4    2        3       0.628   1.883   0.000  -2.510  -0.000   0.000
   17    2    4    5        3       0.628   1.883   0.000  -2.510  -0.000   0.000
   15    1    2    4        3       0.628   1.883   0.000  -2.510  -0.000   0.000
   24    6    5    4        3       0.628   1.883   0.000  -2.510  -0.000   0.000
   16    1    2    3        3       0.628   1.883   0.000  -2.510  -0.000   0.000
   21    4    2    1        3       0.628   1.883   0.000  -2.510  -0.000   0.000
   23    5    4    2        3       0.628   1.883   0.000  -2.510  -0.000   0.000
   18    3    2    4        3       0.628   1.883   0.000  -2.510  -0.000   0.000
   29    9    4    5        3       0.628   1.883   0.000  -2.510  -0.000   0.000
   17    2    4    9        3       0.628   1.883   0.000  -2.510  -0.000   0.000
   28    9    4    2        3       0.628   1.883   0.000  -2.510  -0.000   0.000
   21    4    9    8        3       0.628   1.883   0.000  -2.510  -0.000   0.000
   23    5    6    7        3       0.628   1.883   0.000  -2.510  -0.000   0.000
   22    5    6    7        3       0.628   1.883   0.000  -2.510  -0.000   0.000
   24    6    5   23        3       0.628   1.883   0.000  -2.510  -0.000   0.000
   23    5    4   21        3       0.628   1.883   0.000  -2.510  -0.000   0.000
   22    5    4   21        3       0.628   1.883   0.000  -2.510  -0.000   0.000
   24    6    5   22        3       0.628   1.883   0.000  -2.510  -0.000   0.000
   29    9    4   21        3       0.628   1.883   0.000  -2.510  -0.000   0.000
   21    4    2   17        3       0.628   1.883   0.000  -2.510  -0.000   0.000
   18    3    2   17        3       0.628   1.883   0.000  -2.510  -0.000   0.000
   17    2    1   14        3       0.628   1.883   0.000  -2.510  -0.000   0.000
   19    3    2   17        3       0.628   1.883   0.000  -2.510  -0.000   0.000
   25    6    5   22        3       0.628   1.883   0.000  -2.510  -0.000   0.000
   28    9    4   21        3       0.628   1.883   0.000  -2.510  -0.000   0.000
   17    2    1   15        3       0.628   1.883   0.000  -2.510  -0.000   0.000
   20    3    2   17        3       0.628   1.883   0.000  -2.510  -0.000   0.000
   25    6    5   23        3       0.628   1.883   0.000  -2.510  -0.000   0.000
   17    2    1   16        3       0.628   1.883   0.000  -2.510  -0.000   0.000
   29    9    8   10        3       0.628   1.883   0.000  -2.510  -0.000   0.000
   28    9    8    7        3       0.628   1.883   0.000  -2.510  -0.000   0.000
   25    6    7   11        3       0.628   1.883   0.000  -2.510  -0.000   0.000
   24    6    7    8        3       0.628   1.883   0.000  -2.510  -0.000   0.000
   24    6    7   11        3       0.628   1.883   0.000  -2.510  -0.000   0.000
   28    9    8   10        3       0.628   1.883   0.000  -2.510  -0.000   0.000
   29    9    8    7        3       0.628   1.883   0.000  -2.510  -0.000   0.000
   25    6    7    8        3       0.628   1.883   0.000  -2.510  -0.000   0.000
   29    9    8   27        3       0.628   1.883   0.000  -2.510  -0.000   0.000
   28    9    8   27        3       0.628   1.883   0.000  -2.510  -0.000   0.000
   32   13   12   10        3       0.000   0.000   0.000  -0.000  -0.000   0.000
   34   13   12   11        3       0.000   0.000   0.000  -0.000  -0.000   0.000
   34   13   12   10        3       0.000   0.000   0.000  -0.000  -0.000   0.000
   33   13   12   11        3       0.000   0.000   0.000  -0.000  -0.000   0.000
   32   13   12   11        3       0.000   0.000   0.000  -0.000  -0.000   0.000
   33   13   12   10        3       0.000   0.000   0.000  -0.000  -0.000   0.000
   27    8    9    4        3       0.628   1.883   0.000  -2.510  -0.000   0.000
   26    7    6    5        3       0.628   1.883   0.000  -2.510  -0.000   0.000
   26    7    6   25        3       0.628   1.883   0.000  -2.510  -0.000   0.000
   26    7    6   24        3       0.628   1.883   0.000  -2.510  -0.000   0.000
   26    7    8    9        3       0.000   0.000   0.000  -0.000  -0.000   0.000
   27    8    7    6        3       0.000   0.000   0.000  -0.000  -0.000   0.000
   31   11    7    6        3       0.000   0.000   0.000  -0.000  -0.000   0.000
   30   10    8    9        3       0.000   0.000   0.000  -0.000  -0.000   0.000
   26    7   11   10        3       0.000   0.000   0.000  -0.000  -0.000   0.000
   30   10   11    7        3       0.000   0.000   0.000  -0.000  -0.000   0.000
   26    7    8   10        3       0.000   0.000   0.000  -0.000  -0.000   0.000
   30   10    8    7        3       0.000   0.000   0.000  -0.000  -0.000   0.000
   27    8   10   11        3       0.000   0.000   0.000  -0.000  -0.000   0.000
   31   11   10    8        3       0.000   0.000   0.000  -0.000  -0.000   0.000
   31   11    7    8        3       0.000   0.000   0.000  -0.000  -0.000   0.000
   27    8    7   11        3       0.000   0.000   0.000  -0.000  -0.000   0.000
   27    8    7   26        3       0.000   0.000   0.000  -0.000  -0.000   0.000
   30   10    8   27        3       0.000   0.000   0.000  -0.000  -0.000   0.000
   31   11    7   26        3       0.000   0.000   0.000  -0.000  -0.000   0.000
   31   11   10   30        3       0.000   0.000   0.000  -0.000  -0.000   0.000
   31   11   10   12        3       0.000   0.000   0.000  -0.000  -0.000   0.000
   30   10   11   12        3       0.000   0.000   0.000  -0.000  -0.000   0.000
   26    7   11   12        3       0.000   0.000   0.000  -0.000  -0.000   0.000
   27    8   10   12        3       0.000   0.000   0.000  -0.000  -0.000   0.000
   31   11   12   13        3       0.000   0.000   0.000  -0.000  -0.000   0.000
   30   10   12   13        3       0.000   0.000   0.000  -0.000  -0.000   0.000
   31   11   12   10        3       0.000   0.000   0.000  -0.000  -0.000   0.000
   30   10   12   11        3       0.000   0.000   0.000  -0.000  -0.000   0.000
   12   11    7    6        3       0.000   0.000   0.000  -0.000  -0.000   0.000
   12   10    8    9        3       0.000   0.000   0.000  -0.000  -0.000   0.000
   12   11    7    8        3       0.000   0.000   0.000  -0.000  -0.000   0.000
   12   10    8   11        3       0.000   0.000   0.000  -0.000  -0.000   0.000
   12   10    8    7        3       0.000   0.000   0.000  -0.000  -0.000   0.000

[ pairs ]
     1     5    1
     3     5    1
     2     6    1
     2     8    1
     1     9    1
     4     7    1
     3     9    1
     5     8    1
     4    10    1
     6     9    1
     6    10    1
     5    11    1
     3    14    1
     6    12    1
     4    14    1
     3    15    1
     4    15    1
     3    16    1
     1    18    1
     9    11    1
     7    13    1
     4    16    1
     1    19    1
     9    12    1
     8    13    1
     1    20    1
     5    17    1
     4    18    1
     1    21    1
     4    19    1
     4    20    1
     3    21    1
     2    22    1
     2    23    1
     9    17    1
     6    21    1
     4    24    1
     8    21    1
     7    22    1
     4    25    1
     7    23    1
     2    28    1
    14    17    1
     9    22    1
     5    26    1
     4    27    1
     2    29    1
    15    17    1
     9    23    1
     8    24    1
    16    17    1
     8    25    1
     6    27    1
     5    28    1
     5    29    1
    17    18    1
    11    24    1
     9    26    1
     7    28    1
    17    19    1
    11    25    1
    10    26    1
     7    29    1
    17    20    1
     7    30    1
     6    31    1
    17    21    1
    12    26    1
    11    27    1
    10    28    1
    12    27    1
    10    29    1
     9    30    1
     8    31    1
    10    32    1
    21    22    1
    13    30    1
    11    32    1
    10    33    1
    21    23    1
    13    31    1
    11    33    1
    10    34    1
    11    34    1
    22    24    1
    23    24    1
    22    25    1
    23    25    1
    21    28    1
    24    26    1
    21    29    1
    25    26    1
    26    27    1
    27    28    1
    27    29    1
    27    30    1
    26    31    1
    30    31    1

