LIGPARGEN GENERATED GRO FILE
   34
    1UNK    C00    1   0.100   0.100   0.000
    1UNK    C01    2  -0.053   0.100   0.000
    1UNK    C02    3  -0.102   0.100   0.146
    1UNK    C03    4  -0.114   0.218  -0.084
    1UNK    C04    5  -0.270   0.216  -0.083
    1UNK    C05    6  -0.328   0.095  -0.160
    1UNK    C06    7  -0.274   0.104  -0.301
    1UNK    C07    8  -0.120   0.095  -0.300
    1UNK    C08    9  -0.066   0.219  -0.233
    1UNK    C09   10  -0.134   0.078  -0.450
    1UNK    C0A   11  -0.270  -0.014  -0.394
    1UNK    N0B   12  -0.195  -0.034  -0.514
    1UNK    C0C   13  -0.266   0.005  -0.636
    1UNK    H0D   14   0.138   0.016   0.060
    1UNK    H0E   15   0.140   0.193   0.043
    1UNK    H0F   16   0.141   0.088  -0.101
    1UNK    H0G   17  -0.085   0.004  -0.043
    1UNK    H0H   18  -0.073   0.192   0.197
    1UNK    H0I   19  -0.059   0.015   0.200
    1UNK    H0J   20  -0.210   0.089   0.152
    1UNK    H0K   21  -0.081   0.312  -0.038
    1UNK    H0M   22  -0.305   0.308  -0.131
    1UNK    H0N   23  -0.309   0.218   0.019
    1UNK    H0O   24  -0.437   0.101  -0.160
    1UNK    H0P   25  -0.301   0.001  -0.111
    1UNK    H0Q   26  -0.316   0.194  -0.350
    1UNK    H0R   27  -0.076   0.005  -0.255
    1UNK    H0S   28  -0.104   0.310  -0.282
    1UNK    H0T   29   0.043   0.224  -0.240
    1UNK    H0U   30  -0.030   0.058  -0.472
    1UNK    H0V   31  -0.374  -0.018  -0.423
    1UNK    H0W   32  -0.334  -0.075  -0.666
    1UNK    H0X   33  -0.194   0.020  -0.717
    1UNK    H0Y   34  -0.324   0.097  -0.624
   1.00000   1.00000   1.00000

