LIGPARGEN GENERATED GRO FILE
   47
    1UNK    C00    1   0.100   0.100   0.000
    1UNK    C01    2  -0.052   0.100   0.000
    1UNK    C02    3  -0.114   0.100   0.141
    1UNK    C03    4  -0.076   0.223   0.224
    1UNK    N04    5  -0.143   0.229   0.356
    1UNK    C05    6  -0.109   0.114   0.440
    1UNK    C06    7  -0.106   0.353   0.424
    1UNK    O07    8  -0.101   0.217  -0.068
    1UNK    C08    9  -0.167   0.195  -0.184
    1UNK    O09   10  -0.162   0.092  -0.250
    1UNK    O0A   11  -0.246   0.302  -0.207
    1UNK    C0B   12  -0.342   0.296  -0.314
    1UNK    C0C   13  -0.277   0.292  -0.452
    1UNK    C0D   14  -0.390   0.246  -0.541
    1UNK    C0E   15  -0.464   0.142  -0.459
    1UNK    C0F   16  -0.441   0.175  -0.310
    1UNK    N0G   17  -0.567   0.203  -0.235
    1UNK    C0H   18  -0.656   0.086  -0.234
    1UNK    C0I   19  -0.539   0.240  -0.096
    1UNK    H0J   20   0.139   0.012   0.053
    1UNK    H0K   21   0.141   0.190   0.046
    1UNK    H0M   22   0.138   0.098  -0.103
    1UNK    H0N   23  -0.086   0.008  -0.050
    1UNK    H0O   24  -0.083   0.008   0.191
    1UNK    H0P   25  -0.223   0.098   0.130
    1UNK    H0Q   26  -0.105   0.313   0.168
    1UNK    H0R   27   0.033   0.227   0.238
    1UNK    H0S   28  -0.151   0.022   0.399
    1UNK    H0T   29  -0.153   0.125   0.540
    1UNK    H0U   30  -0.001   0.102   0.451
    1UNK    H0V   31  -0.136   0.440   0.364
    1UNK    H0W   32   0.002   0.359   0.443
    1UNK    H0X   33  -0.159   0.362   0.520
    1UNK    H0Y   34  -0.399   0.389  -0.308
    1UNK    H0Z   35  -0.192   0.222  -0.457
    1UNK    H10   36  -0.238   0.391  -0.481
    1UNK    H11   37  -0.354   0.206  -0.636
    1UNK    H12   38  -0.457   0.331  -0.563
    1UNK    H13   39  -0.423   0.042  -0.479
    1UNK    H14   40  -0.569   0.140  -0.489
    1UNK    H15   41  -0.395   0.088  -0.262
    1UNK    H16   42  -0.688   0.058  -0.335
    1UNK    H17   43  -0.748   0.108  -0.178
    1UNK    H18   44  -0.608  -0.002  -0.188
    1UNK    H19   45  -0.484   0.334  -0.090
    1UNK    H1A   46  -0.484   0.163  -0.042
    1UNK    H1B   47  -0.633   0.258  -0.042
   1.00000   1.00000   1.00000

