
;
; GENERATED BY LigParGen Server
; Jorgensen Lab @ Yale University 
;
[ atomtypes ]
  opls_814  C814    12.0110     0.000    A    3.50000E-01   2.76144E-01
  opls_824  H824     1.0080     0.000    A    2.50000E-01   1.25520E-01
  opls_815  C815    12.0110     0.000    A    3.50000E-01   2.76144E-01
  opls_810  O810    15.9990     0.000    A    2.90000E-01   5.85760E-01
  opls_818  C818    12.0110     0.000    A    3.50000E-01   2.76144E-01
  opls_843  H843     1.0080     0.000    A    2.50000E-01   1.25520E-01
  opls_836  H836     1.0080     0.000    A    2.50000E-01   1.25520E-01
  opls_834  H834     1.0080     0.000    A    2.50000E-01   1.25520E-01
  opls_828  H828     1.0080     0.000    A    2.50000E-01   1.25520E-01
  opls_802  C802    12.0110     0.000    A    3.50000E-01   2.76144E-01
  opls_827  H827     1.0080     0.000    A    2.50000E-01   1.25520E-01
  opls_801  C801    12.0110     0.000    A    3.50000E-01   2.76144E-01
  opls_806  C806    12.0110     0.000    A    3.50000E-01   2.76144E-01
  opls_822  H822     1.0080     0.000    A    2.50000E-01   1.25520E-01
  opls_803  C803    12.0110     0.000    A    3.50000E-01   2.76144E-01
  opls_838  H838     1.0080     0.000    A    2.50000E-01   1.25520E-01
  opls_804  N804    14.0070     0.000    A    3.30000E-01   7.11280E-01
  opls_830  H830     1.0080     0.000    A    2.50000E-01   1.25520E-01
  opls_809  O809    15.9990     0.000    A    2.96000E-01   8.78640E-01
  opls_821  H821     1.0080     0.000    A    2.50000E-01   1.25520E-01
  opls_842  H842     1.0080     0.000    A    2.50000E-01   1.25520E-01
  opls_820  H820     1.0080     0.000    A    2.50000E-01   1.25520E-01
  opls_837  H837     1.0080     0.000    A    2.50000E-01   1.25520E-01
  opls_829  H829     1.0080     0.000    A    2.50000E-01   1.25520E-01
  opls_831  H831     1.0080     0.000    A    2.50000E-01   1.25520E-01
  opls_816  N816    14.0070     0.000    A    3.30000E-01   7.11280E-01
  opls_832  H832     1.0080     0.000    A    2.50000E-01   1.25520E-01
  opls_800  C800    12.0110     0.000    A    3.50000E-01   2.76144E-01
  opls_846  H846     1.0080     0.000    A    2.50000E-01   1.25520E-01
  opls_811  C811    12.0110     0.000    A    3.50000E-01   2.76144E-01
  opls_823  H823     1.0080     0.000    A    2.50000E-01   1.25520E-01
  opls_813  C813    12.0110     0.000    A    3.50000E-01   2.76144E-01
  opls_826  H826     1.0080     0.000    A    2.50000E-01   1.25520E-01
  opls_835  H835     1.0080     0.000    A    2.50000E-01   1.25520E-01
  opls_841  H841     1.0080     0.000    A    2.50000E-01   1.25520E-01
  opls_825  H825     1.0080     0.000    A    2.50000E-01   1.25520E-01
  opls_819  H819     1.0080     0.000    A    2.50000E-01   1.25520E-01
  opls_805  C805    12.0110     0.000    A    3.50000E-01   2.76144E-01
  opls_833  H833     1.0080     0.000    A    2.50000E-01   1.25520E-01
  opls_839  H839     1.0080     0.000    A    2.50000E-01   1.25520E-01
  opls_817  C817    12.0110     0.000    A    3.50000E-01   2.76144E-01
  opls_812  C812    12.0110     0.000    A    3.50000E-01   2.76144E-01
  opls_807  O807    15.9990     0.000    A    2.90000E-01   5.85760E-01
  opls_840  H840     1.0080     0.000    A    2.50000E-01   1.25520E-01
  opls_844  H844     1.0080     0.000    A    2.50000E-01   1.25520E-01
  opls_845  H845     1.0080     0.000    A    2.50000E-01   1.25520E-01
  opls_808  C808    12.0110     0.000    A    3.55000E-01   2.92880E-01
[ moleculetype ]
; Name               nrexcl
UNK                   3
[ atoms ]
;   nr       type  resnr residue  atom   cgnr     charge       mass  
     1   opls_800      1    UNK   C00      1    -0.2592    12.0110 
     2   opls_801      1    UNK   C01      1     0.0777    12.0110 
     3   opls_802      1    UNK   C02      1    -0.1895    12.0110 
     4   opls_803      1    UNK   C03      1     0.0071    12.0110 
     5   opls_804      1    UNK   N04      1    -0.5701    14.0070 
     6   opls_805      1    UNK   C05      1    -0.0569    12.0110 
     7   opls_806      1    UNK   C06      1    -0.0546    12.0110 
     8   opls_807      1    UNK   O07      1    -0.3312    15.9990 
     9   opls_808      1    UNK   C08      1     0.5815    12.0110 
    10   opls_809      1    UNK   O09      1    -0.5024    15.9990 
    11   opls_810      1    UNK   O0A      1    -0.3266    15.9990 
    12   opls_811      1    UNK   C0B      1       0.09    12.0110 
    13   opls_812      1    UNK   C0C      1    -0.2164    12.0110 
    14   opls_813      1    UNK   C0D      1    -0.1799    12.0110 
    15   opls_814      1    UNK   C0E      1    -0.1736    12.0110 
    16   opls_815      1    UNK   C0F      1     0.0384    12.0110 
    17   opls_816      1    UNK   N0G      1    -0.5733    14.0070 
    18   opls_817      1    UNK   C0H      1     -0.053    12.0110 
    19   opls_818      1    UNK   C0I      1     -0.061    12.0110 
    20   opls_819      1    UNK   H0J      1     0.1005     1.0080 
    21   opls_820      1    UNK   H0K      1     0.1005     1.0080 
    22   opls_821      1    UNK   H0M      1     0.1005     1.0080 
    23   opls_822      1    UNK   H0N      1     0.1313     1.0080 
    24   opls_823      1    UNK   H0O      1     0.1099     1.0080 
    25   opls_824      1    UNK   H0P      1     0.1099     1.0080 
    26   opls_825      1    UNK   H0Q      1     0.0936     1.0080 
    27   opls_826      1    UNK   H0R      1     0.0936     1.0080 
    28   opls_827      1    UNK   H0S      1     0.0808     1.0080 
    29   opls_828      1    UNK   H0T      1     0.0808     1.0080 
    30   opls_829      1    UNK   H0U      1     0.0808     1.0080 
    31   opls_830      1    UNK   H0V      1     0.0831     1.0080 
    32   opls_831      1    UNK   H0W      1     0.0831     1.0080 
    33   opls_832      1    UNK   H0X      2     0.0831     1.0080 
    34   opls_833      1    UNK   H0Y      2     0.1617     1.0080 
    35   opls_834      1    UNK   H0Z      2     0.1164     1.0080 
    36   opls_835      1    UNK   H10      2     0.1164     1.0080 
    37   opls_836      1    UNK   H11      2     0.0997     1.0080 
    38   opls_837      1    UNK   H12      2     0.0997     1.0080 
    39   opls_838      1    UNK   H13      2     0.1049     1.0080 
    40   opls_839      1    UNK   H14      2     0.1049     1.0080 
    41   opls_840      1    UNK   H15      2     0.1066     1.0080 
    42   opls_841      1    UNK   H16      2     0.0833     1.0080 
    43   opls_842      1    UNK   H17      2     0.0833     1.0080 
    44   opls_843      1    UNK   H18      2     0.0833     1.0080 
    45   opls_844      1    UNK   H19      2     0.0871     1.0080 
    46   opls_845      1    UNK   H1A      2     0.0871     1.0080 
    47   opls_846      1    UNK   H1B      2     0.0871     1.0080 
[ bonds ]
    2     1     1      0.1529 224262.400
    3     2     1      0.1529 224262.400
    4     3     1      0.1529 224262.400
    5     4     1      0.1448 319657.600
    6     5     1      0.1448 319657.600
    7     5     1      0.1448 319657.600
    8     2     1      0.1410 267776.000
    9     8     1      0.1327 179075.200
   10     9     1      0.1229 476976.000
   11     9     1      0.1327 179075.200
   12    11     1      0.1410 267776.000
   13    12     1      0.1529 224262.400
   14    13     1      0.1529 224262.400
   15    14     1      0.1529 224262.400
   16    12     1      0.1529 224262.400
   17    16     1      0.1448 319657.600
   18    17     1      0.1448 319657.600
   19    17     1      0.1448 319657.600
   20     1     1      0.1090 284512.000
   21     1     1      0.1090 284512.000
   22     1     1      0.1090 284512.000
   23     2     1      0.1090 284512.000
   24     3     1      0.1090 284512.000
   25     3     1      0.1090 284512.000
   26     4     1      0.1090 284512.000
   27     4     1      0.1090 284512.000
   28     6     1      0.1090 284512.000
   29     6     1      0.1090 284512.000
   30     6     1      0.1090 284512.000
   31     7     1      0.1090 284512.000
   32     7     1      0.1090 284512.000
   33     7     1      0.1090 284512.000
   34    12     1      0.1090 284512.000
   35    13     1      0.1090 284512.000
   36    13     1      0.1090 284512.000
   37    14     1      0.1090 284512.000
   38    14     1      0.1090 284512.000
   39    15     1      0.1090 284512.000
   40    15     1      0.1090 284512.000
   41    16     1      0.1090 284512.000
   42    18     1      0.1090 284512.000
   43    18     1      0.1090 284512.000
   44    18     1      0.1090 284512.000
   45    19     1      0.1090 284512.000
   46    19     1      0.1090 284512.000
   47    19     1      0.1090 284512.000
   16    15     1      0.1529 224262.400

[ angles ]
;  ai    aj    ak funct            c0            c1            c2            c3 
    1     2     3     1    112.700    488.273
    2     3     4     1    112.700    488.273
    3     4     5     1    109.470    470.282
    4     5     6     1    107.200    433.462
    4     5     7     1    107.200    433.462
    1     2     8     1    109.500    418.400
    2     8     9     1    116.900    694.544
    8     9    10     1    123.400    694.544
    8     9    11     1    118.180    584.923
    9    11    12     1    116.900    694.544
   11    12    13     1    109.500    418.400
   12    13    14     1    112.700    488.273
   13    14    15     1    112.700    488.273
   11    12    16     1    109.500    418.400
   12    16    17     1    109.470    470.282
   16    17    18     1    107.200    433.462
   16    17    19     1    107.200    433.462
    2     1    20     1    110.700    313.800
    2     1    21     1    110.700    313.800
    2     1    22     1    110.700    313.800
    1     2    23     1    110.700    313.800
    2     3    24     1    110.700    313.800
    2     3    25     1    110.700    313.800
    3     4    26     1    110.700    313.800
    3     4    27     1    110.700    313.800
    5     6    28     1    109.500    292.880
    5     6    29     1    109.500    292.880
    5     6    30     1    109.500    292.880
    5     7    31     1    109.500    292.880
    5     7    32     1    109.500    292.880
    5     7    33     1    109.500    292.880
   11    12    34     1    109.500    292.880
   12    13    35     1    110.700    313.800
   12    13    36     1    110.700    313.800
   13    14    37     1    110.700    313.800
   13    14    38     1    110.700    313.800
   14    15    39     1    110.700    313.800
   14    15    40     1    110.700    313.800
   12    16    41     1    110.700    313.800
   17    18    42     1    109.500    292.880
   17    18    43     1    109.500    292.880
   17    18    44     1    109.500    292.880
   17    19    45     1    109.500    292.880
   17    19    46     1    109.500    292.880
   17    19    47     1    109.500    292.880
   42    18    44     1    107.800    276.144
   16    15    40     1    110.700    313.800
    8     2    23     1    109.500    292.880
   16    12    34     1    110.700    313.800
   16    15    39     1    110.700    313.800
   26     4    27     1    107.800    276.144
   39    15    40     1    107.800    276.144
   45    19    47     1    107.800    276.144
    4     3    24     1    110.700    313.800
    5     4    27     1    109.500    292.880
   28     6    29     1    107.800    276.144
   20     1    21     1    107.800    276.144
   24     3    25     1    107.800    276.144
    5     4    26     1    109.500    292.880
   14    13    35     1    110.700    313.800
   37    14    38     1    107.800    276.144
   13    12    34     1    110.700    313.800
   43    18    44     1    107.800    276.144
   10     9    11     1    123.400    694.544
   15    14    37     1    110.700    313.800
   31     7    32     1    107.800    276.144
    6     5     7     1    107.200    433.462
   35    13    36     1    107.800    276.144
   46    19    47     1    107.800    276.144
   14    13    36     1    110.700    313.800
   15    16    17     1    109.470    470.282
   20     1    22     1    107.800    276.144
   17    16    41     1    109.500    292.880
   32     7    33     1    107.800    276.144
    3     2     8     1    109.500    418.400
   15    14    38     1    110.700    313.800
   42    18    43     1    107.800    276.144
   13    12    16     1    112.700    488.273
   28     6    30     1    107.800    276.144
    4     3    25     1    110.700    313.800
   21     1    22     1    107.800    276.144
   29     6    30     1    107.800    276.144
   14    15    16     1    112.700    488.273
   45    19    46     1    107.800    276.144
   12    16    15     1    112.700    488.273
   15    16    41     1    110.700    313.800
    3     2    23     1    110.700    313.800
   18    17    19     1    107.200    433.462
   31     7    33     1    107.800    276.144

[ dihedrals ]
; IMPROPER DIHEDRAL ANGLES 
;  ai    aj    ak    al funct            c0            c1            c2            c3            c4            c5
    11     9     8    10    4        180.000     43.932     2  

[ dihedrals ]
; PROPER DIHEDRAL ANGLES
;  ai    aj    ak    al funct            c0            c1            c2            c3            c4            c5
    9    8    2    3        3      -2.197   5.201   0.527  -3.531  -0.000   0.000
    9    8    2    1        3      -2.197   5.201   0.527  -3.531  -0.000   0.000
    4    3    2    1        3       2.301  -1.464   0.837  -1.674  -0.000   0.000
   16   15   14   13        3       2.301  -1.464   0.837  -1.674  -0.000   0.000
   16   12   13   14        3       2.301  -1.464   0.837  -1.674  -0.000   0.000
   14   15   16   12        3       2.301  -1.464   0.837  -1.674  -0.000   0.000
   15   14   13   12        3       2.301  -1.464   0.837  -1.674  -0.000   0.000
   15   16   12   13        3       2.301  -1.464   0.837  -1.674  -0.000   0.000
   14   13   12   11        3       2.874   0.582   2.092  -5.548  -0.000   0.000
   15   16   12   11        3       2.874   0.582   2.092  -5.548  -0.000   0.000
   13   12   11    9        3      -2.197   5.201   0.527  -3.531  -0.000   0.000
   16   12   11    9        3      -2.197   5.201   0.527  -3.531  -0.000   0.000
    6    5    4    3        3       1.789   3.492   0.536  -5.816  -0.000   0.000
   18   17   16   12        3       1.789   3.492   0.536  -5.816  -0.000   0.000
   18   17   16   15        3       1.789   3.492   0.536  -5.816  -0.000   0.000
   19   17   16   15        3       1.789   3.492   0.536  -5.816  -0.000   0.000
    7    5    4    3        3       1.789   3.492   0.536  -5.816  -0.000   0.000
   19   17   16   12        3       1.789   3.492   0.536  -5.816  -0.000   0.000
   12   11    9   10        3      21.439   0.000  -21.439  -0.000  -0.000   0.000
   12   11    9    8        3      31.206  -9.768  -21.439  -0.000  -0.000   0.000
   40   15   16   12        3       0.628   1.883   0.000  -2.510  -0.000   0.000
   27    4    3    2        3       0.628   1.883   0.000  -2.510  -0.000   0.000
   38   14   15   16        3       0.628   1.883   0.000  -2.510  -0.000   0.000
   40   15   14   13        3       0.628   1.883   0.000  -2.510  -0.000   0.000
   39   15   16   12        3       0.628   1.883   0.000  -2.510  -0.000   0.000
   39   15   14   13        3       0.628   1.883   0.000  -2.510  -0.000   0.000
   23    2    3    4        3       0.628   1.883   0.000  -2.510  -0.000   0.000
   41   16   12   13        3       0.628   1.883   0.000  -2.510  -0.000   0.000
   37   14   15   16        3       0.628   1.883   0.000  -2.510  -0.000   0.000
   20    1    2    3        3       0.628   1.883   0.000  -2.510  -0.000   0.000
   41   16   15   14        3       0.628   1.883   0.000  -2.510  -0.000   0.000
   37   14   13   12        3       0.628   1.883   0.000  -2.510  -0.000   0.000
   21    1    2    3        3       0.628   1.883   0.000  -2.510  -0.000   0.000
   34   12   13   14        3       0.628   1.883   0.000  -2.510  -0.000   0.000
   26    4    3    2        3       0.628   1.883   0.000  -2.510  -0.000   0.000
   36   13   14   15        3       0.628   1.883   0.000  -2.510  -0.000   0.000
   22    1    2    3        3       0.628   1.883   0.000  -2.510  -0.000   0.000
   36   13   12   16        3       0.628   1.883   0.000  -2.510  -0.000   0.000
   34   12   16   15        3       0.628   1.883   0.000  -2.510  -0.000   0.000
   24    3    2    1        3       0.628   1.883   0.000  -2.510  -0.000   0.000
   35   13   14   15        3       0.628   1.883   0.000  -2.510  -0.000   0.000
   35   13   12   16        3       0.628   1.883   0.000  -2.510  -0.000   0.000
   25    3    2    1        3       0.628   1.883   0.000  -2.510  -0.000   0.000
   38   14   13   12        3       0.628   1.883   0.000  -2.510  -0.000   0.000
   41   16   12   34        3       0.628   1.883   0.000  -2.510  -0.000   0.000
   39   15   14   38        3       0.628   1.883   0.000  -2.510  -0.000   0.000
   23    2    1   20        3       0.628   1.883   0.000  -2.510  -0.000   0.000
   41   16   15   40        3       0.628   1.883   0.000  -2.510  -0.000   0.000
   40   15   14   37        3       0.628   1.883   0.000  -2.510  -0.000   0.000
   24    3    2   23        3       0.628   1.883   0.000  -2.510  -0.000   0.000
   26    4    3   24        3       0.628   1.883   0.000  -2.510  -0.000   0.000
   27    4    3   24        3       0.628   1.883   0.000  -2.510  -0.000   0.000
   41   16   15   39        3       0.628   1.883   0.000  -2.510  -0.000   0.000
   37   14   13   36        3       0.628   1.883   0.000  -2.510  -0.000   0.000
   36   13   12   34        3       0.628   1.883   0.000  -2.510  -0.000   0.000
   40   15   14   38        3       0.628   1.883   0.000  -2.510  -0.000   0.000
   23    2    1   22        3       0.628   1.883   0.000  -2.510  -0.000   0.000
   37   14   13   35        3       0.628   1.883   0.000  -2.510  -0.000   0.000
   38   14   13   36        3       0.628   1.883   0.000  -2.510  -0.000   0.000
   26    4    3   25        3       0.628   1.883   0.000  -2.510  -0.000   0.000
   38   14   13   35        3       0.628   1.883   0.000  -2.510  -0.000   0.000
   25    3    2   23        3       0.628   1.883   0.000  -2.510  -0.000   0.000
   23    2    1   21        3       0.628   1.883   0.000  -2.510  -0.000   0.000
   35   13   12   34        3       0.628   1.883   0.000  -2.510  -0.000   0.000
   27    4    3   25        3       0.628   1.883   0.000  -2.510  -0.000   0.000
   39   15   14   37        3       0.628   1.883   0.000  -2.510  -0.000   0.000
   25    3    4    5        3      -4.096   5.088   2.966  -3.958  -0.000   0.000
   24    3    4    5        3      -4.096   5.088   2.966  -3.958  -0.000   0.000
   39   15   16   17        3      -4.096   5.088   2.966  -3.958  -0.000   0.000
   40   15   16   17        3      -4.096   5.088   2.966  -3.958  -0.000   0.000
   34   12   16   17        3      -4.096   5.088   2.966  -3.958  -0.000   0.000
   36   13   12   11        3       0.979   2.937   0.000  -3.916  -0.000   0.000
   22    1    2    8        3       0.979   2.937   0.000  -3.916  -0.000   0.000
   24    3    2    8        3       0.979   2.937   0.000  -3.916  -0.000   0.000
   25    3    2    8        3       0.979   2.937   0.000  -3.916  -0.000   0.000
   21    1    2    8        3       0.979   2.937   0.000  -3.916  -0.000   0.000
   41   16   12   11        3       0.979   2.937   0.000  -3.916  -0.000   0.000
   35   13   12   11        3       0.979   2.937   0.000  -3.916  -0.000   0.000
   20    1    2    8        3       0.979   2.937   0.000  -3.916  -0.000   0.000
   33    7    5    4        3       1.172   3.515   0.000  -4.686  -0.000   0.000
   31    7    5    6        3       1.172   3.515   0.000  -4.686  -0.000   0.000
   44   18   17   16        3       1.172   3.515   0.000  -4.686  -0.000   0.000
   44   18   17   19        3       1.172   3.515   0.000  -4.686  -0.000   0.000
   46   19   17   18        3       1.172   3.515   0.000  -4.686  -0.000   0.000
   42   18   17   16        3       1.172   3.515   0.000  -4.686  -0.000   0.000
   26    4    5    6        3       1.172   3.515   0.000  -4.686  -0.000   0.000
   32    7    5    4        3       1.172   3.515   0.000  -4.686  -0.000   0.000
   31    7    5    4        3       1.172   3.515   0.000  -4.686  -0.000   0.000
   28    6    5    4        3       1.172   3.515   0.000  -4.686  -0.000   0.000
   29    6    5    4        3       1.172   3.515   0.000  -4.686  -0.000   0.000
   45   19   17   16        3       1.172   3.515   0.000  -4.686  -0.000   0.000
   45   19   17   18        3       1.172   3.515   0.000  -4.686  -0.000   0.000
   29    6    5    7        3       1.172   3.515   0.000  -4.686  -0.000   0.000
   41   16   17   18        3       1.172   3.515   0.000  -4.686  -0.000   0.000
   33    7    5    6        3       1.172   3.515   0.000  -4.686  -0.000   0.000
   28    6    5    7        3       1.172   3.515   0.000  -4.686  -0.000   0.000
   26    4    5    7        3       1.172   3.515   0.000  -4.686  -0.000   0.000
   41   16   17   19        3       1.172   3.515   0.000  -4.686  -0.000   0.000
   27    4    5    6        3       1.172   3.515   0.000  -4.686  -0.000   0.000
   30    6    5    4        3       1.172   3.515   0.000  -4.686  -0.000   0.000
   32    7    5    6        3       1.172   3.515   0.000  -4.686  -0.000   0.000
   47   19   17   18        3       1.172   3.515   0.000  -4.686  -0.000   0.000
   46   19   17   16        3       1.172   3.515   0.000  -4.686  -0.000   0.000
   47   19   17   16        3       1.172   3.515   0.000  -4.686  -0.000   0.000
   30    6    5    7        3       1.172   3.515   0.000  -4.686  -0.000   0.000
   43   18   17   19        3       1.172   3.515   0.000  -4.686  -0.000   0.000
   42   18   17   19        3       1.172   3.515   0.000  -4.686  -0.000   0.000
   27    4    5    7        3       1.172   3.515   0.000  -4.686  -0.000   0.000
   43   18   17   16        3       1.172   3.515   0.000  -4.686  -0.000   0.000
   23    2    8    9        3       0.414   1.243   0.000  -1.657  -0.000   0.000
   34   12   11    9        3       0.414   1.243   0.000  -1.657  -0.000   0.000
   17   16   15   14        3       3.335  -1.552   2.820  -4.602  -0.000   0.000
   17   16   12   13        3       3.335  -1.552   2.820  -4.602  -0.000   0.000
    5    4    3    2        3       3.335  -1.552   2.820  -4.602  -0.000   0.000
   17   16   12   11        3      16.736  -16.736   0.000  -0.000  -0.000   0.000
   10    9    8    2        3      21.439   0.000  -21.439  -0.000  -0.000   0.000
   11    9    8    2        3      31.206  -9.768  -21.439  -0.000  -0.000   0.000
    8    2    3    4        3       2.874   0.582   2.092  -5.548  -0.000   0.000

[ pairs ]
     1     4    1
     2     5    1
     3     6    1
     3     7    1
     1     9    1
     4     8    1
     3     9    1
     2    10    1
     2    11    1
     8    12    1
    10    12    1
     9    13    1
     3    20    1
     3    21    1
    11    14    1
     9    16    1
     3    22    1
     1    24    1
    11    15    1
     1    25    1
     4    23    1
    11    17    1
     8    20    1
     2    26    1
     8    21    1
     5    24    1
     2    27    1
    13    17    1
    12    18    1
     8    22    1
     5    25    1
    14    17    1
    12    19    1
     9    23    1
     8    24    1
     6    26    1
     4    28    1
    15    18    1
     8    25    1
     7    26    1
     6    27    1
     4    29    1
    15    19    1
     7    27    1
     4    30    1
     7    28    1
     4    31    1
     7    29    1
     4    32    1
     7    30    1
     6    31    1
     4    33    1
     6    32    1
     6    33    1
    20    23    1
     9    34    1
    21    23    1
    22    23    1
    11    35    1
    23    24    1
    11    36    1
    23    25    1
    14    34    1
    15    34    1
    12    37    1
    24    26    1
    15    35    1
    12    38    1
    25    26    1
    24    27    1
    17    34    1
    16    35    1
    15    36    1
    12    39    1
    25    27    1
    16    36    1
    13    39    1
    12    40    1
    11    41    1
    16    37    1
    13    40    1
    16    38    1
    13    41    1
    14    41    1
    17    39    1
    17    40    1
    16    42    1
    18    41    1
    16    43    1
    19    41    1
    16    44    1
    19    42    1
    16    45    1
    19    43    1
    16    46    1
    19    44    1
    18    45    1
    16    47    1
    18    46    1
    18    47    1
    34    35    1
    34    36    1
    35    37    1
    36    37    1
    35    38    1
    36    38    1
    34    41    1
    37    39    1
    38    39    1
    37    40    1
    38    40    1
    39    41    1
    40    41    1

