LIGPARGEN GENERATED GRO FILE
   31
    1UNK    C00    1   0.100   0.100   0.000
    1UNK    C01    2  -0.054   0.100   0.000
    1UNK    C02    3  -0.094   0.100   0.149
    1UNK    C03    4  -0.121   0.216  -0.080
    1UNK    O04    5  -0.130   0.196  -0.221
    1UNK    C05    6  -0.015   0.185  -0.302
    1UNK    C06    7  -0.050   0.097  -0.422
    1UNK    C07    8  -0.131  -0.029  -0.384
    1UNK    O08    9  -0.266   0.008  -0.353
    1UNK    C09   10  -0.308  -0.030  -0.230
    1UNK    O0A   11  -0.262  -0.122  -0.163
    1UNK    O0B   12  -0.392   0.066  -0.183
    1UNK    C0C   13  -0.361   0.107  -0.051
    1UNK    C0D   14  -0.272   0.230  -0.048
    1UNK    O0E   15  -0.321   0.342  -0.026
    1UNK    H0F   16   0.137   0.025   0.070
    1UNK    H0G   17   0.140   0.197   0.031
    1UNK    H0H   18   0.145   0.073  -0.096
    1UNK    H0I   19  -0.085   0.005  -0.045
    1UNK    H0J   20  -0.029   0.166   0.207
    1UNK    H0K   21  -0.084  -0.002   0.189
    1UNK    H0M   22  -0.197   0.132   0.168
    1UNK    H0N   23  -0.072   0.312  -0.058
    1UNK    H0O   24   0.069   0.140  -0.250
    1UNK    H0P   25   0.017   0.285  -0.335
    1UNK    H0Q   26   0.043   0.067  -0.472
    1UNK    H0R   27  -0.110   0.157  -0.493
    1UNK    H0S   28  -0.080  -0.082  -0.303
    1UNK    H0T   29  -0.136  -0.096  -0.471
    1UNK    H0U   30  -0.318   0.026   0.010
    1UNK    H0V   31  -0.455   0.133  -0.000
   1.00000   1.00000   1.00000

