LIGPARGEN GENERATED GRO FILE
   43
    1UNK    C00    1   0.100   0.100   0.000
    1UNK    C01    2  -0.052   0.100   0.000
    1UNK    C02    3  -0.105   0.100   0.143
    1UNK    C03    4  -0.258   0.109   0.155
    1UNK    C04    5  -0.328  -0.014   0.096
    1UNK    C05    6  -0.299   0.125   0.304
    1UNK    C06    7  -0.246   0.252   0.372
    1UNK    C07    8  -0.294   0.383   0.308
    1UNK    C08    9  -0.447   0.404   0.316
    1UNK    C09   10  -0.497   0.411   0.461
    1UNK    C0A   11  -0.451   0.539   0.531
    1UNK    C0B   12  -0.498   0.665   0.457
    1UNK    C0C   13  -0.643   0.685   0.473
    1UNK    N0D   14  -0.757   0.700   0.486
    1UNK    C0E   15  -0.460   0.661   0.308
    1UNK    C0F   16  -0.492   0.529   0.239
    1UNK    H0G   17   0.138   0.100  -0.102
    1UNK    H0H   18   0.139   0.011   0.051
    1UNK    H0I   19   0.139   0.189   0.051
    1UNK    H0J   20  -0.088   0.012  -0.055
    1UNK    H0K   21  -0.088   0.189  -0.053
    1UNK    H0M   22  -0.059   0.186   0.193
    1UNK    H0N   23  -0.069   0.010   0.196
    1UNK    H0O   24  -0.293   0.196   0.099
    1UNK    H0P   25  -0.298  -0.105   0.147
    1UNK    H0Q   26  -0.304  -0.025  -0.011
    1UNK    H0R   27  -0.436  -0.004   0.103
    1UNK    H0S   28  -0.262   0.038   0.360
    1UNK    H0T   29  -0.408   0.121   0.312
    1UNK    H0U   30  -0.137   0.251   0.373
    1UNK    H0V   31  -0.274   0.249   0.478
    1UNK    H0W   32  -0.262   0.387   0.203
    1UNK    H0X   33  -0.241   0.466   0.357
    1UNK    H0Y   34  -0.495   0.319   0.267
    1UNK    H0Z   35  -0.465   0.324   0.519
    1UNK    H10   36  -0.607   0.407   0.460
    1UNK    H11   37  -0.342   0.540   0.538
    1UNK    H12   38  -0.489   0.539   0.634
    1UNK    H13   39  -0.449   0.752   0.503
    1UNK    H14   40  -0.352   0.680   0.299
    1UNK    H15   41  -0.511   0.743   0.254
    1UNK    H16   42  -0.449   0.530   0.138
    1UNK    H17   43  -0.601   0.523   0.225
   1.00000   1.00000   1.00000

