
;
; GENERATED BY LigParGen Server
; Jorgensen Lab @ Yale University 
;
[ atomtypes ]
  opls_818  H818     1.0080     0.000    A    2.50000E-01   1.25520E-01
  opls_804  O804    15.9990     0.000    A    2.90000E-01   5.85760E-01
  opls_828  H828     1.0080     0.000    A    2.50000E-01   1.25520E-01
  opls_802  C802    12.0110     0.000    A    3.50000E-01   2.76144E-01
  opls_815  H815     1.0080     0.000    A    2.50000E-01   1.25520E-01
  opls_801  C801    12.0110     0.000    A    3.50000E-01   2.76144E-01
  opls_822  H822     1.0080     0.000    A    2.50000E-01   1.25520E-01
  opls_803  C803    12.0110     0.000    A    3.50000E-01   2.76144E-01
  opls_825  H825     1.0080     0.000    A    2.50000E-01   1.25520E-01
  opls_830  H830     1.0080     0.000    A    2.50000E-01   1.25520E-01
  opls_810  O810    15.9990     0.000    A    2.96000E-01   8.78640E-01
  opls_821  H821     1.0080     0.000    A    2.50000E-01   1.25520E-01
  opls_824  H824     1.0080     0.000    A    2.50000E-01   1.25520E-01
  opls_820  H820     1.0080     0.000    A    2.50000E-01   1.25520E-01
  opls_809  C809    12.0110     0.000    A    3.55000E-01   2.92880E-01
  opls_813  C813    12.0110     0.000    A    3.55000E-01   2.92880E-01
  opls_829  H829     1.0080     0.000    A    2.50000E-01   1.25520E-01
  opls_816  H816     1.0080     0.000    A    2.50000E-01   1.25520E-01
  opls_800  C800    12.0110     0.000    A    3.50000E-01   2.76144E-01
  opls_806  C806    12.0110     0.000    A    3.50000E-01   2.76144E-01
  opls_823  H823     1.0080     0.000    A    2.50000E-01   1.25520E-01
  opls_808  O808    15.9990     0.000    A    2.90000E-01   5.85760E-01
  opls_826  H826     1.0080     0.000    A    2.50000E-01   1.25520E-01
  opls_819  H819     1.0080     0.000    A    2.50000E-01   1.25520E-01
  opls_805  C805    12.0110     0.000    A    3.50000E-01   2.76144E-01
  opls_827  H827     1.0080     0.000    A    2.50000E-01   1.25520E-01
  opls_811  O811    15.9990     0.000    A    2.90000E-01   5.85760E-01
  opls_812  C812    12.0110     0.000    A    3.50000E-01   2.76144E-01
  opls_817  H817     1.0080     0.000    A    2.50000E-01   1.25520E-01
  opls_814  O814    15.9990     0.000    A    2.96000E-01   8.78640E-01
  opls_807  C807    12.0110     0.000    A    3.50000E-01   2.76144E-01
[ moleculetype ]
; Name               nrexcl
UNK                   3
[ atoms ]
;   nr       type  resnr residue  atom   cgnr     charge       mass  
     1   opls_800      1    UNK   C00      1    -0.2383    12.0110 
     2   opls_801      1    UNK   C01      1    -0.1546    12.0110 
     3   opls_802      1    UNK   C02      1    -0.2396    12.0110 
     4   opls_803      1    UNK   C03      1     0.0494    12.0110 
     5   opls_804      1    UNK   O04      1    -0.3922    15.9990 
     6   opls_805      1    UNK   C05      1     0.0214    12.0110 
     7   opls_806      1    UNK   C06      1    -0.2123    12.0110 
     8   opls_807      1    UNK   C07      1     0.0291    12.0110 
     9   opls_808      1    UNK   O08      1    -0.3185    15.9990 
    10   opls_809      1    UNK   C09      1     0.5956    12.0110 
    11   opls_810      1    UNK   O0A      1    -0.4786    15.9990 
    12   opls_811      1    UNK   O0B      1     -0.299    15.9990 
    13   opls_812      1    UNK   C0C      1     -0.027    12.0110 
    14   opls_813      1    UNK   C0D      1     0.3562    12.0110 
    15   opls_814      1    UNK   O0E      1    -0.4037    15.9990 
    16   opls_815      1    UNK   H0F      1     0.0872     1.0080 
    17   opls_816      1    UNK   H0G      1     0.0872     1.0080 
    18   opls_817      1    UNK   H0H      1     0.0872     1.0080 
    19   opls_818      1    UNK   H0I      1      0.126     1.0080 
    20   opls_819      1    UNK   H0J      1     0.0893     1.0080 
    21   opls_820      1    UNK   H0K      1     0.0893     1.0080 
    22   opls_821      1    UNK   H0M      1     0.0893     1.0080 
    23   opls_822      1    UNK   H0N      1     0.1254     1.0080 
    24   opls_823      1    UNK   H0O      1      0.085     1.0080 
    25   opls_824      1    UNK   H0P      1      0.085     1.0080 
    26   opls_825      1    UNK   H0Q      1     0.1215     1.0080 
    27   opls_826      1    UNK   H0R      1     0.1215     1.0080 
    28   opls_827      1    UNK   H0S      1      0.115     1.0080 
    29   opls_828      1    UNK   H0T      1      0.115     1.0080 
    30   opls_829      1    UNK   H0U      1     0.1441     1.0080 
    31   opls_830      1    UNK   H0V      1     0.1441     1.0080 
[ bonds ]
    2     1     1      0.1529 224262.400
    3     2     1      0.1529 224262.400
    4     2     1      0.1529 224262.400
    5     4     1      0.1410 267776.000
    6     5     1      0.1410 267776.000
    7     6     1      0.1529 224262.400
    8     7     1      0.1529 224262.400
    9     8     1      0.1410 267776.000
   10     9     1      0.1327 179075.200
   11    10     1      0.1229 476976.000
   12    10     1      0.1327 179075.200
   13    12     1      0.1410 267776.000
   14     4     1      0.1522 265265.600
   15    14     1      0.1229 476976.000
   16     1     1      0.1090 284512.000
   17     1     1      0.1090 284512.000
   18     1     1      0.1090 284512.000
   19     2     1      0.1090 284512.000
   20     3     1      0.1090 284512.000
   21     3     1      0.1090 284512.000
   22     3     1      0.1090 284512.000
   23     4     1      0.1090 284512.000
   24     6     1      0.1090 284512.000
   25     6     1      0.1090 284512.000
   26     7     1      0.1090 284512.000
   27     7     1      0.1090 284512.000
   28     8     1      0.1090 284512.000
   29     8     1      0.1090 284512.000
   30    13     1      0.1090 284512.000
   31    13     1      0.1090 284512.000
   14    13     1      0.1522 265265.600

[ angles ]
;  ai    aj    ak funct            c0            c1            c2            c3 
    1     2     3     1    112.700    488.273
    1     2     4     1    112.700    488.273
    2     4     5     1    109.500    418.400
    4     5     6     1    109.500    502.080
    5     6     7     1    109.500    418.400
    6     7     8     1    112.700    488.273
    7     8     9     1    109.500    418.400
    8     9    10     1    116.900    694.544
    9    10    11     1    123.400    694.544
    9    10    12     1    118.180    584.923
   10    12    13     1    116.900    694.544
    2     4    14     1    111.100    527.184
    4    14    15     1    120.400    669.440
    2     1    16     1    110.700    313.800
    2     1    17     1    110.700    313.800
    2     1    18     1    110.700    313.800
    1     2    19     1    110.700    313.800
    2     3    20     1    110.700    313.800
    2     3    21     1    110.700    313.800
    2     3    22     1    110.700    313.800
    2     4    23     1    110.700    313.800
    5     6    24     1    109.500    292.880
    5     6    25     1    109.500    292.880
    6     7    26     1    110.700    313.800
    6     7    27     1    110.700    313.800
    7     8    28     1    110.700    313.800
    7     8    29     1    110.700    313.800
   12    13    30     1    109.500    292.880
   12    13    31     1    109.500    292.880
    8     7    27     1    110.700    313.800
    5     4    14     1    109.500    418.400
    9     8    28     1    109.500    292.880
    8     7    26     1    110.700    313.800
   11    10    12     1    123.400    694.544
   13    14    15     1    120.400    669.440
    7     6    25     1    110.700    313.800
   14    13    30     1    109.500    292.880
    9     8    29     1    109.500    292.880
   20     3    22     1    107.800    276.144
   16     1    18     1    107.800    276.144
   28     8    29     1    107.800    276.144
   21     3    22     1    107.800    276.144
    5     4    23     1    109.500    292.880
    4     2    19     1    110.700    313.800
    7     6    24     1    110.700    313.800
   12    13    14     1    109.500    418.400
    3     2    19     1    110.700    313.800
    3     2     4     1    112.700    488.273
   14    13    31     1    109.500    292.880
   26     7    27     1    107.800    276.144
   16     1    17     1    107.800    276.144
   17     1    18     1    107.800    276.144
   24     6    25     1    107.800    276.144
   14     4    23     1    109.500    292.880
    4    14    13     1    116.000    585.760
   30    13    31     1    107.800    276.144
   20     3    21     1    107.800    276.144

[ dihedrals ]
; IMPROPER DIHEDRAL ANGLES 
;  ai    aj    ak    al funct            c0            c1            c2            c3            c4            c5
    15    14     4    13    4        180.000     43.932     2  
    12    10     9    11    4        180.000     43.932     2  

[ dihedrals ]
; PROPER DIHEDRAL ANGLES
;  ai    aj    ak    al funct            c0            c1            c2            c3            c4            c5
   14    4    2    3        3      -4.960   6.286   1.310  -2.636  -0.000   0.000
   14    4    2    1        3      -4.960   6.286   1.310  -2.636  -0.000   0.000
   14   13   12   10        3      -2.197   5.201   0.527  -3.531  -0.000   0.000
   14    4    5    6        3       1.715   2.845   1.046  -5.607  -0.000   0.000
   10    9    8    7        3      -2.197   5.201   0.527  -3.531  -0.000   0.000
   13   14    4    2        3       0.818  -7.906   0.602   6.485  -0.000   0.000
   13   14    4    5        3       2.874   0.582   2.092  -5.548  -0.000   0.000
    8    7    6    5        3       2.874   0.582   2.092  -5.548  -0.000   0.000
    7    6    5    4        3       1.715   2.845   1.046  -5.607  -0.000   0.000
   13   12   10   11        3      21.439   0.000  -21.439  -0.000  -0.000   0.000
   13   12   10    9        3      31.206  -9.768  -21.439  -0.000  -0.000   0.000
    6    5    4    2        3       1.715   2.845   1.046  -5.607  -0.000   0.000
   23    4   14   13        3       0.575   1.726   0.000  -2.301  -0.000   0.000
   30   13   14    4        3       0.575   1.726   0.000  -2.301  -0.000   0.000
   31   13   14    4        3       0.575   1.726   0.000  -2.301  -0.000   0.000
   31   13   14   15        3       0.000   0.000   0.000  -0.000  -0.000   0.000
   30   13   14   15        3       0.000   0.000   0.000  -0.000  -0.000   0.000
   23    4   14   15        3       0.000   0.000   0.000  -0.000  -0.000   0.000
   19    2    4   14        3      -0.209  -0.628   0.000   0.837  -0.000   0.000
   18    1    2    4        3       0.628   1.883   0.000  -2.510  -0.000   0.000
   20    3    2    1        3       0.628   1.883   0.000  -2.510  -0.000   0.000
   16    1    2    3        3       0.628   1.883   0.000  -2.510  -0.000   0.000
   21    3    2    1        3       0.628   1.883   0.000  -2.510  -0.000   0.000
   22    3    2    4        3       0.628   1.883   0.000  -2.510  -0.000   0.000
   23    4    2    1        3       0.628   1.883   0.000  -2.510  -0.000   0.000
   24    6    7    8        3       0.628   1.883   0.000  -2.510  -0.000   0.000
   25    6    7    8        3       0.628   1.883   0.000  -2.510  -0.000   0.000
   28    8    7    6        3       0.628   1.883   0.000  -2.510  -0.000   0.000
   22    3    2    1        3       0.628   1.883   0.000  -2.510  -0.000   0.000
   29    8    7    6        3       0.628   1.883   0.000  -2.510  -0.000   0.000
   17    1    2    3        3       0.628   1.883   0.000  -2.510  -0.000   0.000
   16    1    2    4        3       0.628   1.883   0.000  -2.510  -0.000   0.000
   21    3    2    4        3       0.628   1.883   0.000  -2.510  -0.000   0.000
   18    1    2    3        3       0.628   1.883   0.000  -2.510  -0.000   0.000
   20    3    2    4        3       0.628   1.883   0.000  -2.510  -0.000   0.000
   23    4    2    3        3       0.628   1.883   0.000  -2.510  -0.000   0.000
   17    1    2    4        3       0.628   1.883   0.000  -2.510  -0.000   0.000
   26    7    6   24        3       0.628   1.883   0.000  -2.510  -0.000   0.000
   19    2    1   18        3       0.628   1.883   0.000  -2.510  -0.000   0.000
   29    8    7   26        3       0.628   1.883   0.000  -2.510  -0.000   0.000
   29    8    7   27        3       0.628   1.883   0.000  -2.510  -0.000   0.000
   28    8    7   27        3       0.628   1.883   0.000  -2.510  -0.000   0.000
   23    4    2   19        3       0.628   1.883   0.000  -2.510  -0.000   0.000
   20    3    2   19        3       0.628   1.883   0.000  -2.510  -0.000   0.000
   21    3    2   19        3       0.628   1.883   0.000  -2.510  -0.000   0.000
   27    7    6   25        3       0.628   1.883   0.000  -2.510  -0.000   0.000
   28    8    7   26        3       0.628   1.883   0.000  -2.510  -0.000   0.000
   19    2    1   17        3       0.628   1.883   0.000  -2.510  -0.000   0.000
   26    7    6   25        3       0.628   1.883   0.000  -2.510  -0.000   0.000
   19    2    1   16        3       0.628   1.883   0.000  -2.510  -0.000   0.000
   22    3    2   19        3       0.628   1.883   0.000  -2.510  -0.000   0.000
   27    7    6   24        3       0.628   1.883   0.000  -2.510  -0.000   0.000
   26    7    6    5        3       0.979   2.937   0.000  -3.916  -0.000   0.000
   27    7    6    5        3       0.979   2.937   0.000  -3.916  -0.000   0.000
   19    2    4    5        3       0.979   2.937   0.000  -3.916  -0.000   0.000
   26    7    8    9        3       0.979   2.937   0.000  -3.916  -0.000   0.000
   27    7    8    9        3       0.979   2.937   0.000  -3.916  -0.000   0.000
   29    8    9   10        3       0.414   1.243   0.000  -1.657  -0.000   0.000
   31   13   12   10        3       0.414   1.243   0.000  -1.657  -0.000   0.000
   28    8    9   10        3       0.414   1.243   0.000  -1.657  -0.000   0.000
   30   13   12   10        3       0.414   1.243   0.000  -1.657  -0.000   0.000
   24    6    5    4        3       1.590   4.770   0.000  -6.360  -0.000   0.000
   23    4    5    6        3       1.590   4.770   0.000  -6.360  -0.000   0.000
   25    6    5    4        3       1.590   4.770   0.000  -6.360  -0.000   0.000
   15   14    4    2        3       0.000   0.000   0.000  -0.000  -0.000   0.000
   15   14    4    5        3       0.000   0.000   0.000  -0.000  -0.000   0.000
   15   14   13   12        3       0.000   0.000   0.000  -0.000  -0.000   0.000
   11   10    9    8        3      21.439   0.000  -21.439  -0.000  -0.000   0.000
   12   10    9    8        3      31.206  -9.768  -21.439  -0.000  -0.000   0.000
   12   13   14    4        3       2.874   0.582   2.092  -5.548  -0.000   0.000
    9    8    7    6        3       2.874   0.582   2.092  -5.548  -0.000   0.000
    5    4    2    3        3       2.874   0.582   2.092  -5.548  -0.000   0.000
    5    4    2    1        3       2.874   0.582   2.092  -5.548  -0.000   0.000

[ pairs ]
     1     5    1
     3     5    1
     2     6    1
     4     7    1
     5     8    1
     6     9    1
     2    13    1
     1    14    1
     4    12    1
     7    10    1
     3    14    1
     2    15    1
     5    13    1
     8    11    1
     3    16    1
     8    12    1
     6    14    1
     5    15    1
     4    16    1
     3    17    1
     4    17    1
     3    18    1
     1    20    1
     9    13    1
     4    18    1
     1    21    1
     1    22    1
    11    13    1
    10    14    1
     5    19    1
     4    20    1
     1    23    1
     4    21    1
     4    22    1
     3    23    1
    12    15    1
     4    24    1
     6    23    1
     4    25    1
     5    26    1
     8    24    1
     5    27    1
    14    19    1
     8    25    1
     6    28    1
     4    30    1
    16    19    1
     9    26    1
     6    29    1
     4    31    1
    17    19    1
    13    23    1
     9    27    1
    18    19    1
    15    23    1
    10    28    1
    19    20    1
    10    29    1
    19    21    1
    10    30    1
    19    22    1
    10    31    1
    19    23    1
    15    30    1
    15    31    1
    24    26    1
    25    26    1
    24    27    1
    25    27    1
    26    28    1
    27    28    1
    26    29    1
    27    29    1

