LIGPARGEN GENERATED GRO FILE
   17
    1UNK    C00    1   0.100   0.100   0.000
    1UNK    C01    2  -0.052   0.100   0.000
    1UNK    C02    3  -0.107   0.100   0.143
    1UNK    C03    4  -0.261   0.100   0.159
    1UNK    Cl0    5  -0.330   0.245   0.074
    1UNK    Cl1    6  -0.330  -0.045   0.073
    1UNK    C06    7  -0.301   0.100   0.309
    1UNK    F07    8  -0.192   0.092   0.390
    1UNK    F08    9  -0.367   0.212   0.346
    1UNK    F09   10  -0.381  -0.004   0.343
    1UNK    H0A   11   0.138   0.100  -0.103
    1UNK    H0B   12   0.139   0.011   0.051
    1UNK    H0C   13   0.139   0.189   0.051
    1UNK    H0D   14  -0.087   0.012  -0.055
    1UNK    H0E   15  -0.087   0.188  -0.055
    1UNK    H0F   16  -0.067   0.188   0.196
    1UNK    H0G   17  -0.067   0.012   0.195
   1.00000   1.00000   1.00000

