
;
; GENERATED BY LigParGen Server
; Jorgensen Lab @ Yale University 
;
[ atomtypes ]
  opls_810  H810     1.0080     0.000    A    2.50000E-01   1.25520E-01
  opls_802  C802    12.0110     0.000    A    3.50000E-01   2.76144E-01
  opls_800  C800    12.0110     0.000    A    3.50000E-01   2.76144E-01
  opls_801  C801    12.0110     0.000    A    3.50000E-01   2.76144E-01
  opls_806  C806    12.0110     0.000    A    3.50000E-01   2.76144E-01
  opls_803  C803    12.0110     0.000    A    3.50000E-01   2.76144E-01
  opls_805 Cl805    35.4500     0.000    A    3.40000E-01   1.25520E+00
  opls_809  F809    18.9984     0.000    A    2.90000E-01   2.51040E-01
  opls_812  H812     1.0080     0.000    A    2.50000E-01   1.25520E-01
  opls_814  H814     1.0080     0.000    A    2.50000E-01   1.25520E-01
  opls_808  F808    18.9984     0.000    A    2.90000E-01   2.51040E-01
  opls_804 Cl804    35.4500     0.000    A    3.40000E-01   1.25520E+00
  opls_816  H816     1.0080     0.000    A    2.50000E-01   1.25520E-01
  opls_813  H813     1.0080     0.000    A    2.50000E-01   1.25520E-01
  opls_811  H811     1.0080     0.000    A    2.50000E-01   1.25520E-01
  opls_807  F807    18.9984     0.000    A    2.90000E-01   2.51040E-01
  opls_815  H815     1.0080     0.000    A    2.50000E-01   1.25520E-01
[ moleculetype ]
; Name               nrexcl
UNK                   3
[ atoms ]
;   nr       type  resnr residue  atom   cgnr     charge       mass  
     1   opls_800      1    UNK   C00      1    -0.2401    12.0110 
     2   opls_801      1    UNK   C01      1    -0.1768    12.0110 
     3   opls_802      1    UNK   C02      1    -0.1813    12.0110 
     4   opls_803      1    UNK   C03      1      0.226    12.0110 
     5   opls_804      1    UNK   Cl0      1    -0.1861    35.4500 
     6   opls_805      1    UNK   Cl1      1    -0.1861    35.4500 
     7   opls_806      1    UNK   C06      1     0.4393    12.0110 
     8   opls_807      1    UNK   F07      1    -0.1436    18.9984 
     9   opls_808      1    UNK   F08      1    -0.1436    18.9984 
    10   opls_809      1    UNK   F09      1    -0.1436    18.9984 
    11   opls_810      1    UNK   H0A      1     0.0882     1.0080 
    12   opls_811      1    UNK   H0B      1     0.0882     1.0080 
    13   opls_812      1    UNK   H0C      1     0.0882     1.0080 
    14   opls_813      1    UNK   H0D      1      0.108     1.0080 
    15   opls_814      1    UNK   H0E      1      0.108     1.0080 
    16   opls_815      1    UNK   H0F      1     0.1277     1.0080 
    17   opls_816      1    UNK   H0G      1     0.1277     1.0080 
[ bonds ]
    2     1     1      0.1529 224262.400
    3     2     1      0.1529 224262.400
    4     3     1      0.1529 224262.400
    5     4     1      0.1781 205016.000
    6     4     1      0.1781 205016.000
    7     4     1      0.1529 224262.400
    8     7     1      0.1360 307105.600
    9     7     1      0.1360 307105.600
   10     7     1      0.1360 307105.600
   11     1     1      0.1090 284512.000
   12     1     1      0.1090 284512.000
   13     1     1      0.1090 284512.000
   14     2     1      0.1090 284512.000
   15     2     1      0.1090 284512.000
   16     3     1      0.1090 284512.000
   17     3     1      0.1090 284512.000

[ angles ]
;  ai    aj    ak funct            c0            c1            c2            c3 
    1     2     3     1    112.700    488.273
    2     3     4     1    112.700    488.273
    3     4     5     1    109.800    577.392
    3     4     6     1    109.800    577.392
    3     4     7     1    112.700    488.273
    4     7     8     1    109.500    418.400
    4     7     9     1    109.500    418.400
    4     7    10     1    109.500    418.400
    2     1    11     1    110.700    313.800
    2     1    12     1    110.700    313.800
    2     1    13     1    110.700    313.800
    1     2    14     1    110.700    313.800
    1     2    15     1    110.700    313.800
    2     3    16     1    110.700    313.800
    2     3    17     1    110.700    313.800
    5     4     6     1    111.700    652.704
    3     2    14     1    110.700    313.800
   11     1    13     1    107.800    276.144
    5     4     7     1    109.800    577.392
    3     2    15     1    110.700    313.800
    8     7    10     1    109.100    644.336
    6     4     7     1    109.800    577.392
    9     7    10     1    109.100    644.336
    8     7     9     1    109.100    644.336
   11     1    12     1    107.800    276.144
   12     1    13     1    107.800    276.144
   14     2    15     1    107.800    276.144
    4     3    16     1    110.700    313.800
    4     3    17     1    110.700    313.800
   16     3    17     1    107.800    276.144

[ dihedrals ]
; IMPROPER DIHEDRAL ANGLES 
;  ai    aj    ak    al funct            c0            c1            c2            c3            c4            c5

[ dihedrals ]
; PROPER DIHEDRAL ANGLES
;  ai    aj    ak    al funct            c0            c1            c2            c3            c4            c5
    7    4    3    2        3       2.301  -1.464   0.837  -1.674  -0.000   0.000
    4    3    2    1        3       2.301  -1.464   0.837  -1.674  -0.000   0.000
    5    4    3    2        3       0.837   2.510   0.000  -3.347  -0.000   0.000
    6    4    3    2        3       0.837   2.510   0.000  -3.347  -0.000   0.000
    8    7    4    3        3       0.000   0.000   0.000  -0.000  -0.000   0.000
    9    7    4    3        3       0.000   0.000   0.000  -0.000  -0.000   0.000
   10    7    4    3        3       0.000   0.000   0.000  -0.000  -0.000   0.000
    9    7    4    5        3       0.000   0.000   0.000  -0.000  -0.000   0.000
    8    7    4    6        3       0.000   0.000   0.000  -0.000  -0.000   0.000
    9    7    4    6        3       0.000   0.000   0.000  -0.000  -0.000   0.000
   10    7    4    5        3       0.000   0.000   0.000  -0.000  -0.000   0.000
   10    7    4    6        3       0.000   0.000   0.000  -0.000  -0.000   0.000
    8    7    4    5        3       0.000   0.000   0.000  -0.000  -0.000   0.000
   17    3    4    7        3       0.628   1.883   0.000  -2.510  -0.000   0.000
   16    3    4    7        3       0.628   1.883   0.000  -2.510  -0.000   0.000
   15    2    3    4        3       0.628   1.883   0.000  -2.510  -0.000   0.000
   17    3    2    1        3       0.628   1.883   0.000  -2.510  -0.000   0.000
   14    2    3    4        3       0.628   1.883   0.000  -2.510  -0.000   0.000
   16    3    2    1        3       0.628   1.883   0.000  -2.510  -0.000   0.000
   11    1    2    3        3       0.628   1.883   0.000  -2.510  -0.000   0.000
   12    1    2    3        3       0.628   1.883   0.000  -2.510  -0.000   0.000
   13    1    2    3        3       0.628   1.883   0.000  -2.510  -0.000   0.000
   16    3    4    6        3       0.837   2.510   0.000  -3.347  -0.000   0.000
   17    3    4    6        3       0.837   2.510   0.000  -3.347  -0.000   0.000
   17    3    4    5        3       0.837   2.510   0.000  -3.347  -0.000   0.000
   16    3    4    5        3       0.837   2.510   0.000  -3.347  -0.000   0.000
   14    2    1   12        3       0.628   1.883   0.000  -2.510  -0.000   0.000
   15    2    1   11        3       0.628   1.883   0.000  -2.510  -0.000   0.000
   16    3    2   15        3       0.628   1.883   0.000  -2.510  -0.000   0.000
   17    3    2   15        3       0.628   1.883   0.000  -2.510  -0.000   0.000
   14    2    1   11        3       0.628   1.883   0.000  -2.510  -0.000   0.000
   17    3    2   14        3       0.628   1.883   0.000  -2.510  -0.000   0.000
   15    2    1   12        3       0.628   1.883   0.000  -2.510  -0.000   0.000
   14    2    1   13        3       0.628   1.883   0.000  -2.510  -0.000   0.000
   16    3    2   14        3       0.628   1.883   0.000  -2.510  -0.000   0.000
   15    2    1   13        3       0.628   1.883   0.000  -2.510  -0.000   0.000

[ pairs ]
     1     4    1
     2     5    1
     2     6    1
     2     7    1
     3     8    1
     3     9    1
     5     8    1
     3    10    1
     6     8    1
     5     9    1
     3    11    1
     6     9    1
     5    10    1
     3    12    1
     6    10    1
     3    13    1
     1    16    1
     4    14    1
     1    17    1
     4    15    1
     5    16    1
     6    16    1
     5    17    1
     7    16    1
     6    17    1
     7    17    1
    11    14    1
    12    14    1
    11    15    1
    13    14    1
    12    15    1
    13    15    1
    14    16    1
    15    16    1
    14    17    1
    15    17    1

