
;
; GENERATED BY LigParGen Server
; Jorgensen Lab @ Yale University 
;
[ atomtypes ]
  opls_818  H818     1.0080     0.000    A    2.50000E-01   1.25520E-01
  opls_824  H824     1.0080     0.000    A    2.50000E-01   1.25520E-01
  opls_809  O809    15.9990     0.000    A    2.90000E-01   5.85760E-01
  opls_834  H834     1.0080     0.000    A    2.50000E-01   1.25520E-01
  opls_828  H828     1.0080     0.000    A    2.50000E-01   1.25520E-01
  opls_814  C814    12.0110     0.000    A    3.55000E-01   2.92880E-01
  opls_801  O801    15.9990     0.000    A    2.90000E-01   5.85760E-01
  opls_817  O817    15.9990     0.000    A    2.90000E-01   5.85760E-01
  opls_802  C802    12.0110     0.000    A    3.50000E-01   2.76144E-01
  opls_827  H827     1.0080     0.000    A    2.50000E-01   1.25520E-01
  opls_806  C806    12.0110     0.000    A    3.50000E-01   2.76144E-01
  opls_822  H822     1.0080     0.000    A    2.50000E-01   1.25520E-01
  opls_803  C803    12.0110     0.000    A    3.50000E-01   2.76144E-01
  opls_825  H825     1.0080     0.000    A    2.50000E-01   1.25520E-01
  opls_816  C816    12.0110     0.000    A    3.50000E-01   3.34720E-01
  opls_821  H821     1.0080     0.000    A    2.50000E-01   1.25520E-01
  opls_820  H820     1.0080     0.000    A    2.50000E-01   1.25520E-01
  opls_812  C812    12.0110     0.000    A    3.55000E-01   2.92880E-01
  opls_813  C813    12.0110     0.000    A    3.55000E-01   2.92880E-01
  opls_829  H829     1.0080     0.000    A    2.42000E-01   1.25520E-01
  opls_832  H832     1.0080     0.000    A    2.50000E-01   1.25520E-01
  opls_800  C800    12.0110     0.000    A    3.50000E-01   2.76144E-01
  opls_831  H831     1.0080     0.000    A    2.42000E-01   1.25520E-01
  opls_815  C815    12.0110     0.000    A    3.50000E-01   2.76144E-01
  opls_811  C811    12.0110     0.000    A    3.55000E-01   2.92880E-01
  opls_823  H823     1.0080     0.000    A    2.50000E-01   1.25520E-01
  opls_826  H826     1.0080     0.000    A    2.50000E-01   1.25520E-01
  opls_819  H819     1.0080     0.000    A    2.50000E-01   1.25520E-01
  opls_805  C805    12.0110     0.000    A    3.50000E-01   2.76144E-01
  opls_833  H833     1.0080     0.000    A    2.50000E-01   1.25520E-01
  opls_810  C810    12.0110     0.000    A    3.50000E-01   3.34720E-01
  opls_807  O807    15.9990     0.000    A    2.90000E-01   5.85760E-01
  opls_804  O804    15.9990     0.000    A    2.90000E-01   5.85760E-01
  opls_830  H830     1.0080     0.000    A    2.42000E-01   1.25520E-01
  opls_808  N808    14.0070     0.000    A    3.30000E-01   7.11280E-01
[ moleculetype ]
; Name               nrexcl
UNK                   3
[ atoms ]
;   nr       type  resnr residue  atom   cgnr     charge       mass  
     1   opls_800      1    UNK   C00      1    -0.0481    12.0110 
     2   opls_801      1    UNK   O01      1    -0.3807    15.9990 
     3   opls_802      1    UNK   C02      1     0.0031    12.0110 
     4   opls_803      1    UNK   C03      1      0.009    12.0110 
     5   opls_804      1    UNK   O04      1    -0.3838    15.9990 
     6   opls_805      1    UNK   C05      1     0.0126    12.0110 
     7   opls_806      1    UNK   C06      1    -0.0035    12.0110 
     8   opls_807      1    UNK   O07      1    -0.2289    15.9990 
     9   opls_808      1    UNK   N08      1     0.0554    14.0070 
    10   opls_809      1    UNK   O09      1    -0.1539    15.9990 
    11   opls_810      1    UNK   C0A      1     0.0371    12.0110 
    12   opls_811      1    UNK   C0B      1     -0.125    12.0110 
    13   opls_812      1    UNK   C0C      1    -0.1264    12.0110 
    14   opls_813      1    UNK   C0D      1    -0.1384    12.0110 
    15   opls_814      1    UNK   C0E      1    -0.0479    12.0110 
    16   opls_815      1    UNK   C0F      1    -0.1949    12.0110 
    17   opls_816      1    UNK   C0G      1     0.0193    12.0110 
    18   opls_817      1    UNK   O0H      1    -0.1127    15.9990 
    19   opls_818      1    UNK   H0I      1     0.0844     1.0080 
    20   opls_819      1    UNK   H0J      1     0.0844     1.0080 
    21   opls_820      1    UNK   H0K      1     0.0844     1.0080 
    22   opls_821      1    UNK   H0M      1     0.0895     1.0080 
    23   opls_822      1    UNK   H0N      1     0.0895     1.0080 
    24   opls_823      1    UNK   H0O      1      0.092     1.0080 
    25   opls_824      1    UNK   H0P      1      0.092     1.0080 
    26   opls_825      1    UNK   H0Q      1     0.0939     1.0080 
    27   opls_826      1    UNK   H0R      1     0.0939     1.0080 
    28   opls_827      1    UNK   H0S      1     0.1141     1.0080 
    29   opls_828      1    UNK   H0T      1     0.1141     1.0080 
    30   opls_829      1    UNK   H0U      1     0.1648     1.0080 
    31   opls_830      1    UNK   H0V      1     0.1514     1.0080 
    32   opls_831      1    UNK   H0W      1     0.1515     1.0080 
    33   opls_832      1    UNK   H0X      2     0.1026     1.0080 
    34   opls_833      1    UNK   H0Y      2     0.1026     1.0080 
    35   opls_834      1    UNK   H0Z      2     0.1026     1.0080 
[ bonds ]
    2     1     1      0.1410 267776.000
    3     2     1      0.1410 267776.000
    4     3     1      0.1529 224262.400
    5     4     1      0.1410 267776.000
    6     5     1      0.1410 267776.000
    7     6     1      0.1529 224262.400
    8     7     1      0.1410 267776.000
    9     8     1      0.1450 267776.000
   10     9     1      0.1450 267776.000
   11    10     1      0.1360 284512.000
   12    11     1      0.1404 392459.200
   13    12     1      0.1400 392459.200
   14    13     1      0.1400 392459.200
   15    14     1      0.1400 392459.200
   16    15     1      0.1510 265265.600
   17    11     1      0.1370 435136.000
   18     9     1      0.1450 267776.000
   19     1     1      0.1090 284512.000
   20     1     1      0.1090 284512.000
   21     1     1      0.1090 284512.000
   22     3     1      0.1090 284512.000
   23     3     1      0.1090 284512.000
   24     4     1      0.1090 284512.000
   25     4     1      0.1090 284512.000
   26     6     1      0.1090 284512.000
   27     6     1      0.1090 284512.000
   28     7     1      0.1090 284512.000
   29     7     1      0.1090 284512.000
   30    12     1      0.1080 307105.600
   31    13     1      0.1080 307105.600
   32    14     1      0.1080 307105.600
   33    16     1      0.1090 284512.000
   34    16     1      0.1090 284512.000
   35    16     1      0.1090 284512.000
   17    15     1      0.1404 392459.200
   18    17     1      0.1360 284512.000

[ angles ]
;  ai    aj    ak funct            c0            c1            c2            c3 
    1     2     3     1    109.500    502.080
    2     3     4     1    109.500    418.400
    3     4     5     1    109.500    418.400
    4     5     6     1    109.500    502.080
    5     6     7     1    109.500    418.400
    6     7     8     1    109.500    418.400
    7     8     9     1    109.500    502.080
    8     9    10     1    109.020    383.673
    9    10    11     1    111.000    627.600
   10    11    12     1    120.000    585.760
   11    12    13     1    120.000    527.184
   12    13    14     1    120.000    527.184
   13    14    15     1    120.000    527.184
   14    15    16     1    120.000    585.760
   10    11    17     1    110.600    585.760
    8     9    18     1    109.020    383.673
    2     1    19     1    109.500    292.880
    2     1    20     1    109.500    292.880
    2     1    21     1    109.500    292.880
    2     3    22     1    109.500    292.880
    2     3    23     1    109.500    292.880
    3     4    24     1    110.700    313.800
    3     4    25     1    110.700    313.800
    5     6    26     1    109.500    292.880
    5     6    27     1    109.500    292.880
    6     7    28     1    110.700    313.800
    6     7    29     1    110.700    313.800
   11    12    30     1    120.000    292.880
   12    13    31     1    120.000    292.880
   13    14    32     1    120.000    292.880
   15    16    33     1    109.500    292.880
   15    16    34     1    109.500    292.880
   15    16    35     1    109.500    292.880
   34    16    35     1    107.800    276.144
   20     1    21     1    107.800    276.144
    9    18    17     1    111.000    627.600
    5     4    24     1    109.500    292.880
    7     6    27     1    110.700    313.800
    4     3    23     1    110.700    313.800
   24     4    25     1    107.800    276.144
    4     3    22     1    110.700    313.800
   22     3    23     1    107.800    276.144
   19     1    21     1    107.800    276.144
   14    15    17     1    120.000    527.184
    7     6    26     1    110.700    313.800
   26     6    27     1    107.800    276.144
    8     7    29     1    109.500    292.880
    8     7    28     1    109.500    292.880
   28     7    29     1    107.800    276.144
   13    12    30     1    120.000    292.880
   14    13    31     1    120.000    292.880
    5     4    25     1    109.500    292.880
   16    15    17     1    128.600    585.760
   33    16    34     1    107.800    276.144
   15    17    18     1    120.000    585.760
   11    17    15     1    117.300    711.280
   12    11    17     1    117.300    711.280
   33    16    35     1    107.800    276.144
   19     1    20     1    107.800    276.144
   11    17    18     1    110.600    585.760
   15    14    32     1    120.000    292.880
   10     9    18     1    109.020    383.673

[ dihedrals ]
; IMPROPER DIHEDRAL ANGLES 
;  ai    aj    ak    al funct            c0            c1            c2            c3            c4            c5
    17    11    10    12    4        180.000     10.460     2  
    16    15    17    14    4        180.000     10.460     2  
    32    14    13    15    4        180.000     10.460     2  
    31    13    12    14    4        180.000     10.460     2  
    30    12    11    13    4        180.000     10.460     2  
    18    17    11    15    4        180.000     10.460     2  

[ dihedrals ]
; PROPER DIHEDRAL ANGLES
;  ai    aj    ak    al funct            c0            c1            c2            c3            c4            c5
   15   14   13   12        3      30.334   0.000  -30.334  -0.000  -0.000   0.000
   14   13   12   11        3      30.334   0.000  -30.334  -0.000  -0.000   0.000
   14   15   17   11        3      29.288   0.000  -29.288  -0.000  -0.000   0.000
   13   12   11   10        3       0.000   0.000   0.000  -0.000  -0.000   0.000
   15   17   11   12        3      30.334   0.000  -30.334  -0.000  -0.000   0.000
   15   17   11   10        3      30.334   0.000  -30.334  -0.000  -0.000   0.000
   15   17   18    9        3      29.288   0.000  -29.288  -0.000  -0.000   0.000
   12   11   10    9        3      29.288   0.000  -29.288  -0.000  -0.000   0.000
   17   15   14   13        3      30.334   0.000  -30.334  -0.000  -0.000   0.000
   17   11   12   13        3      29.288   0.000  -29.288  -0.000  -0.000   0.000
   17   11   10    9        3      29.288   0.000  -29.288  -0.000  -0.000   0.000
   11   17   18    9        3      29.288   0.000  -29.288  -0.000  -0.000   0.000
   17   18    9   10        3       0.628   1.883   0.000  -2.510  -0.000   0.000
   11   10    9    8        3       0.628   1.883   0.000  -2.510  -0.000   0.000
   17   18    9    8        3       0.628   1.883   0.000  -2.510  -0.000   0.000
   16   15   14   13        3      30.334   0.000  -30.334  -0.000  -0.000   0.000
   16   15   17   11        3      29.288   0.000  -29.288  -0.000  -0.000   0.000
    4    3    2    1        3       1.715   2.845   1.046  -5.607  -0.000   0.000
    7    6    5    4        3       1.715   2.845   1.046  -5.607  -0.000   0.000
    6    5    4    3        3       1.715   2.845   1.046  -5.607  -0.000   0.000
   31   13   14   15        3      30.334   0.000  -30.334  -0.000  -0.000   0.000
   30   12   13   14        3      30.334   0.000  -30.334  -0.000  -0.000   0.000
   32   14   13   12        3      30.334   0.000  -30.334  -0.000  -0.000   0.000
   32   14   15   17        3      30.334   0.000  -30.334  -0.000  -0.000   0.000
   31   13   12   11        3      30.334   0.000  -30.334  -0.000  -0.000   0.000
   32   14   15   16        3      30.334   0.000  -30.334  -0.000  -0.000   0.000
   31   13   12   30        3      30.334   0.000  -30.334  -0.000  -0.000   0.000
   32   14   13   31        3      30.334   0.000  -30.334  -0.000  -0.000   0.000
   30   12   11   17        3      30.334   0.000  -30.334  -0.000  -0.000   0.000
   30   12   11   10        3      30.334   0.000  -30.334  -0.000  -0.000   0.000
   33   16   15   14        3       0.000   0.000   0.000  -0.000  -0.000   0.000
   35   16   15   14        3       0.000   0.000   0.000  -0.000  -0.000   0.000
   34   16   15   14        3       0.000   0.000   0.000  -0.000  -0.000   0.000
   34   16   15   17        3       0.000   0.000   0.000  -0.000  -0.000   0.000
   33   16   15   17        3       0.000   0.000   0.000  -0.000  -0.000   0.000
   35   16   15   17        3       0.000   0.000   0.000  -0.000  -0.000   0.000
   28    7    6   27        3       0.628   1.883   0.000  -2.510  -0.000   0.000
   29    7    6   26        3       0.628   1.883   0.000  -2.510  -0.000   0.000
   28    7    6   26        3       0.628   1.883   0.000  -2.510  -0.000   0.000
   25    4    3   23        3       0.628   1.883   0.000  -2.510  -0.000   0.000
   24    4    3   22        3       0.628   1.883   0.000  -2.510  -0.000   0.000
   25    4    3   22        3       0.628   1.883   0.000  -2.510  -0.000   0.000
   24    4    3   23        3       0.628   1.883   0.000  -2.510  -0.000   0.000
   29    7    6   27        3       0.628   1.883   0.000  -2.510  -0.000   0.000
   24    4    3    2        3       0.979   2.937   0.000  -3.916  -0.000   0.000
   22    3    4    5        3       0.979   2.937   0.000  -3.916  -0.000   0.000
   25    4    3    2        3       0.979   2.937   0.000  -3.916  -0.000   0.000
   23    3    4    5        3       0.979   2.937   0.000  -3.916  -0.000   0.000
   29    7    6    5        3       0.979   2.937   0.000  -3.916  -0.000   0.000
   26    6    7    8        3       0.979   2.937   0.000  -3.916  -0.000   0.000
   27    6    7    8        3       0.979   2.937   0.000  -3.916  -0.000   0.000
   28    7    6    5        3       0.979   2.937   0.000  -3.916  -0.000   0.000
   22    3    2    1        3       1.590   4.770   0.000  -6.360  -0.000   0.000
   19    1    2    3        3       1.590   4.770   0.000  -6.360  -0.000   0.000
   23    3    2    1        3       1.590   4.770   0.000  -6.360  -0.000   0.000
   21    1    2    3        3       1.590   4.770   0.000  -6.360  -0.000   0.000
   24    4    5    6        3       1.590   4.770   0.000  -6.360  -0.000   0.000
   25    4    5    6        3       1.590   4.770   0.000  -6.360  -0.000   0.000
   20    1    2    3        3       1.590   4.770   0.000  -6.360  -0.000   0.000
   26    6    5    4        3       1.590   4.770   0.000  -6.360  -0.000   0.000
   27    6    5    4        3       1.590   4.770   0.000  -6.360  -0.000   0.000
   29    7    8    9        3       1.590   4.770   0.000  -6.360  -0.000   0.000
   28    7    8    9        3       1.590   4.770   0.000  -6.360  -0.000   0.000
    9    8    7    6        3       1.715   2.845   1.046  -5.607  -0.000   0.000
   18   17   15   14        3       0.000   0.000   0.000  -0.000  -0.000   0.000
   18   17   15   16        3      30.334   0.000  -30.334  -0.000  -0.000   0.000
   18   17   11   12        3      30.334   0.000  -30.334  -0.000  -0.000   0.000
   18   17   11   10        3      30.334   0.000  -30.334  -0.000  -0.000   0.000
   18    9   10   11        3       0.628   1.883   0.000  -2.510  -0.000   0.000
   10    9    8    7        3       0.628   1.883   0.000  -2.510  -0.000   0.000
   18    9    8    7        3       0.628   1.883   0.000  -2.510  -0.000   0.000
    8    7    6    5        3      -1.151   1.151   0.000  -0.000  -0.000   0.000
    5    4    3    2        3      -1.151   1.151   0.000  -0.000  -0.000   0.000

[ pairs ]
     1     4    1
     2     5    1
     3     6    1
     4     7    1
     5     8    1
     6     9    1
     7    10    1
     8    11    1
     9    12    1
     3    19    1
    10    13    1
     3    20    1
     1    22    1
     9    15    1
     3    21    1
     1    23    1
    11    14    1
    10    15    1
     8    17    1
     7    18    1
     2    24    1
    12    15    1
    11    16    1
     5    22    1
     2    25    1
     5    23    1
    13    16    1
    13    17    1
    12    18    1
     6    24    1
     4    26    1
     6    25    1
     4    27    1
    14    18    1
     5    28    1
    16    18    1
     8    26    1
     5    29    1
     8    27    1
     9    28    1
     9    29    1
    10    30    1
    11    31    1
    14    30    1
    12    32    1
    22    24    1
    15    31    1
    23    24    1
    22    25    1
    17    30    1
    14    33    1
    23    25    1
    16    32    1
    14    34    1
    17    32    1
    14    35    1
    17    33    1
    17    34    1
    17    35    1
    26    28    1
    27    28    1
    26    29    1
    27    29    1
    30    31    1
    31    32    1

