LIGPARGEN GENERATED GRO FILE
   35
    1UNK    C00    1   0.100   0.100   0.000
    1UNK    O01    2  -0.042   0.100   0.000
    1UNK    C02    3  -0.095   0.100   0.133
    1UNK    C03    4  -0.247   0.100   0.127
    1UNK    O04    5  -0.302   0.100   0.259
    1UNK    C05    6  -0.445   0.106   0.257
    1UNK    C06    7  -0.497   0.105   0.400
    1UNK    O07    8  -0.638   0.131   0.401
    1UNK    N08    9  -0.688   0.096   0.534
    1UNK    O09   10  -0.657   0.207   0.626
    1UNK    C0A   11  -0.775   0.230   0.688
    1UNK    C0B   12  -0.793   0.311   0.799
    1UNK    C0C   13  -0.921   0.319   0.853
    1UNK    C0D   14  -1.027   0.245   0.797
    1UNK    C0E   15  -1.006   0.163   0.685
    1UNK    C0F   16  -1.119   0.085   0.625
    1UNK    C0G   17  -0.879   0.162   0.629
    1UNK    O0H   18  -0.835   0.083   0.527
    1UNK    H0I   19   0.134   0.100  -0.104
    1UNK    H0J   20   0.139   0.011   0.050
    1UNK    H0K   21   0.138   0.190   0.049
    1UNK    H0M   22  -0.060   0.189   0.187
    1UNK    H0N   23  -0.060   0.012   0.187
    1UNK    H0O   24  -0.282   0.011   0.072
    1UNK    H0P   25  -0.282   0.189   0.072
    1UNK    H0Q   26  -0.484   0.019   0.203
    1UNK    H0R   27  -0.478   0.196   0.206
    1UNK    H0S   28  -0.446   0.183   0.458
    1UNK    H0T   29  -0.474   0.009   0.447
    1UNK    H0U   30  -0.710   0.367   0.841
    1UNK    H0V   31  -0.939   0.381   0.940
    1UNK    H0W   32  -1.125   0.253   0.842
    1UNK    H0X   33  -1.213   0.101   0.679
    1UNK    H0Y   34  -1.097  -0.023   0.628
    1UNK    H0Z   35  -1.135   0.115   0.521
   1.00000   1.00000   1.00000

