LIGPARGEN GENERATED GRO FILE
   36
    1UNK    C00    1   0.100   0.100   0.000
    1UNK    O01    2  -0.043   0.100   0.000
    1UNK    C02    3  -0.098   0.100   0.125
    1UNK    O03    4  -0.034   0.100   0.229
    1UNK    C04    5  -0.248   0.100   0.114
    1UNK    C05    6  -0.313   0.106   0.253
    1UNK    C06    7  -0.468   0.113   0.254
    1UNK    C07    8  -0.526  -0.011   0.182
    1UNK    C08    9  -0.678  -0.022   0.173
    1UNK    C09   10  -0.744  -0.057   0.306
    1UNK    C0A   11  -0.777   0.064   0.392
    1UNK    C0B   12  -0.675   0.177   0.391
    1UNK    C0C   13  -0.525   0.131   0.399
    1UNK    C0D   14  -0.446   0.234   0.482
    1UNK    H0E   15   0.134   0.100  -0.104
    1UNK    H0F   16   0.138   0.010   0.049
    1UNK    H0G   17   0.139   0.190   0.049
    1UNK    H0H   18  -0.277   0.008   0.062
    1UNK    H0I   19  -0.279   0.187   0.055
    1UNK    H0J   20  -0.272   0.196   0.302
    1UNK    H0K   21  -0.280   0.020   0.313
    1UNK    H0M   22  -0.497   0.202   0.196
    1UNK    H0N   23  -0.486  -0.102   0.229
    1UNK    H0O   24  -0.489  -0.011   0.079
    1UNK    H0P   25  -0.700  -0.104   0.103
    1UNK    H0Q   26  -0.722   0.068   0.129
    1UNK    H0R   27  -0.680  -0.127   0.362
    1UNK    H0S   28  -0.837  -0.111   0.286
    1UNK    H0T   29  -0.792   0.029   0.495
    1UNK    H0U   30  -0.874   0.105   0.360
    1UNK    H0V   31  -0.701   0.242   0.476
    1UNK    H0W   32  -0.691   0.240   0.302
    1UNK    H0X   33  -0.517   0.035   0.453
    1UNK    H0Y   34  -0.440   0.331   0.430
    1UNK    H0Z   35  -0.344   0.200   0.502
    1UNK    H10   36  -0.492   0.250   0.579
   1.00000   1.00000   1.00000

