
;
; GENERATED BY LigParGen Server
; Jorgensen Lab @ Yale University 
;
[ atomtypes ]
  opls_818  H818     1.0080     0.000    A    2.50000E-01   1.25520E-01
  opls_814  N814    14.0070     0.000    A    3.30000E-01   7.11280E-01
  opls_824  H824     1.0080     0.000    A    2.50000E-01   1.25520E-01
  opls_805  O805    15.9990     0.000    A    2.96000E-01   8.78640E-01
  opls_836  H836     1.0080     0.000    A    2.50000E-01   1.25520E-01
  opls_834  H834     1.0080     0.000    A    2.50000E-01   1.25520E-01
  opls_810  C810    12.0110     0.000    A    3.50000E-01   2.76144E-01
  opls_828  H828     1.0080     0.000    A    2.50000E-01   1.25520E-01
  opls_806  N806    14.0070     0.000    A    3.30000E-01   7.11280E-01
  opls_802  C802    12.0110     0.000    A    3.50000E-01   2.76144E-01
  opls_827  H827     1.0080     0.000    A    2.50000E-01   1.25520E-01
  opls_809  C809    12.0110     0.000    A    3.50000E-01   2.76144E-01
  opls_838  H838     1.0080     0.000    A    2.50000E-01   1.25520E-01
  opls_822  H822     1.0080     0.000    A    2.50000E-01   1.25520E-01
  opls_803  C803    12.0110     0.000    A    3.50000E-01   2.76144E-01
  opls_825  H825     1.0080     0.000    A    2.50000E-01   1.25520E-01
  opls_826  H826     1.0080     0.000    A    2.50000E-01   1.25520E-01
  opls_830  H830     1.0080     0.000    A    2.50000E-01   1.25520E-01
  opls_821  H821     1.0080     0.000    A    2.50000E-01   1.25520E-01
  opls_842  H842     1.0080     0.000    A    2.50000E-01   1.25520E-01
  opls_820  H820     1.0080     0.000    A    2.50000E-01   1.25520E-01
  opls_837  H837     1.0080     0.000    A    2.50000E-01   1.25520E-01
  opls_829  H829     1.0080     0.000    A    2.50000E-01   1.25520E-01
  opls_831  H831     1.0080     0.000    A    2.50000E-01   1.25520E-01
  opls_804  C804    12.0110     0.000    A    3.55000E-01   2.92880E-01
  opls_832  H832     1.0080     0.000    A    2.50000E-01   1.25520E-01
  opls_800  C800    12.0110     0.000    A    3.50000E-01   2.76144E-01
  opls_815  C815    12.0110     0.000    A    3.50000E-01   2.76144E-01
  opls_823  H823     1.0080     0.000    A    2.50000E-01   1.25520E-01
  opls_813  O813    15.9990     0.000    A    2.90000E-01   5.85760E-01
  opls_811  C811    12.0110     0.000    A    3.45000E-01   3.47272E-01
  opls_835  H835     1.0080     0.000    A    2.50000E-01   1.25520E-01
  opls_841  H841     1.0080     0.000    A    2.50000E-01   1.25520E-01
  opls_819  H819     1.0080     0.000    A    2.50000E-01   1.25520E-01
  opls_816  C816    12.0110     0.000    A    3.50000E-01   2.76144E-01
  opls_833  H833     1.0080     0.000    A    2.50000E-01   1.25520E-01
  opls_839  H839     1.0080     0.000    A    2.50000E-01   1.25520E-01
  opls_801  C801    12.0110     0.000    A    3.50000E-01   2.76144E-01
  opls_808  C808    12.0110     0.000    A    3.50000E-01   2.76144E-01
  opls_817  H817     1.0080     0.000    A    2.50000E-01   1.25520E-01
  opls_812  C812    12.0110     0.000    A    3.45000E-01   3.47272E-01
  opls_840  H840     1.0080     0.000    A    2.50000E-01   1.25520E-01
  opls_807  C807    12.0110     0.000    A    3.50000E-01   2.76144E-01
[ moleculetype ]
; Name               nrexcl
UNK                   3
[ atoms ]
;   nr       type  resnr residue  atom   cgnr     charge       mass  
     1   opls_800      1    UNK   C00      1    -0.2325    12.0110 
     2   opls_801      1    UNK   C01      1    -0.1623    12.0110 
     3   opls_802      1    UNK   C02      1     0.0979    12.0110 
     4   opls_803      1    UNK   C03      1     -0.234    12.0110 
     5   opls_804      1    UNK   C04      1     0.2831    12.0110 
     6   opls_805      1    UNK   O05      1    -0.4327    15.9990 
     7   opls_806      1    UNK   N06      1    -0.5914    14.0070 
     8   opls_807      1    UNK   C07      1    -0.0458    12.0110 
     9   opls_808      1    UNK   C08      1     0.0134    12.0110 
    10   opls_809      1    UNK   C09      1    -0.1793    12.0110 
    11   opls_810      1    UNK   C0A      1     0.0824    12.0110 
    12   opls_811      1    UNK   C0B      1    -0.0408    12.0110 
    13   opls_812      1    UNK   C0C      1    -0.0816    12.0110 
    14   opls_813      1    UNK   O0D      1    -0.3312    15.9990 
    15   opls_814      1    UNK   N0E      1    -0.5306    14.0070 
    16   opls_815      1    UNK   C0F      1    -0.0674    12.0110 
    17   opls_816      1    UNK   C0G      1    -0.0694    12.0110 
    18   opls_817      1    UNK   H0H      1     0.0861     1.0080 
    19   opls_818      1    UNK   H0I      1     0.0861     1.0080 
    20   opls_819      1    UNK   H0J      1     0.0861     1.0080 
    21   opls_820      1    UNK   H0K      1     0.1001     1.0080 
    22   opls_821      1    UNK   H0M      1     0.1001     1.0080 
    23   opls_822      1    UNK   H0N      1     0.0951     1.0080 
    24   opls_823      1    UNK   H0O      1     0.0951     1.0080 
    25   opls_824      1    UNK   H0P      1     0.0951     1.0080 
    26   opls_825      1    UNK   H0Q      1     0.1058     1.0080 
    27   opls_826      1    UNK   H0R      1     0.0847     1.0080 
    28   opls_827      1    UNK   H0S      1     0.0847     1.0080 
    29   opls_828      1    UNK   H0T      1     0.0847     1.0080 
    30   opls_829      1    UNK   H0U      1     0.0924     1.0080 
    31   opls_830      1    UNK   H0V      1     0.0924     1.0080 
    32   opls_831      1    UNK   H0W      1     0.1057     1.0080 
    33   opls_832      1    UNK   H0X      2     0.1057     1.0080 
    34   opls_833      1    UNK   H0Y      2     0.0791     1.0080 
    35   opls_834      1    UNK   H0Z      2     0.1515     1.0080 
    36   opls_835      1    UNK   H10      2     0.1373     1.0080 
    37   opls_836      1    UNK   H11      2     0.1373     1.0080 
    38   opls_837      1    UNK   H12      2     0.0824     1.0080 
    39   opls_838      1    UNK   H13      2     0.0824     1.0080 
    40   opls_839      1    UNK   H14      2     0.0824     1.0080 
    41   opls_840      1    UNK   H15      2       0.09     1.0080 
    42   opls_841      1    UNK   H16      2       0.09     1.0080 
    43   opls_842      1    UNK   H17      2       0.09     1.0080 
[ bonds ]
    2     1     1      0.1529 224262.400
    3     2     1      0.1529 224262.400
    4     3     1      0.1529 224262.400
    5     3     1      0.1522 265265.600
    6     5     1      0.1229 476976.000
    7     3     1      0.1448 319657.600
    8     7     1      0.1448 319657.600
    9     7     1      0.1448 319657.600
   10     9     1      0.1529 224262.400
   11    10     1      0.1529 224262.400
   12    11     1      0.1510 234304.000
   13    12     1      0.1520 217568.000
   14    12     1      0.1410 267776.000
   15    11     1      0.1448 319657.600
   16    15     1      0.1448 319657.600
   17    15     1      0.1448 319657.600
   18     1     1      0.1090 284512.000
   19     1     1      0.1090 284512.000
   20     1     1      0.1090 284512.000
   21     2     1      0.1090 284512.000
   22     2     1      0.1090 284512.000
   23     4     1      0.1090 284512.000
   24     4     1      0.1090 284512.000
   25     4     1      0.1090 284512.000
   26     5     1      0.1090 284512.000
   27     8     1      0.1090 284512.000
   28     8     1      0.1090 284512.000
   29     8     1      0.1090 284512.000
   30     9     1      0.1090 284512.000
   31     9     1      0.1090 284512.000
   32    10     1      0.1090 284512.000
   33    10     1      0.1090 284512.000
   34    11     1      0.1090 284512.000
   35    12     1      0.1088 284512.000
   36    13     1      0.1088 284512.000
   37    13     1      0.1088 284512.000
   38    16     1      0.1090 284512.000
   39    16     1      0.1090 284512.000
   40    16     1      0.1090 284512.000
   41    17     1      0.1090 284512.000
   42    17     1      0.1090 284512.000
   43    17     1      0.1090 284512.000
   14    13     1      0.1410 267776.000

[ angles ]
;  ai    aj    ak funct            c0            c1            c2            c3 
    1     2     3     1    112.700    488.273
    2     3     4     1    112.700    488.273
    2     3     5     1    111.100    527.184
    3     5     6     1    120.400    669.440
    2     3     7     1    109.470    470.282
    3     7     8     1    107.200    433.462
    3     7     9     1    107.200    433.462
    7     9    10     1    109.470    470.282
    9    10    11     1    112.700    488.273
   10    11    12     1    112.700    488.273
   11    12    13     1    117.200    313.800
   11    12    14     1    117.200    313.800
   10    11    15     1    109.470    470.282
   11    15    16     1    107.200    433.462
   11    15    17     1    107.200    433.462
    2     1    18     1    110.700    313.800
    2     1    19     1    110.700    313.800
    2     1    20     1    110.700    313.800
    1     2    21     1    110.700    313.800
    1     2    22     1    110.700    313.800
    3     4    23     1    110.700    313.800
    3     4    24     1    110.700    313.800
    3     4    25     1    110.700    313.800
    3     5    26     1    115.000    292.880
    7     8    27     1    109.500    292.880
    7     8    28     1    109.500    292.880
    7     8    29     1    109.500    292.880
    7     9    30     1    109.500    292.880
    7     9    31     1    109.500    292.880
    9    10    32     1    110.700    313.800
    9    10    33     1    110.700    313.800
   10    11    34     1    110.700    313.800
   11    12    35     1    114.300    292.880
   12    13    36     1    117.200    313.800
   12    13    37     1    117.200    313.800
   15    16    38     1    109.500    292.880
   15    16    39     1    109.500    292.880
   15    16    40     1    109.500    292.880
   15    17    41     1    109.500    292.880
   15    17    42     1    109.500    292.880
   15    17    43     1    109.500    292.880
   11    10    33     1    110.700    313.800
   10     9    30     1    110.700    313.800
    8     7     9     1    107.200    433.462
   12    11    15     1    109.470    470.282
   23     4    24     1    107.800    276.144
   14    13    37     1    117.200    313.800
   30     9    31     1    107.800    276.144
   39    16    40     1    107.800    276.144
   28     8    29     1    107.800    276.144
   24     4    25     1    107.800    276.144
    5     3     7     1    111.200    669.440
   12    13    14     1     90.000    418.400
   11    10    32     1    110.700    313.800
   41    17    43     1    107.800    276.144
    4     3     7     1    109.470    470.282
   27     8    28     1    107.800    276.144
    3     2    22     1    110.700    313.800
    4     3     5     1    111.100    527.184
   18     1    19     1    107.800    276.144
   12    14    13     1     90.000    502.080
   27     8    29     1    107.800    276.144
   13    12    14     1     90.000    418.400
   10     9    31     1    110.700    313.800
   19     1    20     1    107.800    276.144
   16    15    17     1    107.200    433.462
    6     5    26     1    123.000    292.880
   18     1    20     1    107.800    276.144
   32    10    33     1    107.800    276.144
   38    16    40     1    107.800    276.144
   13    12    35     1    117.200    313.800
   23     4    25     1    107.800    276.144
   14    13    36     1    117.200    313.800
   12    11    34     1    110.700    313.800
   38    16    39     1    107.800    276.144
   14    12    35     1    117.200    313.800
   42    17    43     1    107.800    276.144
    3     2    21     1    110.700    313.800
   41    17    42     1    107.800    276.144
   21     2    22     1    107.800    276.144
   36    13    37     1    114.300    292.880
   15    11    34     1    109.500    292.880

[ dihedrals ]
; IMPROPER DIHEDRAL ANGLES 
;  ai    aj    ak    al funct            c0            c1            c2            c3            c4            c5
    26     5     3     6    4        180.000     43.932     2  

[ dihedrals ]
; PROPER DIHEDRAL ANGLES
;  ai    aj    ak    al funct            c0            c1            c2            c3            c4            c5
    5    3    2    1        3      -4.960   6.286   1.310  -2.636  -0.000   0.000
    4    3    2    1        3       2.301  -1.464   0.837  -1.674  -0.000   0.000
   11   10    9    7        3       3.335  -1.552   2.820  -4.602  -0.000   0.000
   10    9    7    8        3       1.789   3.492   0.536  -5.816  -0.000   0.000
   10    9    7    3        3       1.789   3.492   0.536  -5.816  -0.000   0.000
    8    7    3    5        3       1.789   3.492   0.536  -5.816  -0.000   0.000
    9    7    3    5        3       1.789   3.492   0.536  -5.816  -0.000   0.000
    9    7    3    2        3       1.789   3.492   0.536  -5.816  -0.000   0.000
   17   15   11   10        3       1.789   3.492   0.536  -5.816  -0.000   0.000
    9    7    3    4        3       1.789   3.492   0.536  -5.816  -0.000   0.000
    8    7    3    4        3       1.789   3.492   0.536  -5.816  -0.000   0.000
    8    7    3    2        3       1.789   3.492   0.536  -5.816  -0.000   0.000
   16   15   11   10        3       1.789   3.492   0.536  -5.816  -0.000   0.000
   17   15   11   12        3       1.789   3.492   0.536  -5.816  -0.000   0.000
   16   15   11   12        3       1.789   3.492   0.536  -5.816  -0.000   0.000
   12   11   10    9        3       2.301  -1.464   0.837  -1.674  -0.000   0.000
   13   12   11   10        3       0.000   0.000   0.000  -0.000  -0.000   0.000
   26    5    3    2        3       0.000   0.000   0.000  -0.000  -0.000   0.000
   26    5    3    4        3       0.000   0.000   0.000  -0.000  -0.000   0.000
   26    5    3    7        3      -4.096   5.088   2.966  -3.958  -0.000   0.000
   21    2    3    5        3      -0.209  -0.628   0.000   0.837  -0.000   0.000
   24    4    3    5        3      -0.209  -0.628   0.000   0.837  -0.000   0.000
   23    4    3    5        3      -0.209  -0.628   0.000   0.837  -0.000   0.000
   22    2    3    5        3      -0.209  -0.628   0.000   0.837  -0.000   0.000
   25    4    3    5        3      -0.209  -0.628   0.000   0.837  -0.000   0.000
   21    2    3    4        3       0.628   1.883   0.000  -2.510  -0.000   0.000
   24    4    3    2        3       0.628   1.883   0.000  -2.510  -0.000   0.000
   20    1    2    3        3       0.628   1.883   0.000  -2.510  -0.000   0.000
   25    4    3    2        3       0.628   1.883   0.000  -2.510  -0.000   0.000
   22    2    3    4        3       0.628   1.883   0.000  -2.510  -0.000   0.000
   18    1    2    3        3       0.628   1.883   0.000  -2.510  -0.000   0.000
   34   11   10    9        3       0.628   1.883   0.000  -2.510  -0.000   0.000
   30    9   10   11        3       0.628   1.883   0.000  -2.510  -0.000   0.000
   31    9   10   11        3       0.628   1.883   0.000  -2.510  -0.000   0.000
   19    1    2    3        3       0.628   1.883   0.000  -2.510  -0.000   0.000
   23    4    3    2        3       0.628   1.883   0.000  -2.510  -0.000   0.000
   32   10   11   12        3       0.628   1.883   0.000  -2.510  -0.000   0.000
   33   10   11   12        3       0.628   1.883   0.000  -2.510  -0.000   0.000
   22    2    1   19        3       0.628   1.883   0.000  -2.510  -0.000   0.000
   21    2    1   20        3       0.628   1.883   0.000  -2.510  -0.000   0.000
   21    2    1   18        3       0.628   1.883   0.000  -2.510  -0.000   0.000
   22    2    1   20        3       0.628   1.883   0.000  -2.510  -0.000   0.000
   33   10    9   31        3       0.628   1.883   0.000  -2.510  -0.000   0.000
   34   11   10   32        3       0.628   1.883   0.000  -2.510  -0.000   0.000
   32   10    9   30        3       0.628   1.883   0.000  -2.510  -0.000   0.000
   22    2    1   18        3       0.628   1.883   0.000  -2.510  -0.000   0.000
   32   10    9   31        3       0.628   1.883   0.000  -2.510  -0.000   0.000
   33   10    9   30        3       0.628   1.883   0.000  -2.510  -0.000   0.000
   34   11   10   33        3       0.628   1.883   0.000  -2.510  -0.000   0.000
   21    2    1   19        3       0.628   1.883   0.000  -2.510  -0.000   0.000
   21    2    3    7        3      -4.096   5.088   2.966  -3.958  -0.000   0.000
   33   10   11   15        3      -4.096   5.088   2.966  -3.958  -0.000   0.000
   22    2    3    7        3      -4.096   5.088   2.966  -3.958  -0.000   0.000
   33   10    9    7        3      -4.096   5.088   2.966  -3.958  -0.000   0.000
   32   10   11   15        3      -4.096   5.088   2.966  -3.958  -0.000   0.000
   24    4    3    7        3      -4.096   5.088   2.966  -3.958  -0.000   0.000
   25    4    3    7        3      -4.096   5.088   2.966  -3.958  -0.000   0.000
   23    4    3    7        3      -4.096   5.088   2.966  -3.958  -0.000   0.000
   32   10    9    7        3      -4.096   5.088   2.966  -3.958  -0.000   0.000
   34   11   12   13        3       0.628   1.883   0.000  -2.510  -0.000   0.000
   34   11   12   14        3       0.979   2.937   0.000  -3.916  -0.000   0.000
   30    9    7    3        3       1.172   3.515   0.000  -4.686  -0.000   0.000
   30    9    7    8        3       1.172   3.515   0.000  -4.686  -0.000   0.000
   34   11   15   16        3       1.172   3.515   0.000  -4.686  -0.000   0.000
   27    8    7    3        3       1.172   3.515   0.000  -4.686  -0.000   0.000
   39   16   15   11        3       1.172   3.515   0.000  -4.686  -0.000   0.000
   43   17   15   16        3       1.172   3.515   0.000  -4.686  -0.000   0.000
   28    8    7    3        3       1.172   3.515   0.000  -4.686  -0.000   0.000
   31    9    7    3        3       1.172   3.515   0.000  -4.686  -0.000   0.000
   31    9    7    8        3       1.172   3.515   0.000  -4.686  -0.000   0.000
   43   17   15   11        3       1.172   3.515   0.000  -4.686  -0.000   0.000
   40   16   15   11        3       1.172   3.515   0.000  -4.686  -0.000   0.000
   40   16   15   17        3       1.172   3.515   0.000  -4.686  -0.000   0.000
   29    8    7    3        3       1.172   3.515   0.000  -4.686  -0.000   0.000
   42   17   15   16        3       1.172   3.515   0.000  -4.686  -0.000   0.000
   34   11   15   17        3       1.172   3.515   0.000  -4.686  -0.000   0.000
   39   16   15   17        3       1.172   3.515   0.000  -4.686  -0.000   0.000
   27    8    7    9        3       1.172   3.515   0.000  -4.686  -0.000   0.000
   42   17   15   11        3       1.172   3.515   0.000  -4.686  -0.000   0.000
   38   16   15   17        3       1.172   3.515   0.000  -4.686  -0.000   0.000
   38   16   15   11        3       1.172   3.515   0.000  -4.686  -0.000   0.000
   41   17   15   11        3       1.172   3.515   0.000  -4.686  -0.000   0.000
   29    8    7    9        3       1.172   3.515   0.000  -4.686  -0.000   0.000
   28    8    7    9        3       1.172   3.515   0.000  -4.686  -0.000   0.000
   41   17   15   16        3       1.172   3.515   0.000  -4.686  -0.000   0.000
   35   12   11   10        3       0.628   1.883   0.000  -2.510  -0.000   0.000
   35   12   11   34        3       0.628   1.883   0.000  -2.510  -0.000   0.000
   35   12   11   15        3      -4.096   5.088   2.966  -3.958  -0.000   0.000
   36   13   12   11        3       0.000   0.000   0.000  -0.000  -0.000   0.000
   37   13   12   11        3       0.000   0.000   0.000  -0.000  -0.000   0.000
   36   13   12   35        3       0.000   0.000   0.000  -0.000  -0.000   0.000
   37   13   12   35        3       0.000   0.000   0.000  -0.000  -0.000   0.000
   36   13   12   14        3       0.000   0.000   0.000  -0.000  -0.000   0.000
   37   13   12   14        3       0.000   0.000   0.000  -0.000  -0.000   0.000
   35   12   13   14        3       0.000   0.000   0.000  -0.000  -0.000   0.000
   37   13   14   12        3       0.000   0.000   0.000  -0.000  -0.000   0.000
   36   13   14   12        3       0.000   0.000   0.000  -0.000  -0.000   0.000
   35   12   14   13        3       0.000   0.000   0.000  -0.000  -0.000   0.000
    7    3    5    6        3       0.000   0.000   0.000  -0.000  -0.000   0.000
   15   11   10    9        3       3.335  -1.552   2.820  -4.602  -0.000   0.000
    7    3    2    1        3       3.335  -1.552   2.820  -4.602  -0.000   0.000
   15   11   12   13        3       3.335  -1.552   2.820  -4.602  -0.000   0.000
   15   11   12   14        3      16.736  -16.736   0.000  -0.000  -0.000   0.000
   14   12   11   10        3       2.874   0.582   2.092  -5.548  -0.000   0.000
   14   12   11   13        3       0.000   0.000   0.000  -0.000  -0.000   0.000
    6    5    3    4        3       0.000   0.000   0.000  -0.000  -0.000   0.000
    6    5    3    2        3       0.000   0.000   0.000  -0.000  -0.000   0.000

[ pairs ]
     1     4    1
     1     5    1
     2     6    1
     1     7    1
     4     6    1
     2     8    1
     2     9    1
     4     8    1
     6     7    1
     5     8    1
     4     9    1
     3    10    1
     5     9    1
     8    10    1
     7    11    1
     9    12    1
     3    18    1
     3    19    1
    10    13    1
     3    20    1
    10    14    1
     9    15    1
     4    21    1
     2    23    1
    10    16    1
     5    21    1
     4    22    1
     2    24    1
    10    17    1
     5    22    1
     2    25    1
    13    15    1
    12    16    1
     7    21    1
     5    23    1
     2    26    1
    14    15    1
    12    17    1
     7    22    1
     5    24    1
     7    23    1
     5    25    1
     4    26    1
     3    27    1
     7    24    1
     3    28    1
     7    25    1
     3    29    1
     7    26    1
     3    30    1
     3    31    1
     9    27    1
     9    28    1
     9    29    1
     8    30    1
    18    21    1
     8    31    1
     7    32    1
    19    21    1
    18    22    1
     7    33    1
    20    21    1
    19    22    1
    11    30    1
    20    22    1
    11    31    1
     9    34    1
    12    32    1
    12    33    1
    10    35    1
    15    32    1
    13    34    1
    11    36    1
    15    33    1
    14    34    1
    11    37    1
    11    38    1
    16    34    1
    15    35    1
    11    39    1
    17    34    1
    11    40    1
    11    41    1
    11    42    1
    11    43    1
    17    38    1
    17    39    1
    17    40    1
    16    41    1
    16    42    1
    16    43    1
    30    32    1
    31    32    1
    30    33    1
    31    33    1
    32    34    1
    33    34    1
    34    35    1
    35    36    1
    35    37    1

