LIGPARGEN GENERATED GRO FILE
   43
    1UNK    C00    1   0.100   0.100   0.000
    1UNK    C01    2  -0.053   0.100   0.000
    1UNK    C02    3  -0.120   0.100   0.141
    1UNK    C03    4  -0.079   0.232   0.212
    1UNK    C04    5  -0.272   0.106   0.121
    1UNK    O05    6  -0.332   0.060   0.025
    1UNK    N06    7  -0.082  -0.021   0.224
    1UNK    C07    8  -0.135  -0.017   0.361
    1UNK    C08    9  -0.115  -0.149   0.156
    1UNK    C09   10  -0.081  -0.278   0.233
    1UNK    C0A   11  -0.118  -0.409   0.155
    1UNK    C0B   12  -0.044  -0.408   0.022
    1UNK    C0C   13   0.108  -0.403   0.017
    1UNK    O0D   14   0.034  -0.521  -0.018
    1UNK    N0E   15  -0.101  -0.531   0.238
    1UNK    C0F   16  -0.176  -0.523   0.365
    1UNK    C0G   17  -0.149  -0.652   0.169
    1UNK    H0H   18   0.137   0.092  -0.103
    1UNK    H0I   19   0.141   0.016   0.057
    1UNK    H0J   20   0.140   0.193   0.041
    1UNK    H0K   21  -0.087   0.015  -0.060
    1UNK    H0M   22  -0.086   0.189  -0.056
    1UNK    H0N   23  -0.098   0.318   0.146
    1UNK    H0O   24   0.027   0.233   0.239
    1UNK    H0P   25  -0.138   0.251   0.302
    1UNK    H0Q   26  -0.329   0.149   0.205
    1UNK    H0R   27  -0.107   0.075   0.413
    1UNK    H0S   28  -0.089  -0.096   0.422
    1UNK    H0T   29  -0.243  -0.028   0.364
    1UNK    H0U   30  -0.059  -0.152   0.062
    1UNK    H0V   31  -0.222  -0.153   0.131
    1UNK    H0W   32  -0.138  -0.275   0.327
    1UNK    H0X   33   0.026  -0.279   0.259
    1UNK    H0Y   34  -0.225  -0.401   0.130
    1UNK    H0Z   35  -0.099  -0.356  -0.056
    1UNK    H10   36   0.164  -0.407   0.109
    1UNK    H11   37   0.154  -0.348  -0.063
    1UNK    H12   38  -0.134  -0.449   0.433
    1UNK    H13   39  -0.171  -0.618   0.420
    1UNK    H14   40  -0.282  -0.500   0.348
    1UNK    H15   41  -0.089  -0.679   0.082
    1UNK    H16   42  -0.253  -0.643   0.138
    1UNK    H17   43  -0.141  -0.740   0.235
   1.00000   1.00000   1.00000

