LIGPARGEN GENERATED GRO FILE
   32
    1UNK    C00    1   0.100   0.100   0.000
    1UNK    C01    2  -0.051   0.100   0.000
    1UNK    O02    3  -0.114   0.100   0.105
    1UNK    C03    4  -0.118   0.100  -0.136
    1UNK    C04    5  -0.270   0.100  -0.126
    1UNK    C05    6  -0.336   0.100  -0.264
    1UNK    C06    7  -0.491   0.100  -0.260
    1UNK    C07    8  -0.541   0.226  -0.186
    1UNK    C08    9  -0.556   0.083  -0.402
    1UNK    C09   10  -0.515   0.196  -0.499
    1UNK    C0A   11  -0.519  -0.052  -0.466
    1UNK    C0B   12  -0.707   0.088  -0.390
    1UNK    N0C   13  -0.833   0.091  -0.379
    1UNK    H0D   14   0.137   0.100   0.103
    1UNK    H0E   15   0.137   0.190  -0.051
    1UNK    H0F   16   0.137   0.010  -0.051
    1UNK    H0G   17  -0.084   0.011  -0.191
    1UNK    H0H   18  -0.084   0.189  -0.190
    1UNK    H0I   19  -0.300   0.189  -0.069
    1UNK    H0J   20  -0.303   0.012  -0.069
    1UNK    H0K   21  -0.300   0.012  -0.318
    1UNK    H0M   22  -0.300   0.188  -0.319
    1UNK    H0N   23  -0.522   0.014  -0.199
    1UNK    H0O   24  -0.502   0.318  -0.232
    1UNK    H0P   25  -0.511   0.226  -0.082
    1UNK    H0Q   26  -0.651   0.232  -0.185
    1UNK    H0R   27  -0.407   0.196  -0.519
    1UNK    H0S   28  -0.543   0.295  -0.461
    1UNK    H0T   29  -0.565   0.184  -0.596
    1UNK    H0U   30  -0.412  -0.058  -0.490
    1UNK    H0V   31  -0.574  -0.068  -0.559
    1UNK    H0W   32  -0.543  -0.135  -0.399
   1.00000   1.00000   1.00000

