
;
; GENERATED BY LigParGen Server
; Jorgensen Lab @ Yale University 
;
[ atomtypes ]
  opls_818  H818     1.0080     0.000    A    2.50000E-01   1.25520E-01
  opls_814  C814    12.0110     0.000    A    3.50000E-01   2.76144E-01
  opls_824  H824     1.0080     0.000    A    2.50000E-01   1.25520E-01
  opls_810  F810    18.9984     0.000    A    2.90000E-01   2.51040E-01
  opls_816  O816    15.9990     0.000    A    2.96000E-01   8.78640E-01
  opls_834  H834     1.0080     0.000    A    2.50000E-01   1.25520E-01
  opls_828  H828     1.0080     0.000    A    2.50000E-01   1.25520E-01
  opls_801  O801    15.9990     0.000    A    2.90000E-01   5.85760E-01
  opls_811  F811    18.9984     0.000    A    2.90000E-01   2.51040E-01
  opls_802  C802    12.0110     0.000    A    3.50000E-01   2.76144E-01
  opls_827  H827     1.0080     0.000    A    2.50000E-01   1.25520E-01
  opls_812  C812    12.0110     0.000    A    3.50000E-01   2.76144E-01
  opls_822  H822     1.0080     0.000    A    2.50000E-01   1.25520E-01
  opls_803  C803    12.0110     0.000    A    3.50000E-01   2.76144E-01
  opls_825  H825     1.0080     0.000    A    2.50000E-01   1.25520E-01
  opls_830  H830     1.0080     0.000    A    2.50000E-01   1.25520E-01
  opls_821  H821     1.0080     0.000    A    2.50000E-01   1.25520E-01
  opls_820  H820     1.0080     0.000    A    2.50000E-01   1.25520E-01
  opls_829  H829     1.0080     0.000    A    2.50000E-01   1.25520E-01
  opls_831  H831     1.0080     0.000    A    2.50000E-01   1.25520E-01
  opls_832  H832     1.0080     0.000    A    2.50000E-01   1.25520E-01
  opls_800  C800    12.0110     0.000    A    3.50000E-01   2.76144E-01
  opls_805  C805    12.0110     0.000    A    3.50000E-01   2.76144E-01
  opls_806  C806    12.0110     0.000    A    3.50000E-01   2.76144E-01
  opls_815  C815    12.0110     0.000    A    3.55000E-01   2.92880E-01
  opls_823  H823     1.0080     0.000    A    2.50000E-01   1.25520E-01
  opls_813  C813    12.0110     0.000    A    3.50000E-01   2.76144E-01
  opls_809  F809    18.9984     0.000    A    2.90000E-01   2.51040E-01
  opls_826  H826     1.0080     0.000    A    2.50000E-01   1.25520E-01
  opls_835  H835     1.0080     0.000    A    2.50000E-01   1.25520E-01
  opls_819  H819     1.0080     0.000    A    2.50000E-01   1.25520E-01
  opls_804  C804    12.0110     0.000    A    3.50000E-01   2.76144E-01
  opls_833  H833     1.0080     0.000    A    2.50000E-01   1.25520E-01
  opls_808  C808    12.0110     0.000    A    3.50000E-01   2.76144E-01
  opls_817  H817     1.0080     0.000    A    2.50000E-01   1.25520E-01
  opls_807  C807    12.0110     0.000    A    3.50000E-01   2.76144E-01
[ moleculetype ]
; Name               nrexcl
UNK                   3
[ atoms ]
;   nr       type  resnr residue  atom   cgnr     charge       mass  
     1   opls_800      1    UNK   C00      1    -0.0518    12.0110 
     2   opls_801      1    UNK   O01      1    -0.3802    15.9990 
     3   opls_802      1    UNK   C02      1     0.0586    12.0110 
     4   opls_803      1    UNK   C03      1    -0.2167    12.0110 
     5   opls_804      1    UNK   C04      1    -0.0311    12.0110 
     6   opls_805      1    UNK   C05      1    -0.2384    12.0110 
     7   opls_806      1    UNK   C06      1    -0.2432    12.0110 
     8   opls_807      1    UNK   C07      1    -0.1986    12.0110 
     9   opls_808      1    UNK   C08      1     0.4665    12.0110 
    10   opls_809      1    UNK   F09      1     -0.172    18.9984 
    11   opls_810      1    UNK   F0A      1     -0.172    18.9984 
    12   opls_811      1    UNK   F0B      1     -0.172    18.9984 
    13   opls_812      1    UNK   C0C      1    -0.0804    12.0110 
    14   opls_813      1    UNK   C0D      1     -0.178    12.0110 
    15   opls_814      1    UNK   C0E      1     -0.228    12.0110 
    16   opls_815      1    UNK   C0F      1     0.3242    12.0110 
    17   opls_816      1    UNK   O0G      1    -0.4513    15.9990 
    18   opls_817      1    UNK   H0H      1     0.0847     1.0080 
    19   opls_818      1    UNK   H0I      1     0.0847     1.0080 
    20   opls_819      1    UNK   H0J      1     0.0847     1.0080 
    21   opls_820      1    UNK   H0K      1     0.1311     1.0080 
    22   opls_821      1    UNK   H0M      1     0.1102     1.0080 
    23   opls_822      1    UNK   H0N      1     0.1102     1.0080 
    24   opls_823      1    UNK   H0O      1     0.0917     1.0080 
    25   opls_824      1    UNK   H0P      1     0.0917     1.0080 
    26   opls_825      1    UNK   H0Q      1     0.0917     1.0080 
    27   opls_826      1    UNK   H0R      1     0.0974     1.0080 
    28   opls_827      1    UNK   H0S      1     0.0974     1.0080 
    29   opls_828      1    UNK   H0T      1     0.0974     1.0080 
    30   opls_829      1    UNK   H0U      1     0.1346     1.0080 
    31   opls_830      1    UNK   H0V      1     0.1263     1.0080 
    32   opls_831      1    UNK   H0W      1     0.1206     1.0080 
    33   opls_832      1    UNK   H0X      2     0.0963     1.0080 
    34   opls_833      1    UNK   H0Y      2     0.0963     1.0080 
    35   opls_834      1    UNK   H0Z      2     0.0963     1.0080 
    36   opls_835      1    UNK   H10      2     0.1212     1.0080 
[ bonds ]
    2     1     1      0.1410 267776.000
    3     2     1      0.1410 267776.000
    4     3     1      0.1529 224262.400
    5     4     1      0.1529 224262.400
    6     5     1      0.1529 224262.400
    7     5     1      0.1529 224262.400
    8     5     1      0.1529 224262.400
    9     8     1      0.1529 224262.400
   10     9     1      0.1360 307105.600
   11     9     1      0.1360 307105.600
   12     9     1      0.1360 307105.600
   13     3     1      0.1529 224262.400
   14    13     1      0.1529 224262.400
   15    14     1      0.1529 224262.400
   16    14     1      0.1522 265265.600
   17    16     1      0.1229 476976.000
   18     1     1      0.1090 284512.000
   19     1     1      0.1090 284512.000
   20     1     1      0.1090 284512.000
   21     3     1      0.1090 284512.000
   22     4     1      0.1090 284512.000
   23     4     1      0.1090 284512.000
   24     6     1      0.1090 284512.000
   25     6     1      0.1090 284512.000
   26     6     1      0.1090 284512.000
   27     7     1      0.1090 284512.000
   28     7     1      0.1090 284512.000
   29     7     1      0.1090 284512.000
   30     8     1      0.1090 284512.000
   31    13     1      0.1090 284512.000
   32    14     1      0.1090 284512.000
   33    15     1      0.1090 284512.000
   34    15     1      0.1090 284512.000
   35    15     1      0.1090 284512.000
   36    16     1      0.1090 284512.000
   13     8     1      0.1529 224262.400

[ angles ]
;  ai    aj    ak funct            c0            c1            c2            c3 
    1     2     3     1    109.500    502.080
    2     3     4     1    109.500    418.400
    3     4     5     1    112.700    488.273
    4     5     6     1    112.700    488.273
    4     5     7     1    112.700    488.273
    4     5     8     1    112.700    488.273
    5     8     9     1    112.700    488.273
    8     9    10     1    109.500    418.400
    8     9    11     1    109.500    418.400
    8     9    12     1    109.500    418.400
    2     3    13     1    109.500    418.400
    3    13    14     1    112.700    488.273
   13    14    15     1    112.700    488.273
   13    14    16     1    111.100    527.184
   14    16    17     1    120.400    669.440
    2     1    18     1    109.500    292.880
    2     1    19     1    109.500    292.880
    2     1    20     1    109.500    292.880
    2     3    21     1    109.500    292.880
    3     4    22     1    110.700    313.800
    3     4    23     1    110.700    313.800
    5     6    24     1    110.700    313.800
    5     6    25     1    110.700    313.800
    5     6    26     1    110.700    313.800
    5     7    27     1    110.700    313.800
    5     7    28     1    110.700    313.800
    5     7    29     1    110.700    313.800
    5     8    30     1    110.700    313.800
    3    13    31     1    110.700    313.800
   13    14    32     1    110.700    313.800
   14    15    33     1    110.700    313.800
   14    15    34     1    110.700    313.800
   14    15    35     1    110.700    313.800
   14    16    36     1    115.000    292.880
   15    14    16     1    111.100    527.184
    9     8    30     1    110.700    313.800
   27     7    28     1    107.800    276.144
   33    15    34     1    107.800    276.144
   22     4    23     1    107.800    276.144
   10     9    11     1    109.100    644.336
   24     6    26     1    107.800    276.144
   10     9    12     1    109.100    644.336
   13     3    21     1    110.700    313.800
    9     8    13     1    112.700    488.273
    5     4    23     1    110.700    313.800
   18     1    19     1    107.800    276.144
   17    16    36     1    123.000    292.880
    5     4    22     1    110.700    313.800
   28     7    29     1    107.800    276.144
   16    14    32     1    109.500    292.880
    6     5     7     1    112.700    488.273
   34    15    35     1    107.800    276.144
   14    13    31     1    110.700    313.800
    8    13    14     1    112.700    488.273
   19     1    20     1    107.800    276.144
    4     3    21     1    110.700    313.800
   15    14    32     1    110.700    313.800
    6     5     8     1    112.700    488.273
   25     6    26     1    107.800    276.144
   24     6    25     1    107.800    276.144
   11     9    12     1    109.100    644.336
   18     1    20     1    107.800    276.144
    3    13     8     1    112.700    488.273
    7     5     8     1    112.700    488.273
    8    13    31     1    110.700    313.800
   13     8    30     1    110.700    313.800
    4     3    13     1    112.700    488.273
   33    15    35     1    107.800    276.144
    5     8    13     1    112.700    488.273
   27     7    29     1    107.800    276.144

[ dihedrals ]
; IMPROPER DIHEDRAL ANGLES 
;  ai    aj    ak    al funct            c0            c1            c2            c3            c4            c5
    36    16    14    17    4        180.000     43.932     2  

[ dihedrals ]
; PROPER DIHEDRAL ANGLES
;  ai    aj    ak    al funct            c0            c1            c2            c3            c4            c5
   16   14   13    8        3      -4.960   6.286   1.310  -2.636  -0.000   0.000
   16   14   13    3        3      -4.960   6.286   1.310  -2.636  -0.000   0.000
    9    8    5    7        3       2.301  -1.464   0.837  -1.674  -0.000   0.000
    9    8    5    6        3       2.301  -1.464   0.837  -1.674  -0.000   0.000
    9    8    5    4        3       2.301  -1.464   0.837  -1.674  -0.000   0.000
    9    8   13    3        3       2.301  -1.464   0.837  -1.674  -0.000   0.000
   13    8    9   12        3       0.000   0.000   0.000  -0.000  -0.000   0.000
   13    8    9   10        3       0.000   0.000   0.000  -0.000  -0.000   0.000
   13    8    9   11        3       0.000   0.000   0.000  -0.000  -0.000   0.000
   14   13    8    9        3       2.301  -1.464   0.837  -1.674  -0.000   0.000
   15   14   13    3        3       2.301  -1.464   0.837  -1.674  -0.000   0.000
    8    5    4    3        3       2.301  -1.464   0.837  -1.674  -0.000   0.000
   13    3    4    5        3       2.301  -1.464   0.837  -1.674  -0.000   0.000
    7    5    4    3        3       2.301  -1.464   0.837  -1.674  -0.000   0.000
   15   14   13    8        3       2.301  -1.464   0.837  -1.674  -0.000   0.000
    6    5    4    3        3       2.301  -1.464   0.837  -1.674  -0.000   0.000
   14   13    3    4        3       2.301  -1.464   0.837  -1.674  -0.000   0.000
   14   13    8    5        3       2.301  -1.464   0.837  -1.674  -0.000   0.000
    8   13    3    4        3       2.301  -1.464   0.837  -1.674  -0.000   0.000
   13    8    5    7        3       2.301  -1.464   0.837  -1.674  -0.000   0.000
    5    8   13    3        3       2.301  -1.464   0.837  -1.674  -0.000   0.000
   13    8    5    4        3       2.301  -1.464   0.837  -1.674  -0.000   0.000
   13    8    5    6        3       2.301  -1.464   0.837  -1.674  -0.000   0.000
    8   13    3    2        3       2.874   0.582   2.092  -5.548  -0.000   0.000
    5    4    3    2        3       2.874   0.582   2.092  -5.548  -0.000   0.000
   14   13    3    2        3       2.874   0.582   2.092  -5.548  -0.000   0.000
    4    3    2    1        3       1.715   2.845   1.046  -5.607  -0.000   0.000
   13    3    2    1        3       1.715   2.845   1.046  -5.607  -0.000   0.000
   11    9    8    5        3       0.000   0.000   0.000  -0.000  -0.000   0.000
   12    9    8    5        3       0.000   0.000   0.000  -0.000  -0.000   0.000
   10    9    8    5        3       0.000   0.000   0.000  -0.000  -0.000   0.000
   36   16   14   13        3       0.000   0.000   0.000  -0.000  -0.000   0.000
   36   16   14   15        3       0.000   0.000   0.000  -0.000  -0.000   0.000
   36   16   14   32        3       0.753   2.259   0.000  -3.012  -0.000   0.000
   32   14   16   17        3       0.000   0.000   0.000  -0.000  -0.000   0.000
   30    8    9   11        3       0.753   2.259   0.000  -3.012  -0.000   0.000
   30    8    9   10        3       0.753   2.259   0.000  -3.012  -0.000   0.000
   30    8    9   12        3       0.753   2.259   0.000  -3.012  -0.000   0.000
   33   15   14   16        3      -0.209  -0.628   0.000   0.837  -0.000   0.000
   31   13   14   16        3      -0.209  -0.628   0.000   0.837  -0.000   0.000
   34   15   14   16        3      -0.209  -0.628   0.000   0.837  -0.000   0.000
   35   15   14   16        3      -0.209  -0.628   0.000   0.837  -0.000   0.000
   31   13    8    9        3       0.628   1.883   0.000  -2.510  -0.000   0.000
   30    8    5    7        3       0.628   1.883   0.000  -2.510  -0.000   0.000
   34   15   14   13        3       0.628   1.883   0.000  -2.510  -0.000   0.000
   25    6    5    8        3       0.628   1.883   0.000  -2.510  -0.000   0.000
   26    6    5    7        3       0.628   1.883   0.000  -2.510  -0.000   0.000
   26    6    5    8        3       0.628   1.883   0.000  -2.510  -0.000   0.000
   28    7    5    6        3       0.628   1.883   0.000  -2.510  -0.000   0.000
   22    4    5    6        3       0.628   1.883   0.000  -2.510  -0.000   0.000
   35   15   14   13        3       0.628   1.883   0.000  -2.510  -0.000   0.000
   31   13    3    4        3       0.628   1.883   0.000  -2.510  -0.000   0.000
   21    3   13   14        3       0.628   1.883   0.000  -2.510  -0.000   0.000
   23    4    5    7        3       0.628   1.883   0.000  -2.510  -0.000   0.000
   21    3    4    5        3       0.628   1.883   0.000  -2.510  -0.000   0.000
   28    7    5    8        3       0.628   1.883   0.000  -2.510  -0.000   0.000
   27    7    5    6        3       0.628   1.883   0.000  -2.510  -0.000   0.000
   29    7    5    4        3       0.628   1.883   0.000  -2.510  -0.000   0.000
   25    6    5    4        3       0.628   1.883   0.000  -2.510  -0.000   0.000
   22    4    5    8        3       0.628   1.883   0.000  -2.510  -0.000   0.000
   30    8    5    4        3       0.628   1.883   0.000  -2.510  -0.000   0.000
   23    4    3   13        3       0.628   1.883   0.000  -2.510  -0.000   0.000
   23    4    5    8        3       0.628   1.883   0.000  -2.510  -0.000   0.000
   22    4    3   13        3       0.628   1.883   0.000  -2.510  -0.000   0.000
   24    6    5    4        3       0.628   1.883   0.000  -2.510  -0.000   0.000
   27    7    5    4        3       0.628   1.883   0.000  -2.510  -0.000   0.000
   33   15   14   13        3       0.628   1.883   0.000  -2.510  -0.000   0.000
   30    8    5    6        3       0.628   1.883   0.000  -2.510  -0.000   0.000
   32   14   13    8        3       0.628   1.883   0.000  -2.510  -0.000   0.000
   28    7    5    4        3       0.628   1.883   0.000  -2.510  -0.000   0.000
   24    6    5    7        3       0.628   1.883   0.000  -2.510  -0.000   0.000
   24    6    5    8        3       0.628   1.883   0.000  -2.510  -0.000   0.000
   25    6    5    7        3       0.628   1.883   0.000  -2.510  -0.000   0.000
   30    8   13    3        3       0.628   1.883   0.000  -2.510  -0.000   0.000
   32   14   13    3        3       0.628   1.883   0.000  -2.510  -0.000   0.000
   22    4    5    7        3       0.628   1.883   0.000  -2.510  -0.000   0.000
   27    7    5    8        3       0.628   1.883   0.000  -2.510  -0.000   0.000
   30    8   13   14        3       0.628   1.883   0.000  -2.510  -0.000   0.000
   21    3   13    8        3       0.628   1.883   0.000  -2.510  -0.000   0.000
   29    7    5    6        3       0.628   1.883   0.000  -2.510  -0.000   0.000
   26    6    5    4        3       0.628   1.883   0.000  -2.510  -0.000   0.000
   31   13   14   15        3       0.628   1.883   0.000  -2.510  -0.000   0.000
   31   13    8    5        3       0.628   1.883   0.000  -2.510  -0.000   0.000
   29    7    5    8        3       0.628   1.883   0.000  -2.510  -0.000   0.000
   23    4    5    6        3       0.628   1.883   0.000  -2.510  -0.000   0.000
   22    4    3   21        3       0.628   1.883   0.000  -2.510  -0.000   0.000
   34   15   14   32        3       0.628   1.883   0.000  -2.510  -0.000   0.000
   32   14   13   31        3       0.628   1.883   0.000  -2.510  -0.000   0.000
   23    4    3   21        3       0.628   1.883   0.000  -2.510  -0.000   0.000
   31   13    3   21        3       0.628   1.883   0.000  -2.510  -0.000   0.000
   33   15   14   32        3       0.628   1.883   0.000  -2.510  -0.000   0.000
   35   15   14   32        3       0.628   1.883   0.000  -2.510  -0.000   0.000
   31   13    8   30        3       0.628   1.883   0.000  -2.510  -0.000   0.000
   23    4    3    2        3       0.979   2.937   0.000  -3.916  -0.000   0.000
   31   13    3    2        3       0.979   2.937   0.000  -3.916  -0.000   0.000
   22    4    3    2        3       0.979   2.937   0.000  -3.916  -0.000   0.000
   18    1    2    3        3       1.590   4.770   0.000  -6.360  -0.000   0.000
   20    1    2    3        3       1.590   4.770   0.000  -6.360  -0.000   0.000
   19    1    2    3        3       1.590   4.770   0.000  -6.360  -0.000   0.000
   21    3    2    1        3       1.590   4.770   0.000  -6.360  -0.000   0.000
   17   16   14   15        3       0.000   0.000   0.000  -0.000  -0.000   0.000
   17   16   14   13        3       0.000   0.000   0.000  -0.000  -0.000   0.000

[ pairs ]
     1     4    1
     2     5    1
     3     6    1
     3     7    1
     2     8    1
     3     9    1
     4     9    1
     1    13    1
     6     9    1
     5    10    1
     7     9    1
     5    11    1
     2    14    1
     5    12    1
     4    14    1
     3    15    1
     6    13    1
     5    14    1
     3    16    1
     7    13    1
     3    18    1
     3    19    1
     1    21    1
    10    13    1
     9    14    1
     8    15    1
     3    20    1
    11    13    1
     8    16    1
     2    22    1
    12    13    1
     2    23    1
     5    21    1
     6    22    1
     4    24    1
     8    21    1
     7    22    1
     6    23    1
     4    25    1
    13    17    1
     8    22    1
     7    23    1
     4    26    1
     8    23    1
     7    24    1
     4    27    1
    15    17    1
     8    24    1
     7    25    1
     4    28    1
     8    25    1
     7    26    1
     6    27    1
     4    29    1
     3    30    1
     2    31    1
     8    26    1
     6    28    1
     4    30    1
    14    21    1
    13    22    1
     8    27    1
     6    29    1
     4    31    1
     3    32    1
    13    23    1
     8    28    1
     6    30    1
     5    31    1
     8    29    1
     7    30    1
    10    30    1
     9    31    1
     8    32    1
    11    30    1
    12    30    1
    21    22    1
    21    23    1
    14    30    1
    15    31    1
    13    33    1
    16    31    1
    13    34    1
    13    35    1
    17    32    1
    16    33    1
    13    36    1
    16    34    1
    16    35    1
    15    36    1
    21    31    1
    30    31    1
    31    32    1
    32    33    1
    32    34    1
    32    35    1
    32    36    1

