LIGPARGEN GENERATED GRO FILE
   36
    1UNK    C00    1   0.100   0.100   0.000
    1UNK    O01    2  -0.042   0.100   0.000
    1UNK    C02    3  -0.097   0.100   0.132
    1UNK    C03    4  -0.084   0.238   0.197
    1UNK    C04    5  -0.194   0.239   0.305
    1UNK    C05    6  -0.226   0.384   0.344
    1UNK    C06    7  -0.146   0.164   0.430
    1UNK    C07    8  -0.312   0.172   0.230
    1UNK    C08    9  -0.435   0.132   0.312
    1UNK    F09   10  -0.426   0.170   0.441
    1UNK    F0A   11  -0.546   0.190   0.262
    1UNK    F0B   12  -0.458  -0.001   0.313
    1UNK    C0C   13  -0.250   0.074   0.125
    1UNK    C0D   14  -0.290  -0.075   0.123
    1UNK    C0E   15  -0.230  -0.151   0.004
    1UNK    C0F   16  -0.255  -0.153   0.249
    1UNK    O0G   17  -0.141  -0.169   0.290
    1UNK    H0H   18   0.134   0.093  -0.104
    1UNK    H0I   19   0.138   0.014   0.055
    1UNK    H0J   20   0.139   0.193   0.043
    1UNK    H0K   21  -0.046   0.025   0.192
    1UNK    H0M   22  -0.099   0.316   0.122
    1UNK    H0N   23   0.016   0.253   0.239
    1UNK    H0O   24  -0.139   0.433   0.390
    1UNK    H0P   25  -0.309   0.389   0.414
    1UNK    H0Q   26  -0.253   0.444   0.256
    1UNK    H0R   27  -0.049   0.204   0.464
    1UNK    H0S   28  -0.133   0.057   0.412
    1UNK    H0T   29  -0.215   0.175   0.514
    1UNK    H0U   30  -0.353   0.253   0.167
    1UNK    H0V   31  -0.284   0.112   0.027
    1UNK    H0W   32  -0.399  -0.081   0.111
    1UNK    H0X   33  -0.121  -0.152   0.006
    1UNK    H0Y   34  -0.263  -0.107  -0.091
    1UNK    H0Z   35  -0.263  -0.256   0.005
    1UNK    H10   36  -0.341  -0.196   0.303
   1.00000   1.00000   1.00000

