
;
; GENERATED BY LigParGen Server
; Jorgensen Lab @ Yale University 
;
[ atomtypes ]
  opls_818  H818     1.0080     0.000    A    2.50000E-01   1.25520E-01
  opls_808  C808    12.0110     0.000    A    3.50000E-01   2.76144E-01
  opls_806  C806    12.0110     0.000    A    3.30000E-01   2.76144E-01
  opls_824  H824     1.0080     0.000    A    2.50000E-01   1.25520E-01
  opls_805  C805    12.0110     0.000    A    3.50000E-01   2.76144E-01
  opls_804  O804    15.9990     0.000    A    2.96000E-01   8.78640E-01
  opls_828  H828     1.0080     0.000    A    2.50000E-01   1.25520E-01
  opls_813  H813     1.0080     0.000    A    2.50000E-01   1.25520E-01
  opls_812  C812    12.0110     0.000    A    3.50000E-01   2.76144E-01
  opls_802  C802    12.0110     0.000    A    3.50000E-01   2.76144E-01
  opls_815  H815     1.0080     0.000    A    2.50000E-01   1.25520E-01
  opls_809  C809    12.0110     0.000    A    3.50000E-01   2.76144E-01
  opls_830  H830     1.0080     0.000    A    2.50000E-01   1.25520E-01
  opls_822  H822     1.0080     0.000    A    2.50000E-01   1.25520E-01
  opls_807  N807    14.0070     0.000    A    3.20000E-01   7.11280E-01
  opls_825  H825     1.0080     0.000    A    2.50000E-01   1.25520E-01
  opls_814  H814     1.0080     0.000    A    2.50000E-01   1.25520E-01
  opls_821  H821     1.0080     0.000    A    2.50000E-01   1.25520E-01
  opls_820  H820     1.0080     0.000    A    2.50000E-01   1.25520E-01
  opls_829  H829     1.0080     0.000    A    2.50000E-01   1.25520E-01
  opls_831  H831     1.0080     0.000    A    2.50000E-01   1.25520E-01
  opls_816  H816     1.0080     0.000    A    2.50000E-01   1.25520E-01
  opls_800  C800    12.0110     0.000    A    3.50000E-01   2.76144E-01
  opls_811  C811    12.0110     0.000    A    3.50000E-01   2.76144E-01
  opls_823  H823     1.0080     0.000    A    2.50000E-01   1.25520E-01
  opls_826  H826     1.0080     0.000    A    2.50000E-01   1.25520E-01
  opls_819  H819     1.0080     0.000    A    2.50000E-01   1.25520E-01
  opls_810  C810    12.0110     0.000    A    3.50000E-01   2.76144E-01
  opls_827  H827     1.0080     0.000    A    2.50000E-01   1.25520E-01
  opls_801  C801    12.0110     0.000    A    3.50000E-01   2.76144E-01
  opls_803  C803    12.0110     0.000    A    3.55000E-01   2.92880E-01
  opls_817  H817     1.0080     0.000    A    2.50000E-01   1.25520E-01
[ moleculetype ]
; Name               nrexcl
UNK                   3
[ atoms ]
;   nr       type  resnr residue  atom   cgnr     charge       mass  
     1   opls_800      1    UNK   C00      1    -0.2393    12.0110 
     2   opls_801      1    UNK   C01      1    -0.1697    12.0110 
     3   opls_802      1    UNK   C02      1      -0.23    12.0110 
     4   opls_803      1    UNK   C03      1     0.3654    12.0110 
     5   opls_804      1    UNK   O04      1    -0.4246    15.9990 
     6   opls_805      1    UNK   C05      1    -0.0157    12.0110 
     7   opls_806      1    UNK   C06      1     0.1321    12.0110 
     8   opls_807      1    UNK   N07      1    -0.3705    14.0070 
     9   opls_808      1    UNK   C08      1    -0.0955    12.0110 
    10   opls_809      1    UNK   C09      1    -0.1807    12.0110 
    11   opls_810      1    UNK   C0A      1    -0.2419    12.0110 
    12   opls_811      1    UNK   C0B      1    -0.1776    12.0110 
    13   opls_812      1    UNK   C0C      1    -0.2366    12.0110 
    14   opls_813      1    UNK   H0D      1      0.087     1.0080 
    15   opls_814      1    UNK   H0E      1      0.087     1.0080 
    16   opls_815      1    UNK   H0F      1      0.087     1.0080 
    17   opls_816      1    UNK   H0G      1      0.099     1.0080 
    18   opls_817      1    UNK   H0H      1      0.099     1.0080 
    19   opls_818      1    UNK   H0I      1     0.1231     1.0080 
    20   opls_819      1    UNK   H0J      1     0.1231     1.0080 
    21   opls_820      1    UNK   H0K      1     0.1552     1.0080 
    22   opls_821      1    UNK   H0M      1     0.1268     1.0080 
    23   opls_822      1    UNK   H0N      1     0.1039     1.0080 
    24   opls_823      1    UNK   H0O      1     0.1039     1.0080 
    25   opls_824      1    UNK   H0P      1     0.0821     1.0080 
    26   opls_825      1    UNK   H0Q      1     0.0821     1.0080 
    27   opls_826      1    UNK   H0R      1     0.0821     1.0080 
    28   opls_827      1    UNK   H0S      1     0.0932     1.0080 
    29   opls_828      1    UNK   H0T      1     0.0932     1.0080 
    30   opls_829      1    UNK   H0U      1     0.0855     1.0080 
    31   opls_830      1    UNK   H0V      1     0.0855     1.0080 
    32   opls_831      1    UNK   H0W      1     0.0855     1.0080 
[ bonds ]
    2     1     1      0.1529 224262.400
    3     2     1      0.1529 224262.400
    4     3     1      0.1522 265265.600
    5     4     1      0.1229 476976.000
    6     4     1      0.1522 265265.600
    7     6     1      0.1470 326352.000
    8     7     1      0.1157 543920.000
    9     6     1      0.1529 224262.400
   10     9     1      0.1529 224262.400
   11    10     1      0.1529 224262.400
   12     9     1      0.1529 224262.400
   13    12     1      0.1529 224262.400
   14     1     1      0.1090 284512.000
   15     1     1      0.1090 284512.000
   16     1     1      0.1090 284512.000
   17     2     1      0.1090 284512.000
   18     2     1      0.1090 284512.000
   19     3     1      0.1090 284512.000
   20     3     1      0.1090 284512.000
   21     6     1      0.1090 284512.000
   22     9     1      0.1090 284512.000
   23    10     1      0.1090 284512.000
   24    10     1      0.1090 284512.000
   25    11     1      0.1090 284512.000
   26    11     1      0.1090 284512.000
   27    11     1      0.1090 284512.000
   28    12     1      0.1090 284512.000
   29    12     1      0.1090 284512.000
   30    13     1      0.1090 284512.000
   31    13     1      0.1090 284512.000
   32    13     1      0.1090 284512.000

[ angles ]
;  ai    aj    ak funct            c0            c1            c2            c3 
    1     2     3     1    112.700    488.273
    2     3     4     1    111.100    527.184
    3     4     5     1    120.400    669.440
    3     4     6     1    116.000    585.760
    4     6     7     1    110.580    432.207
    6     7     8     1    180.000   1255.200
    4     6     9     1    111.100    527.184
    6     9    10     1    112.700    488.273
    9    10    11     1    112.700    488.273
    6     9    12     1    112.700    488.273
    9    12    13     1    112.700    488.273
    2     1    14     1    110.700    313.800
    2     1    15     1    110.700    313.800
    2     1    16     1    110.700    313.800
    1     2    17     1    110.700    313.800
    1     2    18     1    110.700    313.800
    2     3    19     1    110.700    313.800
    2     3    20     1    110.700    313.800
    4     6    21     1    109.500    292.880
    6     9    22     1    110.700    313.800
    9    10    23     1    110.700    313.800
    9    10    24     1    110.700    313.800
   10    11    25     1    110.700    313.800
   10    11    26     1    110.700    313.800
   10    11    27     1    110.700    313.800
    9    12    28     1    110.700    313.800
    9    12    29     1    110.700    313.800
   12    13    30     1    110.700    313.800
   12    13    31     1    110.700    313.800
   12    13    32     1    110.700    313.800
   31    13    32     1    107.800    276.144
    5     4     6     1    120.400    669.440
    9     6    21     1    110.700    313.800
    3     2    18     1    110.700    313.800
   25    11    27     1    107.800    276.144
    7     6     9     1    112.700    488.273
   28    12    29     1    107.800    276.144
   10     9    12     1    112.700    488.273
    3     2    17     1    110.700    313.800
   12     9    22     1    110.700    313.800
   13    12    28     1    110.700    313.800
    4     3    19     1    109.500    292.880
   30    13    32     1    107.800    276.144
   15     1    16     1    107.800    276.144
   14     1    15     1    107.800    276.144
   10     9    22     1    110.700    313.800
   30    13    31     1    107.800    276.144
   17     2    18     1    107.800    276.144
   23    10    24     1    107.800    276.144
   26    11    27     1    107.800    276.144
   19     3    20     1    107.800    276.144
   14     1    16     1    107.800    276.144
   25    11    26     1    107.800    276.144
    4     3    20     1    109.500    292.880
   13    12    29     1    110.700    313.800
   11    10    23     1    110.700    313.800
    7     6    21     1    108.500    292.880
   11    10    24     1    110.700    313.800

[ dihedrals ]
; IMPROPER DIHEDRAL ANGLES 
;  ai    aj    ak    al funct            c0            c1            c2            c3            c4            c5
     6     4     3     5    4        180.000     43.932     2  

[ dihedrals ]
; PROPER DIHEDRAL ANGLES
;  ai    aj    ak    al funct            c0            c1            c2            c3            c4            c5
    4    3    2    1        3      -4.960   6.286   1.310  -2.636  -0.000   0.000
    6    4    3    2        3       0.818  -7.906   0.602   6.485  -0.000   0.000
    9    6    4    3        3       0.818  -7.906   0.602   6.485  -0.000   0.000
    9    6    4    5        3       0.000   0.000   0.000  -0.000  -0.000   0.000
   10    9    6    4        3      -4.960   6.286   1.310  -2.636  -0.000   0.000
   12    9    6    4        3      -4.960   6.286   1.310  -2.636  -0.000   0.000
   11   10    9    6        3       2.301  -1.464   0.837  -1.674  -0.000   0.000
   13   12    9    6        3       2.301  -1.464   0.837  -1.674  -0.000   0.000
   13   12    9   10        3       2.301  -1.464   0.837  -1.674  -0.000   0.000
   12    9   10   11        3       2.301  -1.464   0.837  -1.674  -0.000   0.000
   12    9    6    7        3      -2.720   0.000   2.720  -0.000  -0.000   0.000
   10    9    6    7        3      -2.720   0.000   2.720  -0.000  -0.000   0.000
    9    6    7    8        3       0.000   0.000   0.000  -0.000  -0.000   0.000
    7    6    4    3        3       0.818  -7.906   0.602   6.485  -0.000   0.000
    7    6    4    5        3       0.000   0.000   0.000  -0.000  -0.000   0.000
   19    3    4    6        3       0.575   1.726   0.000  -2.301  -0.000   0.000
   20    3    4    6        3       0.575   1.726   0.000  -2.301  -0.000   0.000
   21    6    4    3        3       0.575   1.726   0.000  -2.301  -0.000   0.000
   20    3    4    5        3       0.000   0.000   0.000  -0.000  -0.000   0.000
   21    6    4    5        3       0.000   0.000   0.000  -0.000  -0.000   0.000
   19    3    4    5        3       0.000   0.000   0.000  -0.000  -0.000   0.000
   17    2    3    4        3      -0.209  -0.628   0.000   0.837  -0.000   0.000
   22    9    6    4        3      -0.209  -0.628   0.000   0.837  -0.000   0.000
   18    2    3    4        3      -0.209  -0.628   0.000   0.837  -0.000   0.000
   24   10    9    6        3       0.628   1.883   0.000  -2.510  -0.000   0.000
   27   11   10    9        3       0.628   1.883   0.000  -2.510  -0.000   0.000
   29   12    9   10        3       0.628   1.883   0.000  -2.510  -0.000   0.000
   21    6    9   10        3       0.628   1.883   0.000  -2.510  -0.000   0.000
   23   10    9    6        3       0.628   1.883   0.000  -2.510  -0.000   0.000
   16    1    2    3        3       0.628   1.883   0.000  -2.510  -0.000   0.000
   23   10    9   12        3       0.628   1.883   0.000  -2.510  -0.000   0.000
   15    1    2    3        3       0.628   1.883   0.000  -2.510  -0.000   0.000
   21    6    9   12        3       0.628   1.883   0.000  -2.510  -0.000   0.000
   24   10    9   12        3       0.628   1.883   0.000  -2.510  -0.000   0.000
   22    9   10   11        3       0.628   1.883   0.000  -2.510  -0.000   0.000
   22    9   12   13        3       0.628   1.883   0.000  -2.510  -0.000   0.000
   26   11   10    9        3       0.628   1.883   0.000  -2.510  -0.000   0.000
   29   12    9    6        3       0.628   1.883   0.000  -2.510  -0.000   0.000
   20    3    2    1        3       0.628   1.883   0.000  -2.510  -0.000   0.000
   28   12    9    6        3       0.628   1.883   0.000  -2.510  -0.000   0.000
   32   13   12    9        3       0.628   1.883   0.000  -2.510  -0.000   0.000
   31   13   12    9        3       0.628   1.883   0.000  -2.510  -0.000   0.000
   30   13   12    9        3       0.628   1.883   0.000  -2.510  -0.000   0.000
   19    3    2    1        3       0.628   1.883   0.000  -2.510  -0.000   0.000
   14    1    2    3        3       0.628   1.883   0.000  -2.510  -0.000   0.000
   25   11   10    9        3       0.628   1.883   0.000  -2.510  -0.000   0.000
   28   12    9   10        3       0.628   1.883   0.000  -2.510  -0.000   0.000
   22    9    6    7        3       0.766   2.297   0.000  -3.063  -0.000   0.000
   23   10    9   22        3       0.628   1.883   0.000  -2.510  -0.000   0.000
   30   13   12   28        3       0.628   1.883   0.000  -2.510  -0.000   0.000
   27   11   10   24        3       0.628   1.883   0.000  -2.510  -0.000   0.000
   17    2    1   14        3       0.628   1.883   0.000  -2.510  -0.000   0.000
   17    2    1   15        3       0.628   1.883   0.000  -2.510  -0.000   0.000
   17    2    1   16        3       0.628   1.883   0.000  -2.510  -0.000   0.000
   18    2    1   16        3       0.628   1.883   0.000  -2.510  -0.000   0.000
   32   13   12   29        3       0.628   1.883   0.000  -2.510  -0.000   0.000
   29   12    9   22        3       0.628   1.883   0.000  -2.510  -0.000   0.000
   31   13   12   28        3       0.628   1.883   0.000  -2.510  -0.000   0.000
   31   13   12   29        3       0.628   1.883   0.000  -2.510  -0.000   0.000
   32   13   12   28        3       0.628   1.883   0.000  -2.510  -0.000   0.000
   24   10    9   22        3       0.628   1.883   0.000  -2.510  -0.000   0.000
   18    2    1   15        3       0.628   1.883   0.000  -2.510  -0.000   0.000
   22    9    6   21        3       0.628   1.883   0.000  -2.510  -0.000   0.000
   25   11   10   23        3       0.628   1.883   0.000  -2.510  -0.000   0.000
   30   13   12   29        3       0.628   1.883   0.000  -2.510  -0.000   0.000
   20    3    2   17        3       0.628   1.883   0.000  -2.510  -0.000   0.000
   28   12    9   22        3       0.628   1.883   0.000  -2.510  -0.000   0.000
   27   11   10   23        3       0.628   1.883   0.000  -2.510  -0.000   0.000
   25   11   10   24        3       0.628   1.883   0.000  -2.510  -0.000   0.000
   19    3    2   17        3       0.628   1.883   0.000  -2.510  -0.000   0.000
   20    3    2   18        3       0.628   1.883   0.000  -2.510  -0.000   0.000
   26   11   10   23        3       0.628   1.883   0.000  -2.510  -0.000   0.000
   18    2    1   14        3       0.628   1.883   0.000  -2.510  -0.000   0.000
   19    3    2   18        3       0.628   1.883   0.000  -2.510  -0.000   0.000
   26   11   10   24        3       0.628   1.883   0.000  -2.510  -0.000   0.000
   21    6    7    8        3       0.000   0.000   0.000  -0.000  -0.000   0.000
    8    7    6    4        3       0.000   0.000   0.000  -0.000  -0.000   0.000
    5    4    3    2        3       0.000   0.000   0.000  -0.000  -0.000   0.000

[ pairs ]
     1     4    1
     2     5    1
     2     6    1
     3     7    1
     5     7    1
     4     8    1
     3     9    1
     5     9    1
     4    10    1
     4    12    1
     8     9    1
     7    10    1
     6    11    1
     3    14    1
     3    15    1
     7    12    1
     6    13    1
     3    16    1
     1    19    1
     4    17    1
     1    20    1
     4    18    1
    11    12    1
    10    13    1
     5    19    1
     3    21    1
     6    19    1
     5    20    1
     6    20    1
     5    21    1
     4    22    1
     8    21    1
     7    22    1
     6    23    1
     6    24    1
    14    17    1
    10    21    1
    15    17    1
    14    18    1
    16    17    1
    15    18    1
    12    21    1
    11    22    1
    16    18    1
     9    25    1
     6    28    1
    13    22    1
    12    23    1
     9    26    1
     6    29    1
    17    19    1
    12    24    1
     9    27    1
    18    19    1
    17    20    1
    18    20    1
    10    28    1
    10    29    1
     9    30    1
     9    31    1
     9    32    1
    21    22    1
    22    23    1
    22    24    1
    23    25    1
    24    25    1
    23    26    1
    24    26    1
    23    27    1
    22    28    1
    24    27    1
    22    29    1
    28    30    1
    29    30    1
    28    31    1
    29    31    1
    28    32    1
    29    32    1

