LIGPARGEN GENERATED GRO FILE
   26
    1UNK    C00    1   0.100   0.100   0.000
    1UNK    C01    2  -0.052   0.100   0.000
    1UNK    C02    3  -0.111   0.100   0.141
    1UNK    C03    4  -0.079   0.226   0.222
    1UNK    C04    5  -0.191   0.235   0.326
    1UNK    C05    6  -0.167   0.146   0.446
    1UNK    O06    7  -0.069   0.074   0.461
    1UNK    O07    8  -0.269   0.158   0.535
    1UNK    C08    9  -0.254   0.077   0.652
    1UNK    C09   10  -0.317   0.193   0.250
    1UNK    C0A   11  -0.262   0.104   0.141
    1UNK    O0B   12  -0.333   0.042   0.064
    1UNK    H0C   13   0.138   0.100  -0.103
    1UNK    H0D   14   0.139   0.011   0.050
    1UNK    H0E   15   0.140   0.189   0.050
    1UNK    H0F   16  -0.087   0.011  -0.054
    1UNK    H0G   17  -0.089   0.187  -0.056
    1UNK    H0H   18  -0.080   0.010   0.195
    1UNK    H0I   19  -0.081   0.315   0.158
    1UNK    H0J   20   0.021   0.220   0.268
    1UNK    H0K   21  -0.199   0.338   0.363
    1UNK    H0M   22  -0.342   0.090   0.715
    1UNK    H0N   23  -0.166   0.109   0.709
    1UNK    H0O   24  -0.245  -0.029   0.625
    1UNK    H0P   25  -0.364   0.280   0.202
    1UNK    H0Q   26  -0.390   0.139   0.310
   1.00000   1.00000   1.00000

