LIGPARGEN GENERATED GRO FILE
   34
    1UNK    C00    1   0.100   0.100   0.000
    1UNK    C01    2  -0.056   0.100   0.000
    1UNK    C02    3  -0.093   0.100   0.149
    1UNK    C03    4  -0.098   0.229  -0.077
    1UNK    C04    5  -0.246   0.252  -0.120
    1UNK    C05    6  -0.260   0.394  -0.179
    1UNK    O06    7  -0.176   0.405  -0.294
    1UNK    C07    8  -0.184   0.534  -0.355
    1UNK    C08    9  -0.097   0.542  -0.473
    1UNK    N09   10  -0.029   0.548  -0.567
    1UNK    C0A   11  -0.347   0.233  -0.007
    1UNK    C0B   12  -0.415   0.097  -0.003
    1UNK    O0C   13  -0.536   0.091   0.022
    1UNK    C0D   14  -0.332  -0.031  -0.012
    1UNK    O0E   15  -0.230  -0.031  -0.111
    1UNK    C0F   16  -0.101  -0.027  -0.074
    1UNK    O0G   17  -0.023  -0.115  -0.110
    1UNK    H0H   18   0.139   0.189   0.051
    1UNK    H0I   19   0.141   0.099  -0.102
    1UNK    H0J   20   0.140   0.012   0.052
    1UNK    H0K   21  -0.051   0.188   0.200
    1UNK    H0M   22  -0.053   0.011   0.199
    1UNK    H0N   23  -0.199   0.101   0.170
    1UNK    H0O   24  -0.040   0.231  -0.170
    1UNK    H0P   25  -0.065   0.315  -0.019
    1UNK    H0Q   26  -0.268   0.183  -0.202
    1UNK    H0R   27  -0.230   0.470  -0.105
    1UNK    H0S   28  -0.363   0.412  -0.209
    1UNK    H0T   29  -0.153   0.610  -0.282
    1UNK    H0U   30  -0.288   0.554  -0.384
    1UNK    H0V   31  -0.430   0.305  -0.021
    1UNK    H0W   32  -0.306   0.258   0.091
    1UNK    H0X   33  -0.402  -0.110  -0.042
    1UNK    H0Y   34  -0.295  -0.059   0.086
   1.00000   1.00000   1.00000

