
;
; GENERATED BY LigParGen Server
; Jorgensen Lab @ Yale University 
;
[ atomtypes ]
  opls_814  C814    12.0110     0.000    A    3.50000E-01   2.76144E-01
  opls_803  O803    15.9990     0.000    A    2.90000E-01   5.85760E-01
  opls_824  H824     1.0080     0.000    A    2.50000E-01   1.25520E-01
  opls_805  O805    15.9990     0.000    A    2.96000E-01   8.78640E-01
  opls_818  C818    12.0110     0.000    A    3.50000E-01   2.76144E-01
  opls_836  H836     1.0080     0.000    A    2.50000E-01   1.25520E-01
  opls_834  H834     1.0080     0.000    A    2.50000E-01   1.25520E-01
  opls_810  C810    12.0110     0.000    A    3.50000E-01   2.76144E-01
  opls_828  H828     1.0080     0.000    A    2.50000E-01   1.25520E-01
  opls_835  H835     1.0080     0.000    A    2.50000E-01   1.25520E-01
  opls_815  N815    14.0070     0.000    A    3.30000E-01   7.11280E-01
  opls_806  O806    15.9990     0.000    A    2.90000E-01   5.85760E-01
  opls_802  C802    12.0110     0.000    A    3.50000E-01   2.76144E-01
  opls_827  H827     1.0080     0.000    A    2.50000E-01   1.25520E-01
  opls_801  C801    12.0110     0.000    A    3.50000E-01   2.76144E-01
  opls_838  H838     1.0080     0.000    A    2.50000E-01   1.25520E-01
  opls_822  H822     1.0080     0.000    A    2.50000E-01   1.25520E-01
  opls_807  C807    12.0110     0.000    A    3.50000E-01   2.76144E-01
  opls_825  H825     1.0080     0.000    A    2.50000E-01   1.25520E-01
  opls_830  H830     1.0080     0.000    A    2.50000E-01   1.25520E-01
  opls_821  H821     1.0080     0.000    A    2.50000E-01   1.25520E-01
  opls_842  H842     1.0080     0.000    A    2.50000E-01   1.25520E-01
  opls_820  H820     1.0080     0.000    A    2.50000E-01   1.25520E-01
  opls_812  C812    12.0110     0.000    A    3.55000E-01   2.92880E-01
  opls_837  H837     1.0080     0.000    A    2.50000E-01   1.25520E-01
  opls_829  H829     1.0080     0.000    A    2.50000E-01   1.25520E-01
  opls_831  H831     1.0080     0.000    A    2.50000E-01   1.25520E-01
  opls_804  C804    12.0110     0.000    A    3.55000E-01   2.92880E-01
  opls_832  H832     1.0080     0.000    A    2.50000E-01   1.25520E-01
  opls_800  C800    12.0110     0.000    A    3.50000E-01   2.76144E-01
  opls_809  N809    14.0070     0.000    A    3.30000E-01   7.11280E-01
  opls_811  C811    12.0110     0.000    A    3.50000E-01   2.76144E-01
  opls_823  H823     1.0080     0.000    A    2.50000E-01   1.25520E-01
  opls_826  H826     1.0080     0.000    A    2.50000E-01   1.25520E-01
  opls_813  O813    15.9990     0.000    A    2.96000E-01   8.78640E-01
  opls_841  H841     1.0080     0.000    A    2.50000E-01   1.25520E-01
  opls_819  H819     1.0080     0.000    A    2.50000E-01   1.25520E-01
  opls_816  C816    12.0110     0.000    A    3.50000E-01   2.76144E-01
  opls_833  H833     1.0080     0.000    A    2.50000E-01   1.25520E-01
  opls_839  H839     1.0080     0.000    A    2.50000E-01   1.25520E-01
  opls_817  C817    12.0110     0.000    A    3.50000E-01   2.76144E-01
  opls_808  C808    12.0110     0.000    A    3.50000E-01   2.76144E-01
  opls_840  H840     1.0080     0.000    A    2.50000E-01   1.25520E-01
[ moleculetype ]
; Name               nrexcl
UNK                   3
[ atoms ]
;   nr       type  resnr residue  atom   cgnr     charge       mass  
     1   opls_800      1    UNK   C00      1    -0.2308    12.0110 
     2   opls_801      1    UNK   C01      1    -0.2048    12.0110 
     3   opls_802      1    UNK   C02      1     0.1299    12.0110 
     4   opls_803      1    UNK   O03      1     -0.353    15.9990 
     5   opls_804      1    UNK   C04      1     0.5896    12.0110 
     6   opls_805      1    UNK   O05      1    -0.4978    15.9990 
     7   opls_806      1    UNK   O06      1    -0.3196    15.9990 
     8   opls_807      1    UNK   C07      1    -0.0423    12.0110 
     9   opls_808      1    UNK   C08      1     0.0948    12.0110 
    10   opls_809      1    UNK   N09      1    -0.5664    14.0070 
    11   opls_810      1    UNK   C0A      1    -0.0632    12.0110 
    12   opls_811      1    UNK   C0B      1    -0.0494    12.0110 
    13   opls_812      1    UNK   C0C      1     0.3295    12.0110 
    14   opls_813      1    UNK   O0D      1    -0.4287    15.9990 
    15   opls_814      1    UNK   C0E      1    -0.0019    12.0110 
    16   opls_815      1    UNK   N0F      1    -0.6936    14.0070 
    17   opls_816      1    UNK   C0G      1     0.0042    12.0110 
    18   opls_817      1    UNK   C0H      1     0.1169    12.0110 
    19   opls_818      1    UNK   C0I      1    -0.2375    12.0110 
    20   opls_819      1    UNK   H0J      1     0.0911     1.0080 
    21   opls_820      1    UNK   H0K      1     0.0911     1.0080 
    22   opls_821      1    UNK   H0M      1     0.0911     1.0080 
    23   opls_822      1    UNK   H0N      1     0.1041     1.0080 
    24   opls_823      1    UNK   H0O      1     0.1041     1.0080 
    25   opls_824      1    UNK   H0P      1     0.1412     1.0080 
    26   opls_825      1    UNK   H0Q      1     0.1077     1.0080 
    27   opls_826      1    UNK   H0R      1     0.1077     1.0080 
    28   opls_827      1    UNK   H0S      1     0.1077     1.0080 
    29   opls_828      1    UNK   H0T      1     0.0954     1.0080 
    30   opls_829      1    UNK   H0U      1     0.0954     1.0080 
    31   opls_830      1    UNK   H0V      1     0.0954     1.0080 
    32   opls_831      1    UNK   H0W      1     0.0878     1.0080 
    33   opls_832      1    UNK   H0X      2     0.0878     1.0080 
    34   opls_833      1    UNK   H0Y      2     0.0878     1.0080 
    35   opls_834      1    UNK   H0Z      2     0.1312     1.0080 
    36   opls_835      1    UNK   H10      2     0.1312     1.0080 
    37   opls_836      1    UNK   H11      2     0.0817     1.0080 
    38   opls_837      1    UNK   H12      2     0.0817     1.0080 
    39   opls_838      1    UNK   H13      2     0.0817     1.0080 
    40   opls_839      1    UNK   H14      2     0.1415     1.0080 
    41   opls_840      1    UNK   H15      2     0.0933     1.0080 
    42   opls_841      1    UNK   H16      2     0.0933     1.0080 
    43   opls_842      1    UNK   H17      2     0.0933     1.0080 
[ bonds ]
    2     1     1      0.1529 224262.400
    3     2     1      0.1529 224262.400
    4     3     1      0.1410 267776.000
    5     4     1      0.1327 179075.200
    6     5     1      0.1229 476976.000
    7     5     1      0.1327 179075.200
    8     7     1      0.1410 267776.000
    9     3     1      0.1529 224262.400
   10     9     1      0.1448 319657.600
   11    10     1      0.1448 319657.600
   12    10     1      0.1448 319657.600
   13     9     1      0.1522 265265.600
   14    13     1      0.1229 476976.000
   15    13     1      0.1522 265265.600
   16    15     1      0.1448 319657.600
   17    16     1      0.1448 319657.600
   18     9     1      0.1529 224262.400
   19    18     1      0.1529 224262.400
   20     1     1      0.1090 284512.000
   21     1     1      0.1090 284512.000
   22     1     1      0.1090 284512.000
   23     2     1      0.1090 284512.000
   24     2     1      0.1090 284512.000
   25     3     1      0.1090 284512.000
   26     8     1      0.1090 284512.000
   27     8     1      0.1090 284512.000
   28     8     1      0.1090 284512.000
   29    11     1      0.1090 284512.000
   30    11     1      0.1090 284512.000
   31    11     1      0.1090 284512.000
   32    12     1      0.1090 284512.000
   33    12     1      0.1090 284512.000
   34    12     1      0.1090 284512.000
   35    15     1      0.1090 284512.000
   36    15     1      0.1090 284512.000
   37    17     1      0.1090 284512.000
   38    17     1      0.1090 284512.000
   39    17     1      0.1090 284512.000
   40    18     1      0.1090 284512.000
   41    19     1      0.1090 284512.000
   42    19     1      0.1090 284512.000
   43    19     1      0.1090 284512.000
   18    16     1      0.1448 319657.600

[ angles ]
;  ai    aj    ak funct            c0            c1            c2            c3 
    1     2     3     1    112.700    488.273
    2     3     4     1    109.500    418.400
    3     4     5     1    116.900    694.544
    4     5     6     1    123.400    694.544
    4     5     7     1    118.180    584.923
    5     7     8     1    116.900    694.544
    2     3     9     1    112.700    488.273
    3     9    10     1    109.470    470.282
    9    10    11     1    107.200    433.462
    9    10    12     1    107.200    433.462
    3     9    13     1    111.100    527.184
    9    13    14     1    120.400    669.440
    9    13    15     1    116.000    585.760
   13    15    16     1    111.200    669.440
   15    16    17     1    107.200    433.462
    3     9    18     1    112.700    488.273
    9    18    19     1    112.700    488.273
    2     1    20     1    110.700    313.800
    2     1    21     1    110.700    313.800
    2     1    22     1    110.700    313.800
    1     2    23     1    110.700    313.800
    1     2    24     1    110.700    313.800
    2     3    25     1    110.700    313.800
    7     8    26     1    109.500    292.880
    7     8    27     1    109.500    292.880
    7     8    28     1    109.500    292.880
   10    11    29     1    109.500    292.880
   10    11    30     1    109.500    292.880
   10    11    31     1    109.500    292.880
   10    12    32     1    109.500    292.880
   10    12    33     1    109.500    292.880
   10    12    34     1    109.500    292.880
   13    15    35     1    109.500    292.880
   13    15    36     1    109.500    292.880
   16    17    37     1    109.500    292.880
   16    17    38     1    109.500    292.880
   16    17    39     1    109.500    292.880
    9    18    40     1    110.700    313.800
   18    19    41     1    110.700    313.800
   18    19    42     1    110.700    313.800
   18    19    43     1    110.700    313.800
   11    10    12     1    107.200    433.462
   15    16    18     1    107.200    433.462
   32    12    34     1    107.800    276.144
   35    15    36     1    107.800    276.144
   41    19    42     1    107.800    276.144
   10     9    13     1    111.200    669.440
   16    15    36     1    109.500    292.880
   16    18    40     1    109.500    292.880
   29    11    30     1    107.800    276.144
   26     8    28     1    107.800    276.144
   14    13    15     1    120.400    669.440
   27     8    28     1    107.800    276.144
   32    12    33     1    107.800    276.144
    3     2    23     1    110.700    313.800
   37    17    39     1    107.800    276.144
    4     3     9     1    109.500    418.400
   33    12    34     1    107.800    276.144
   29    11    31     1    107.800    276.144
   37    17    38     1    107.800    276.144
    9     3    25     1    110.700    313.800
   41    19    43     1    107.800    276.144
    4     3    25     1    109.500    292.880
    6     5     7     1    123.400    694.544
   13     9    18     1    111.100    527.184
    9    18    16     1    109.470    470.282
   42    19    43     1    107.800    276.144
   23     2    24     1    107.800    276.144
   16    18    19     1    109.470    470.282
   30    11    31     1    107.800    276.144
   17    16    18     1    107.200    433.462
    3     2    24     1    110.700    313.800
   20     1    22     1    107.800    276.144
   20     1    21     1    107.800    276.144
   16    15    35     1    109.500    292.880
   21     1    22     1    107.800    276.144
   19    18    40     1    110.700    313.800
   38    17    39     1    107.800    276.144
   26     8    27     1    107.800    276.144
   10     9    18     1    109.470    470.282

[ dihedrals ]
; IMPROPER DIHEDRAL ANGLES 
;  ai    aj    ak    al funct            c0            c1            c2            c3            c4            c5
    15    13     9    14    4        180.000     43.932     2  
     7     5     4     6    4        180.000     43.932     2  

[ dihedrals ]
; PROPER DIHEDRAL ANGLES
;  ai    aj    ak    al funct            c0            c1            c2            c3            c4            c5
   13    9    3    2        3      -4.960   6.286   1.310  -2.636  -0.000   0.000
   13    9    3    4        3      -12.929  12.929   0.000  -0.000  -0.000   0.000
   13    9   10   11        3       1.789   3.492   0.536  -5.816  -0.000   0.000
   13    9   10   12        3       1.789   3.492   0.536  -5.816  -0.000   0.000
    5    4    3    2        3      -2.197   5.201   0.527  -3.531  -0.000   0.000
   15   13    9    3        3       0.818  -7.906   0.602   6.485  -0.000   0.000
   15   13    9   10        3       3.335  -1.552   2.820  -4.602  -0.000   0.000
   18    9   13   15        3       0.818  -7.906   0.602   6.485  -0.000   0.000
   18    9   13   14        3       0.000   0.000   0.000  -0.000  -0.000   0.000
   19   18    9   13        3      -4.960   6.286   1.310  -2.636  -0.000   0.000
   19   18    9    3        3       2.301  -1.464   0.837  -1.674  -0.000   0.000
   18    9    3    2        3       2.301  -1.464   0.837  -1.674  -0.000   0.000
    9    3    2    1        3       2.301  -1.464   0.837  -1.674  -0.000   0.000
   19   18    9   10        3       3.335  -1.552   2.820  -4.602  -0.000   0.000
   18    9    3    4        3       2.874   0.582   2.092  -5.548  -0.000   0.000
   18    9   10   12        3       1.789   3.492   0.536  -5.816  -0.000   0.000
   19   18   16   17        3       1.789   3.492   0.536  -5.816  -0.000   0.000
   18    9   10   11        3       1.789   3.492   0.536  -5.816  -0.000   0.000
   19   18   16   15        3       1.789   3.492   0.536  -5.816  -0.000   0.000
    9    3    4    5        3      -2.197   5.201   0.527  -3.531  -0.000   0.000
   17   16   15   13        3       1.789   3.492   0.536  -5.816  -0.000   0.000
   18   16   15   13        3       1.789   3.492   0.536  -5.816  -0.000   0.000
   17   16   18    9        3       1.789   3.492   0.536  -5.816  -0.000   0.000
   12   10    9    3        3       1.789   3.492   0.536  -5.816  -0.000   0.000
   15   16   18    9        3       1.789   3.492   0.536  -5.816  -0.000   0.000
   11   10    9    3        3       1.789   3.492   0.536  -5.816  -0.000   0.000
    8    7    5    6        3      21.439   0.000  -21.439  -0.000  -0.000   0.000
    8    7    5    4        3      31.206  -9.768  -21.439  -0.000  -0.000   0.000
   35   15   13    9        3       0.575   1.726   0.000  -2.301  -0.000   0.000
   36   15   13    9        3       0.575   1.726   0.000  -2.301  -0.000   0.000
   36   15   13   14        3       0.000   0.000   0.000  -0.000  -0.000   0.000
   35   15   13   14        3       0.000   0.000   0.000  -0.000  -0.000   0.000
   40   18    9   13        3      -0.209  -0.628   0.000   0.837  -0.000   0.000
   25    3    9   13        3      -0.209  -0.628   0.000   0.837  -0.000   0.000
   42   19   18    9        3       0.628   1.883   0.000  -2.510  -0.000   0.000
   24    2    3    9        3       0.628   1.883   0.000  -2.510  -0.000   0.000
   43   19   18    9        3       0.628   1.883   0.000  -2.510  -0.000   0.000
   40   18    9    3        3       0.628   1.883   0.000  -2.510  -0.000   0.000
   25    3    9   18        3       0.628   1.883   0.000  -2.510  -0.000   0.000
   20    1    2    3        3       0.628   1.883   0.000  -2.510  -0.000   0.000
   22    1    2    3        3       0.628   1.883   0.000  -2.510  -0.000   0.000
   25    3    2    1        3       0.628   1.883   0.000  -2.510  -0.000   0.000
   23    2    3    9        3       0.628   1.883   0.000  -2.510  -0.000   0.000
   41   19   18    9        3       0.628   1.883   0.000  -2.510  -0.000   0.000
   21    1    2    3        3       0.628   1.883   0.000  -2.510  -0.000   0.000
   25    3    2   23        3       0.628   1.883   0.000  -2.510  -0.000   0.000
   24    2    1   22        3       0.628   1.883   0.000  -2.510  -0.000   0.000
   23    2    1   20        3       0.628   1.883   0.000  -2.510  -0.000   0.000
   24    2    1   21        3       0.628   1.883   0.000  -2.510  -0.000   0.000
   23    2    1   22        3       0.628   1.883   0.000  -2.510  -0.000   0.000
   25    3    2   24        3       0.628   1.883   0.000  -2.510  -0.000   0.000
   43   19   18   40        3       0.628   1.883   0.000  -2.510  -0.000   0.000
   42   19   18   40        3       0.628   1.883   0.000  -2.510  -0.000   0.000
   24    2    1   20        3       0.628   1.883   0.000  -2.510  -0.000   0.000
   41   19   18   40        3       0.628   1.883   0.000  -2.510  -0.000   0.000
   23    2    1   21        3       0.628   1.883   0.000  -2.510  -0.000   0.000
   43   19   18   16        3      -4.096   5.088   2.966  -3.958  -0.000   0.000
   25    3    9   10        3      -4.096   5.088   2.966  -3.958  -0.000   0.000
   41   19   18   16        3      -4.096   5.088   2.966  -3.958  -0.000   0.000
   40   18    9   10        3      -4.096   5.088   2.966  -3.958  -0.000   0.000
   42   19   18   16        3      -4.096   5.088   2.966  -3.958  -0.000   0.000
   24    2    3    4        3       0.979   2.937   0.000  -3.916  -0.000   0.000
   23    2    3    4        3       0.979   2.937   0.000  -3.916  -0.000   0.000
   31   11   10   12        3       1.172   3.515   0.000  -4.686  -0.000   0.000
   33   12   10   11        3       1.172   3.515   0.000  -4.686  -0.000   0.000
   30   11   10   12        3       1.172   3.515   0.000  -4.686  -0.000   0.000
   37   17   16   18        3       1.172   3.515   0.000  -4.686  -0.000   0.000
   29   11   10    9        3       1.172   3.515   0.000  -4.686  -0.000   0.000
   37   17   16   15        3       1.172   3.515   0.000  -4.686  -0.000   0.000
   40   18   16   15        3       1.172   3.515   0.000  -4.686  -0.000   0.000
   33   12   10    9        3       1.172   3.515   0.000  -4.686  -0.000   0.000
   32   12   10    9        3       1.172   3.515   0.000  -4.686  -0.000   0.000
   39   17   16   15        3       1.172   3.515   0.000  -4.686  -0.000   0.000
   31   11   10    9        3       1.172   3.515   0.000  -4.686  -0.000   0.000
   35   15   16   17        3       1.172   3.515   0.000  -4.686  -0.000   0.000
   29   11   10   12        3       1.172   3.515   0.000  -4.686  -0.000   0.000
   30   11   10    9        3       1.172   3.515   0.000  -4.686  -0.000   0.000
   32   12   10   11        3       1.172   3.515   0.000  -4.686  -0.000   0.000
   35   15   16   18        3       1.172   3.515   0.000  -4.686  -0.000   0.000
   39   17   16   18        3       1.172   3.515   0.000  -4.686  -0.000   0.000
   36   15   16   18        3       1.172   3.515   0.000  -4.686  -0.000   0.000
   36   15   16   17        3       1.172   3.515   0.000  -4.686  -0.000   0.000
   34   12   10    9        3       1.172   3.515   0.000  -4.686  -0.000   0.000
   38   17   16   15        3       1.172   3.515   0.000  -4.686  -0.000   0.000
   34   12   10   11        3       1.172   3.515   0.000  -4.686  -0.000   0.000
   38   17   16   18        3       1.172   3.515   0.000  -4.686  -0.000   0.000
   40   18   16   17        3       1.172   3.515   0.000  -4.686  -0.000   0.000
   26    8    7    5        3       0.414   1.243   0.000  -1.657  -0.000   0.000
   25    3    4    5        3       0.414   1.243   0.000  -1.657  -0.000   0.000
   28    8    7    5        3       0.414   1.243   0.000  -1.657  -0.000   0.000
   27    8    7    5        3       0.414   1.243   0.000  -1.657  -0.000   0.000
   16   15   13    9        3       3.335  -1.552   2.820  -4.602  -0.000   0.000
   16   15   13   14        3       0.000   0.000   0.000  -0.000  -0.000   0.000
   16   18    9   13        3       3.335  -1.552   2.820  -4.602  -0.000   0.000
   10    9    3    2        3       3.335  -1.552   2.820  -4.602  -0.000   0.000
   16   18    9    3        3       3.335  -1.552   2.820  -4.602  -0.000   0.000
   16   18    9   10        3      19.600  -21.391   4.050  -2.259  -0.000   0.000
   10    9    3    4        3      16.736  -16.736   0.000  -0.000  -0.000   0.000
   14   13    9    3        3       0.000   0.000   0.000  -0.000  -0.000   0.000
   14   13    9   10        3       0.000   0.000   0.000  -0.000  -0.000   0.000
    6    5    4    3        3      21.439   0.000  -21.439  -0.000  -0.000   0.000
    7    5    4    3        3      31.206  -9.768  -21.439  -0.000  -0.000   0.000
    4    3    2    1        3       2.874   0.582   2.092  -5.548  -0.000   0.000

[ pairs ]
     1     4    1
     2     5    1
     3     6    1
     3     7    1
     1     9    1
     4     8    1
     2    10    1
     6     8    1
     5     9    1
     4    10    1
     3    11    1
     3    12    1
     2    13    1
     4    13    1
     3    14    1
     3    15    1
     3    16    1
     2    18    1
     4    18    1
     3    19    1
     3    20    1
    11    13    1
    10    14    1
     3    21    1
    12    13    1
    10    15    1
     3    22    1
    10    16    1
     9    17    1
     1    25    1
     4    23    1
     4    24    1
    11    18    1
    10    19    1
    14    16    1
    13    17    1
    12    18    1
     5    25    1
     5    26    1
    14    18    1
    13    19    1
     9    23    1
     5    27    1
     9    24    1
     5    28    1
    15    19    1
    10    25    1
    17    19    1
    13    25    1
     9    29    1
     9    30    1
     9    31    1
    12    29    1
     9    32    1
    12    30    1
     9    33    1
    20    23    1
    18    25    1
    12    31    1
    11    32    1
     9    34    1
     3    40    1
    21    23    1
    20    24    1
    11    33    1
     9    35    1
    22    23    1
    21    24    1
    11    34    1
     9    36    1
    22    24    1
    23    25    1
    24    25    1
    14    35    1
    14    36    1
    10    40    1
     9    41    1
     9    42    1
    17    35    1
    15    37    1
     9    43    1
    18    35    1
    17    36    1
    15    38    1
    13    40    1
    18    36    1
    15    39    1
    18    37    1
    15    40    1
    18    38    1
    18    39    1
    17    40    1
    16    41    1
    16    42    1
    16    43    1
    40    41    1
    40    42    1
    40    43    1

