LIGPARGEN GENERATED GRO FILE
   43
    1UNK    C00    1   0.100   0.100   0.000
    1UNK    C01    2  -0.052   0.100   0.000
    1UNK    C02    3  -0.124   0.100   0.137
    1UNK    O03    4  -0.267   0.100   0.108
    1UNK    C04    5  -0.323   0.214   0.061
    1UNK    O05    6  -0.268   0.322   0.047
    1UNK    O06    7  -0.451   0.184   0.024
    1UNK    C07    8  -0.522   0.289  -0.041
    1UNK    C08    9  -0.093  -0.024   0.232
    1UNK    N09   10   0.051  -0.030   0.280
    1UNK    C0A   11   0.097   0.093   0.346
    1UNK    C0B   12   0.086  -0.142   0.368
    1UNK    C0C   13  -0.186  -0.015   0.354
    1UNK    O0D   14  -0.206   0.087   0.420
    1UNK    C0E   15  -0.241  -0.150   0.392
    1UNK    N0F   16  -0.227  -0.232   0.272
    1UNK    C0G   17  -0.194  -0.371   0.297
    1UNK    C0H   18  -0.152  -0.157   0.169
    1UNK    C0I   19  -0.059  -0.238   0.078
    1UNK    H0J   20   0.137   0.100  -0.103
    1UNK    H0K   21   0.142   0.011   0.048
    1UNK    H0M   22   0.139   0.190   0.049
    1UNK    H0N   23  -0.089   0.017  -0.061
    1UNK    H0O   24  -0.083   0.189  -0.056
    1UNK    H0P   25  -0.102   0.193   0.191
    1UNK    H0Q   26  -0.629   0.267  -0.036
    1UNK    H0R   27  -0.492   0.293  -0.147
    1UNK    H0S   28  -0.505   0.386   0.007
    1UNK    H0T   29   0.101   0.177   0.276
    1UNK    H0U   30   0.200   0.081   0.383
    1UNK    H0V   31   0.036   0.122   0.432
    1UNK    H0W   32   0.059  -0.239   0.327
    1UNK    H0X   33   0.041  -0.133   0.468
    1UNK    H0Y   34   0.195  -0.147   0.381
    1UNK    H0Z   35  -0.347  -0.141   0.420
    1UNK    H10   36  -0.183  -0.189   0.476
    1UNK    H11   37  -0.262  -0.413   0.372
    1UNK    H12   38  -0.093  -0.386   0.333
    1UNK    H13   39  -0.208  -0.431   0.206
    1UNK    H14   40  -0.233  -0.127   0.100
    1UNK    H15   41   0.023  -0.287   0.131
    1UNK    H16   42  -0.014  -0.175   0.001
    1UNK    H17   43  -0.115  -0.316   0.025
   1.00000   1.00000   1.00000

