LIGPARGEN GENERATED GRO FILE
   29
    1UNK    C00    1   0.100   0.100   0.000
    1UNK    O01    2  -0.042   0.100   0.000
    1UNK    P02    3  -0.114   0.100   0.157
    1UNK    C03    4  -0.120   0.290   0.134
    1UNK    O04    5  -0.246   0.048   0.099
    1UNK    C05    6  -0.190   0.100   0.324
    1UNK    C06    7  -0.200   0.230   0.397
    1UNK    O07    8  -0.103   0.304   0.409
    1UNK    C08    9  -0.331   0.261   0.467
    1UNK    C09   10  -0.329   0.199   0.607
    1UNK    C0A   11  -0.207   0.246   0.687
    1UNK    C0B   12  -0.457   0.235   0.682
    1UNK    H0C   13   0.135   0.086  -0.103
    1UNK    H0D   14   0.137   0.018   0.062
    1UNK    H0E   15   0.138   0.195   0.038
    1UNK    H0F   16  -0.113   0.315   0.028
    1UNK    H0G   17  -0.033   0.333   0.184
    1UNK    H0H   18  -0.214   0.331   0.171
    1UNK    H0I   19  -0.125   0.036   0.386
    1UNK    H0J   20  -0.287   0.050   0.323
    1UNK    H0K   21  -0.414   0.222   0.407
    1UNK    H0M   22  -0.343   0.369   0.470
    1UNK    H0N   23  -0.324   0.090   0.597
    1UNK    H0O   24  -0.202   0.355   0.692
    1UNK    H0P   25  -0.114   0.209   0.642
    1UNK    H0Q   26  -0.210   0.207   0.789
    1UNK    H0R   27  -0.465   0.344   0.696
    1UNK    H0S   28  -0.458   0.188   0.780
    1UNK    H0T   29  -0.545   0.201   0.626
   1.00000   1.00000   1.00000

