LIGPARGEN GENERATED GRO FILE
   38
    1UNK    C00    1   0.100   0.100   0.000
    1UNK    C01    2  -0.052   0.100   0.000
    1UNK    C02    3  -0.107   0.100   0.142
    1UNK    C03    4  -0.260   0.100   0.143
    1UNK    C04    5  -0.313   0.100   0.287
    1UNK    C05    6  -0.466   0.100   0.290
    1UNK    C06    7  -0.516   0.100   0.435
    1UNK    C07    8  -0.669   0.100   0.440
    1UNK    C08    9  -0.725   0.093   0.584
    1UNK    C09   10  -0.681   0.214   0.667
    1UNK    C0A   11  -0.879   0.086   0.584
    1UNK    C0B   12  -0.935  -0.039   0.518
    1UNK    F0C   13  -1.070  -0.038   0.533
    1UNK    H0D   14   0.138   0.100  -0.103
    1UNK    H0E   15   0.139   0.011   0.051
    1UNK    H0F   16   0.139   0.189   0.051
    1UNK    H0G   17  -0.088   0.012  -0.054
    1UNK    H0H   18  -0.088   0.188  -0.054
    1UNK    H0I   19  -0.070   0.188   0.196
    1UNK    H0J   20  -0.070   0.012   0.196
    1UNK    H0K   21  -0.297   0.012   0.090
    1UNK    H0M   22  -0.297   0.188   0.090
    1UNK    H0N   23  -0.275   0.188   0.340
    1UNK    H0O   24  -0.275   0.011   0.340
    1UNK    H0P   25  -0.504   0.012   0.237
    1UNK    H0Q   26  -0.504   0.188   0.238
    1UNK    H0R   27  -0.476   0.188   0.485
    1UNK    H0S   28  -0.477   0.011   0.487
    1UNK    H0T   29  -0.704   0.013   0.383
    1UNK    H0U   30  -0.707   0.189   0.390
    1UNK    H0V   31  -0.686   0.003   0.633
    1UNK    H0W   32  -0.711   0.308   0.620
    1UNK    H0X   33  -0.572   0.216   0.681
    1UNK    H0Y   34  -0.726   0.211   0.767
    1UNK    H0Z   35  -0.921   0.174   0.535
    1UNK    H10   36  -0.915   0.089   0.688
    1UNK    H11   37  -0.897  -0.130   0.566
    1UNK    H12   38  -0.913  -0.043   0.412
   1.00000   1.00000   1.00000

