LIGPARGEN GENERATED GRO FILE
   24
    1UNK    C00    1   0.100   0.100   0.000
    1UNK    C01    2  -0.052   0.100   0.000
    1UNK    C02    3  -0.109   0.100   0.142
    1UNK    C03    4  -0.262   0.100   0.138
    1UNK    C04    5  -0.327  -0.026   0.075
    1UNK    C05    6  -0.438  -0.014   0.180
    1UNK    C06    7  -0.337   0.062   0.270
    1UNK    C07    8  -0.400   0.173   0.352
    1UNK    Cl0    9  -0.276   0.260   0.444
    1UNK    H09   10   0.138   0.100  -0.103
    1UNK    H0A   11   0.139   0.011   0.050
    1UNK    H0B   12   0.139   0.189   0.051
    1UNK    H0C   13  -0.087   0.012  -0.055
    1UNK    H0D   14  -0.088   0.188  -0.055
    1UNK    H0E   15  -0.074   0.189   0.196
    1UNK    H0F   16  -0.072   0.012   0.196
    1UNK    H0G   17  -0.300   0.193   0.092
    1UNK    H0H   18  -0.268  -0.118   0.085
    1UNK    H0I   19  -0.359  -0.016  -0.029
    1UNK    H0J   20  -0.475  -0.108   0.221
    1UNK    H0K   21  -0.524   0.046   0.147
    1UNK    H0M   22  -0.280  -0.008   0.333
    1UNK    H0N   23  -0.471   0.132   0.424
    1UNK    H0O   24  -0.452   0.246   0.289
   1.00000   1.00000   1.00000

