LIGPARGEN GENERATED GRO FILE
   39
    1UNK    C00    1   0.100   0.100   0.000
    1UNK    C01    2  -0.052   0.100   0.000
    1UNK    C02    3  -0.112   0.100   0.141
    1UNK    C03    4  -0.081   0.228   0.213
    1UNK    C04    5  -0.128   0.252   0.353
    1UNK    C05    6   0.021   0.240   0.328
    1UNK    C06    7   0.076   0.121   0.406
    1UNK    C07    8   0.222   0.081   0.383
    1UNK    C08    9   0.255  -0.045   0.463
    1UNK    C09   10   0.106   0.369   0.335
    1UNK    C0A   11   0.081   0.481   0.231
    1UNK    C0B   12  -0.050   0.559   0.251
    1UNK    C0C   13   0.195   0.584   0.236
    1UNK    H0D   14   0.137   0.095  -0.103
    1UNK    H0E   15   0.139   0.014   0.055
    1UNK    H0F   16   0.140   0.191   0.046
    1UNK    H0G   17  -0.088   0.011  -0.054
    1UNK    H0H   18  -0.088   0.188  -0.056
    1UNK    H0I   19  -0.078   0.011   0.196
    1UNK    H0J   20  -0.221   0.093   0.132
    1UNK    H0K   21  -0.097   0.310   0.145
    1UNK    H0M   22  -0.180   0.171   0.404
    1UNK    H0N   23  -0.167   0.348   0.383
    1UNK    H0O   24   0.014   0.032   0.387
    1UNK    H0P   25   0.063   0.143   0.513
    1UNK    H0Q   26   0.289   0.161   0.417
    1UNK    H0R   27   0.241   0.064   0.277
    1UNK    H0S   28   0.237  -0.030   0.570
    1UNK    H0T   29   0.361  -0.071   0.451
    1UNK    H0U   30   0.195  -0.130   0.429
    1UNK    H0V   31   0.211   0.339   0.321
    1UNK    H0W   32   0.099   0.410   0.437
    1UNK    H0X   33   0.082   0.437   0.131
    1UNK    H0Y   34  -0.055   0.603   0.350
    1UNK    H0Z   35  -0.139   0.497   0.236
    1UNK    H10   36  -0.058   0.639   0.177
    1UNK    H11   37   0.198   0.635   0.333
    1UNK    H12   38   0.181   0.660   0.159
    1UNK    H13   39   0.292   0.537   0.219
   1.00000   1.00000   1.00000

