LIGPARGEN GENERATED GRO FILE
   23
    1UNK    C00    1   0.100   0.100   0.000
    1UNK    C01    2  -0.049   0.100   0.000
    1UNK    C02    3  -0.118   0.100   0.134
    1UNK    C03    4  -0.129  -0.019   0.043
    1UNK    C04    5  -0.081  -0.157   0.070
    1UNK    C05    6  -0.225  -0.169   0.102
    1UNK    C06    7  -0.279  -0.171   0.242
    1UNK    C07    8  -0.302  -0.287   0.149
    1UNK    C08    9  -0.261  -0.070  -0.005
    1UNK    H09   10   0.137   0.197   0.035
    1UNK    H0A   11   0.138   0.084  -0.101
    1UNK    H0B   12   0.141   0.023   0.066
    1UNK    H0C   13  -0.090   0.165  -0.077
    1UNK    H0D   14  -0.205   0.163   0.147
    1UNK    H0E   15  -0.059   0.088   0.224
    1UNK    H0F   16  -0.010  -0.169   0.153
    1UNK    H0G   17  -0.046  -0.214  -0.017
    1UNK    H0H   18  -0.362  -0.105   0.266
    1UNK    H0I   19  -0.208  -0.184   0.323
    1UNK    H0J   20  -0.404  -0.301   0.113
    1UNK    H0K   21  -0.249  -0.379   0.169
    1UNK    H0M   22  -0.348  -0.007   0.013
    1UNK    H0N   23  -0.263  -0.108  -0.107
   1.00000   1.00000   1.00000

