LIGPARGEN GENERATED GRO FILE
   34
    1UNK    C00    1   0.100   0.100   0.000
    1UNK    C01    2  -0.052   0.100   0.000
    1UNK    C02    3  -0.110   0.100   0.142
    1UNK    C03    4  -0.085   0.227   0.223
    1UNK    C04    5  -0.222   0.200   0.169
    1UNK    O05    6  -0.315   0.168   0.272
    1UNK    C06    7  -0.422   0.093   0.238
    1UNK    O07    8  -0.480   0.096   0.131
    1UNK    C08    9  -0.445  -0.006   0.350
    1UNK    C09   10  -0.445  -0.147   0.297
    1UNK    C0A   11  -0.306  -0.206   0.266
    1UNK    C0B   12  -0.220  -0.133   0.161
    1UNK    C0C   13  -0.105  -0.040   0.209
    1UNK    C0D   14  -0.071  -0.041   0.358
    1UNK    H0E   15   0.138   0.108  -0.102
    1UNK    H0F   16   0.140   0.008   0.044
    1UNK    H0G   17   0.140   0.184   0.058
    1UNK    H0H   18  -0.089   0.013  -0.055
    1UNK    H0I   19  -0.087   0.188  -0.055
    1UNK    H0J   20  -0.030   0.309   0.178
    1UNK    H0K   21  -0.074   0.224   0.330
    1UNK    H0M   22  -0.257   0.262   0.087
    1UNK    H0N   23  -0.540   0.020   0.398
    1UNK    H0O   24  -0.367   0.006   0.426
    1UNK    H0P   25  -0.508  -0.155   0.208
    1UNK    H0Q   26  -0.491  -0.212   0.373
    1UNK    H0R   27  -0.326  -0.307   0.225
    1UNK    H0S   28  -0.251  -0.224   0.358
    1UNK    H0T   29  -0.284  -0.084   0.087
    1UNK    H0U   30  -0.170  -0.213   0.104
    1UNK    H0V   31  -0.015  -0.087   0.165
    1UNK    H0W   32  -0.150   0.003   0.420
    1UNK    H0X   33   0.021   0.016   0.376
    1UNK    H0Y   34  -0.051  -0.143   0.392
   1.00000   1.00000   1.00000

