LIGPARGEN GENERATED GRO FILE
   40
    1UNK    C00    1   0.100   0.100   0.000
    1UNK    O01    2  -0.042   0.100   0.000
    1UNK    C02    3  -0.097   0.100   0.132
    1UNK    C03    4  -0.248   0.100   0.117
    1UNK    O04    5  -0.317   0.080   0.239
    1UNK    C05    6  -0.381   0.188   0.289
    1UNK    O06    7  -0.336   0.300   0.303
    1UNK    O07    8  -0.503   0.144   0.328
    1UNK    C08    9  -0.556   0.193   0.451
    1UNK    C09   10  -0.682   0.274   0.424
    1UNK    C0A   11  -0.581   0.066   0.538
    1UNK    C0B   12  -0.681  -0.031   0.471
    1UNK    C0C   13  -0.451  -0.014   0.565
    1UNK    C0D   14  -0.345   0.065   0.641
    1UNK    S0E   15  -0.197  -0.032   0.668
    1UNK    C0F   16  -0.092   0.081   0.756
    1UNK    O0G   17  -0.230  -0.141   0.758
    1UNK    O0H   18  -0.135  -0.056   0.539
    1UNK    H0I   19   0.134   0.100  -0.104
    1UNK    H0J   20   0.139   0.010   0.049
    1UNK    H0K   21   0.138   0.190   0.049
    1UNK    H0M   22  -0.064   0.189   0.187
    1UNK    H0N   23  -0.063   0.011   0.187
    1UNK    H0O   24  -0.276   0.015   0.053
    1UNK    H0P   25  -0.282   0.190   0.064
    1UNK    H0Q   26  -0.484   0.258   0.502
    1UNK    H0R   27  -0.756   0.218   0.366
    1UNK    H0S   28  -0.657   0.363   0.365
    1UNK    H0T   29  -0.728   0.307   0.518
    1UNK    H0U   30  -0.624   0.097   0.634
    1UNK    H0V   31  -0.643  -0.067   0.374
    1UNK    H0W   32  -0.778   0.016   0.453
    1UNK    H0X   33  -0.699  -0.119   0.534
    1UNK    H0Y   34  -0.409  -0.050   0.470
    1UNK    H0Z   35  -0.475  -0.104   0.622
    1UNK    H10   36  -0.383   0.096   0.739
    1UNK    H11   37  -0.313   0.154   0.585
    1UNK    H12   38  -0.140   0.106   0.851
    1UNK    H13   39  -0.078   0.171   0.696
    1UNK    H14   40   0.003   0.032   0.774
   1.00000   1.00000   1.00000

