
;
; GENERATED BY LigParGen Server
; Jorgensen Lab @ Yale University 
;
[ atomtypes ]
  opls_818  H818     1.0080     0.000    A    2.50000E-01   1.25520E-01
  opls_824  H824     1.0080     0.000    A    2.50000E-01   1.25520E-01
  opls_815  C815    12.0110     0.000    A    3.50000E-01   2.76144E-01
  opls_816  O816    15.9990     0.000    A    2.96000E-01   7.11280E-01
  opls_836  H836     1.0080     0.000    A    2.50000E-01   1.25520E-01
  opls_834  H834     1.0080     0.000    A    2.50000E-01   1.25520E-01
  opls_828  H828     1.0080     0.000    A    2.50000E-01   1.25520E-01
  opls_801  O801    15.9990     0.000    A    2.90000E-01   5.85760E-01
  opls_811  C811    12.0110     0.000    A    3.50000E-01   2.76144E-01
  opls_827  H827     1.0080     0.000    A    2.50000E-01   1.25520E-01
  opls_809  C809    12.0110     0.000    A    3.50000E-01   2.76144E-01
  opls_838  H838     1.0080     0.000    A    2.50000E-01   1.25520E-01
  opls_822  H822     1.0080     0.000    A    2.50000E-01   1.25520E-01
  opls_803  C803    12.0110     0.000    A    3.50000E-01   2.76144E-01
  opls_825  H825     1.0080     0.000    A    2.50000E-01   1.25520E-01
  opls_830  H830     1.0080     0.000    A    2.50000E-01   1.25520E-01
  opls_821  H821     1.0080     0.000    A    2.50000E-01   1.25520E-01
  opls_820  H820     1.0080     0.000    A    2.50000E-01   1.25520E-01
  opls_837  H837     1.0080     0.000    A    2.50000E-01   1.25520E-01
  opls_814  S814    32.0600     0.000    A    3.55000E-01   1.04600E+00
  opls_831  H831     1.0080     0.000    A    2.50000E-01   1.25520E-01
  opls_805  C805    12.0110     0.000    A    3.55000E-01   2.92880E-01
  opls_832  H832     1.0080     0.000    A    2.50000E-01   1.25520E-01
  opls_800  C800    12.0110     0.000    A    3.50000E-01   2.76144E-01
  opls_802  C802    12.0110     0.000    A    3.50000E-01   2.76144E-01
  opls_823  H823     1.0080     0.000    A    2.50000E-01   1.25520E-01
  opls_813  C813    12.0110     0.000    A    3.50000E-01   2.76144E-01
  opls_826  H826     1.0080     0.000    A    2.50000E-01   1.25520E-01
  opls_835  H835     1.0080     0.000    A    2.50000E-01   1.25520E-01
  opls_819  H819     1.0080     0.000    A    2.50000E-01   1.25520E-01
  opls_810  C810    12.0110     0.000    A    3.50000E-01   2.76144E-01
  opls_833  H833     1.0080     0.000    A    2.50000E-01   1.25520E-01
  opls_839  H839     1.0080     0.000    A    2.50000E-01   1.25520E-01
  opls_829  H829     1.0080     0.000    A    2.50000E-01   1.25520E-01
  opls_812  C812    12.0110     0.000    A    3.50000E-01   2.76144E-01
  opls_808  C808    12.0110     0.000    A    3.50000E-01   2.76144E-01
  opls_806  O806    15.9990     0.000    A    2.96000E-01   8.78640E-01
  opls_817  O817    15.9990     0.000    A    2.96000E-01   7.11280E-01
  opls_804  O804    15.9990     0.000    A    2.90000E-01   5.85760E-01
  opls_807  O807    15.9990     0.000    A    2.90000E-01   5.85760E-01
[ moleculetype ]
; Name               nrexcl
UNK                   3
[ atoms ]
;   nr       type  resnr residue  atom   cgnr     charge       mass  
     1   opls_800      1    UNK   C00      1     -0.046    12.0110 
     2   opls_801      1    UNK   O01      1    -0.3866    15.9990 
     3   opls_802      1    UNK   C02      1    -0.0201    12.0110 
     4   opls_803      1    UNK   C03      1     0.0214    12.0110 
     5   opls_804      1    UNK   O04      1    -0.3248    15.9990 
     6   opls_805      1    UNK   C05      1     0.5832    12.0110 
     7   opls_806      1    UNK   O06      1    -0.4664    15.9990 
     8   opls_807      1    UNK   O07      1    -0.3464    15.9990 
     9   opls_808      1    UNK   C08      1     0.0935    12.0110 
    10   opls_809      1    UNK   C09      1    -0.2594    12.0110 
    11   opls_810      1    UNK   C0A      1    -0.1093    12.0110 
    12   opls_811      1    UNK   C0B      1    -0.2369    12.0110 
    13   opls_812      1    UNK   C0C      1    -0.1496    12.0110 
    14   opls_813      1    UNK   C0D      1    -0.5083    12.0110 
    15   opls_814      1    UNK   S0E      1     1.2977    32.0600 
    16   opls_815      1    UNK   C0F      1    -0.5852    12.0110 
    17   opls_816      1    UNK   O0G      1     -0.562    15.9990 
    18   opls_817      1    UNK   O0H      1     -0.562    15.9990 
    19   opls_818      1    UNK   H0I      1     0.0845     1.0080 
    20   opls_819      1    UNK   H0J      1     0.0845     1.0080 
    21   opls_820      1    UNK   H0K      1     0.0845     1.0080 
    22   opls_821      1    UNK   H0M      1     0.1012     1.0080 
    23   opls_822      1    UNK   H0N      1     0.1012     1.0080 
    24   opls_823      1    UNK   H0O      1     0.1224     1.0080 
    25   opls_824      1    UNK   H0P      1     0.1224     1.0080 
    26   opls_825      1    UNK   H0Q      1     0.1146     1.0080 
    27   opls_826      1    UNK   H0R      1     0.1032     1.0080 
    28   opls_827      1    UNK   H0S      1     0.1032     1.0080 
    29   opls_828      1    UNK   H0T      1     0.1032     1.0080 
    30   opls_829      1    UNK   H0U      1     0.1116     1.0080 
    31   opls_830      1    UNK   H0V      1     0.0922     1.0080 
    32   opls_831      1    UNK   H0W      1     0.0922     1.0080 
    33   opls_832      1    UNK   H0X      2     0.0922     1.0080 
    34   opls_833      1    UNK   H0Y      2      0.123     1.0080 
    35   opls_834      1    UNK   H0Z      2      0.123     1.0080 
    36   opls_835      1    UNK   H10      2     0.1549     1.0080 
    37   opls_836      1    UNK   H11      2     0.1549     1.0080 
    38   opls_837      1    UNK   H12      2     0.1661     1.0080 
    39   opls_838      1    UNK   H13      2     0.1661     1.0080 
    40   opls_839      1    UNK   H14      2     0.1661     1.0080 
[ bonds ]
    2     1     1      0.1410 267776.000
    3     2     1      0.1410 267776.000
    4     3     1      0.1529 224262.400
    5     4     1      0.1410 267776.000
    6     5     1      0.1327 179075.200
    7     6     1      0.1229 476976.000
    8     6     1      0.1327 179075.200
    9     8     1      0.1410 267776.000
   10     9     1      0.1529 224262.400
   11     9     1      0.1529 224262.400
   12    11     1      0.1529 224262.400
   13    11     1      0.1529 224262.400
   14    13     1      0.1529 224262.400
   15    14     1      0.1770 284512.000
   16    15     1      0.1770 284512.000
   17    15     1      0.1440 585760.000
   18    15     1      0.1440 585760.000
   19     1     1      0.1090 284512.000
   20     1     1      0.1090 284512.000
   21     1     1      0.1090 284512.000
   22     3     1      0.1090 284512.000
   23     3     1      0.1090 284512.000
   24     4     1      0.1090 284512.000
   25     4     1      0.1090 284512.000
   26     9     1      0.1090 284512.000
   27    10     1      0.1090 284512.000
   28    10     1      0.1090 284512.000
   29    10     1      0.1090 284512.000
   30    11     1      0.1090 284512.000
   31    12     1      0.1090 284512.000
   32    12     1      0.1090 284512.000
   33    12     1      0.1090 284512.000
   34    13     1      0.1090 284512.000
   35    13     1      0.1090 284512.000
   36    14     1      0.1090 284512.000
   37    14     1      0.1090 284512.000
   38    16     1      0.1090 284512.000
   39    16     1      0.1090 284512.000
   40    16     1      0.1090 284512.000

[ angles ]
;  ai    aj    ak funct            c0            c1            c2            c3 
    1     2     3     1    109.500    502.080
    2     3     4     1    109.500    418.400
    3     4     5     1    109.500    418.400
    4     5     6     1    116.900    694.544
    5     6     7     1    123.400    694.544
    5     6     8     1    118.180    584.923
    6     8     9     1    116.900    694.544
    8     9    10     1    109.500    418.400
    8     9    11     1    109.500    418.400
    9    11    12     1    112.700    488.273
    9    11    13     1    112.700    488.273
   11    13    14     1    112.700    488.273
   13    14    15     1    108.600    418.400
   14    15    16     1    102.000    518.816
   14    15    17     1    108.900    619.232
   14    15    18     1    108.900    619.232
    2     1    19     1    109.500    292.880
    2     1    20     1    109.500    292.880
    2     1    21     1    109.500    292.880
    2     3    22     1    109.500    292.880
    2     3    23     1    109.500    292.880
    3     4    24     1    110.700    313.800
    3     4    25     1    110.700    313.800
    8     9    26     1    109.500    292.880
    9    10    27     1    110.700    313.800
    9    10    28     1    110.700    313.800
    9    10    29     1    110.700    313.800
    9    11    30     1    110.700    313.800
   11    12    31     1    110.700    313.800
   11    12    32     1    110.700    313.800
   11    12    33     1    110.700    313.800
   11    13    34     1    110.700    313.800
   11    13    35     1    110.700    313.800
   13    14    36     1    110.700    313.800
   13    14    37     1    110.700    313.800
   15    16    38     1    109.500    292.880
   15    16    39     1    109.500    292.880
   15    16    40     1    109.500    292.880
   19     1    20     1    107.800    276.144
   27    10    28     1    107.800    276.144
   31    12    33     1    107.800    276.144
   38    16    40     1    107.800    276.144
   31    12    32     1    107.800    276.144
   39    16    40     1    107.800    276.144
    5     4    24     1    109.500    292.880
   14    13    35     1    110.700    313.800
    4     3    22     1    110.700    313.800
   10     9    26     1    110.700    313.800
   34    13    35     1    107.800    276.144
   13    11    30     1    110.700    313.800
    4     3    23     1    110.700    313.800
   12    11    30     1    110.700    313.800
   24     4    25     1    107.800    276.144
   14    13    34     1    110.700    313.800
   19     1    21     1    107.800    276.144
   27    10    29     1    107.800    276.144
   32    12    33     1    107.800    276.144
    5     4    25     1    109.500    292.880
    7     6     8     1    123.400    694.544
   28    10    29     1    107.800    276.144
   16    15    18     1    108.900    619.232
   22     3    23     1    107.800    276.144
   10     9    11     1    112.700    488.273
   15    14    37     1    109.500    292.880
   12    11    13     1    112.700    488.273
   36    14    37     1    107.800    276.144
   15    14    36     1    109.500    292.880
   20     1    21     1    107.800    276.144
   16    15    17     1    108.900    619.232
   11     9    26     1    110.700    313.800
   38    16    39     1    107.800    276.144
   17    15    18     1    119.000    870.272

[ dihedrals ]
; IMPROPER DIHEDRAL ANGLES 
;  ai    aj    ak    al funct            c0            c1            c2            c3            c4            c5
     8     6     5     7    4        180.000     43.932     2  

[ dihedrals ]
; PROPER DIHEDRAL ANGLES
;  ai    aj    ak    al funct            c0            c1            c2            c3            c4            c5
    6    5    4    3        3      -2.197   5.201   0.527  -3.531  -0.000   0.000
   14   13   11   12        3       2.301  -1.464   0.837  -1.674  -0.000   0.000
   12   11    9   10        3       2.301  -1.464   0.837  -1.674  -0.000   0.000
   13   11    9   10        3       2.301  -1.464   0.837  -1.674  -0.000   0.000
   14   13   11    9        3       2.301  -1.464   0.837  -1.674  -0.000   0.000
   12   11    9    8        3       2.874   0.582   2.092  -5.548  -0.000   0.000
   13   11    9    8        3       2.874   0.582   2.092  -5.548  -0.000   0.000
   10    9    8    6        3      -2.197   5.201   0.527  -3.531  -0.000   0.000
   11    9    8    6        3      -2.197   5.201   0.527  -3.531  -0.000   0.000
    4    3    2    1        3       1.715   2.845   1.046  -5.607  -0.000   0.000
    9    8    6    7        3      21.439   0.000  -21.439  -0.000  -0.000   0.000
    9    8    6    5        3      31.206  -9.768  -21.439  -0.000  -0.000   0.000
   16   15   14   13        3       0.000   0.000   0.000  -0.000  -0.000   0.000
   34   13   11    9        3       0.628   1.883   0.000  -2.510  -0.000   0.000
   30   11    9   10        3       0.628   1.883   0.000  -2.510  -0.000   0.000
   35   13   11   12        3       0.628   1.883   0.000  -2.510  -0.000   0.000
   37   14   13   11        3       0.628   1.883   0.000  -2.510  -0.000   0.000
   34   13   11   12        3       0.628   1.883   0.000  -2.510  -0.000   0.000
   36   14   13   11        3       0.628   1.883   0.000  -2.510  -0.000   0.000
   31   12   11   13        3       0.628   1.883   0.000  -2.510  -0.000   0.000
   26    9   11   13        3       0.628   1.883   0.000  -2.510  -0.000   0.000
   32   12   11   13        3       0.628   1.883   0.000  -2.510  -0.000   0.000
   27   10    9   11        3       0.628   1.883   0.000  -2.510  -0.000   0.000
   35   13   11    9        3       0.628   1.883   0.000  -2.510  -0.000   0.000
   33   12   11    9        3       0.628   1.883   0.000  -2.510  -0.000   0.000
   32   12   11    9        3       0.628   1.883   0.000  -2.510  -0.000   0.000
   33   12   11   13        3       0.628   1.883   0.000  -2.510  -0.000   0.000
   30   11   13   14        3       0.628   1.883   0.000  -2.510  -0.000   0.000
   29   10    9   11        3       0.628   1.883   0.000  -2.510  -0.000   0.000
   26    9   11   12        3       0.628   1.883   0.000  -2.510  -0.000   0.000
   28   10    9   11        3       0.628   1.883   0.000  -2.510  -0.000   0.000
   31   12   11    9        3       0.628   1.883   0.000  -2.510  -0.000   0.000
   34   13   11   30        3       0.628   1.883   0.000  -2.510  -0.000   0.000
   35   13   11   30        3       0.628   1.883   0.000  -2.510  -0.000   0.000
   24    4    3   22        3       0.628   1.883   0.000  -2.510  -0.000   0.000
   37   14   13   35        3       0.628   1.883   0.000  -2.510  -0.000   0.000
   31   12   11   30        3       0.628   1.883   0.000  -2.510  -0.000   0.000
   36   14   13   34        3       0.628   1.883   0.000  -2.510  -0.000   0.000
   27   10    9   26        3       0.628   1.883   0.000  -2.510  -0.000   0.000
   25    4    3   23        3       0.628   1.883   0.000  -2.510  -0.000   0.000
   28   10    9   26        3       0.628   1.883   0.000  -2.510  -0.000   0.000
   30   11    9   26        3       0.628   1.883   0.000  -2.510  -0.000   0.000
   33   12   11   30        3       0.628   1.883   0.000  -2.510  -0.000   0.000
   29   10    9   26        3       0.628   1.883   0.000  -2.510  -0.000   0.000
   25    4    3   22        3       0.628   1.883   0.000  -2.510  -0.000   0.000
   37   14   13   34        3       0.628   1.883   0.000  -2.510  -0.000   0.000
   32   12   11   30        3       0.628   1.883   0.000  -2.510  -0.000   0.000
   36   14   13   35        3       0.628   1.883   0.000  -2.510  -0.000   0.000
   24    4    3   23        3       0.628   1.883   0.000  -2.510  -0.000   0.000
   23    3    4    5        3       0.979   2.937   0.000  -3.916  -0.000   0.000
   29   10    9    8        3       0.979   2.937   0.000  -3.916  -0.000   0.000
   28   10    9    8        3       0.979   2.937   0.000  -3.916  -0.000   0.000
   27   10    9    8        3       0.979   2.937   0.000  -3.916  -0.000   0.000
   24    4    3    2        3       0.979   2.937   0.000  -3.916  -0.000   0.000
   25    4    3    2        3       0.979   2.937   0.000  -3.916  -0.000   0.000
   22    3    4    5        3       0.979   2.937   0.000  -3.916  -0.000   0.000
   30   11    9    8        3       0.979   2.937   0.000  -3.916  -0.000   0.000
   34   13   14   15        3       0.946   2.837   0.000  -3.782  -0.000   0.000
   35   13   14   15        3       0.946   2.837   0.000  -3.782  -0.000   0.000
   24    4    5    6        3       0.414   1.243   0.000  -1.657  -0.000   0.000
   25    4    5    6        3       0.414   1.243   0.000  -1.657  -0.000   0.000
   26    9    8    6        3       0.414   1.243   0.000  -1.657  -0.000   0.000
   20    1    2    3        3       1.590   4.770   0.000  -6.360  -0.000   0.000
   23    3    2    1        3       1.590   4.770   0.000  -6.360  -0.000   0.000
   22    3    2    1        3       1.590   4.770   0.000  -6.360  -0.000   0.000
   19    1    2    3        3       1.590   4.770   0.000  -6.360  -0.000   0.000
   21    1    2    3        3       1.590   4.770   0.000  -6.360  -0.000   0.000
   37   14   15   16        3       0.732   2.197   0.000  -2.929  -0.000   0.000
   40   16   15   14        3       0.732   2.197   0.000  -2.929  -0.000   0.000
   38   16   15   14        3       0.732   2.197   0.000  -2.929  -0.000   0.000
   36   14   15   16        3       0.732   2.197   0.000  -2.929  -0.000   0.000
   39   16   15   14        3       0.732   2.197   0.000  -2.929  -0.000   0.000
   37   14   15   18        3       0.732   2.197   0.000  -2.929  -0.000   0.000
   39   16   15   17        3       0.732   2.197   0.000  -2.929  -0.000   0.000
   38   16   15   18        3       0.732   2.197   0.000  -2.929  -0.000   0.000
   37   14   15   17        3       0.732   2.197   0.000  -2.929  -0.000   0.000
   36   14   15   17        3       0.732   2.197   0.000  -2.929  -0.000   0.000
   38   16   15   17        3       0.732   2.197   0.000  -2.929  -0.000   0.000
   40   16   15   18        3       0.732   2.197   0.000  -2.929  -0.000   0.000
   40   16   15   17        3       0.732   2.197   0.000  -2.929  -0.000   0.000
   39   16   15   18        3       0.732   2.197   0.000  -2.929  -0.000   0.000
   36   14   15   18        3       0.732   2.197   0.000  -2.929  -0.000   0.000
    7    6    5    4        3      21.439   0.000  -21.439  -0.000  -0.000   0.000
    8    6    5    4        3      31.206  -9.768  -21.439  -0.000  -0.000   0.000
    5    4    3    2        3      -1.151   1.151   0.000  -0.000  -0.000   0.000
   17   15   14   13        3       0.000   0.000   0.000  -0.000  -0.000   0.000
   18   15   14   13        3       0.000   0.000   0.000  -0.000  -0.000   0.000
   15   14   13   11        3       2.784   0.278   0.828  -3.891  -0.000   0.000

[ pairs ]
     1     4    1
     2     5    1
     3     6    1
     4     7    1
     4     8    1
     5     9    1
     7     9    1
     6    10    1
     6    11    1
     8    12    1
     8    13    1
    10    12    1
     3    19    1
    10    13    1
     9    14    1
     3    20    1
     1    22    1
     3    21    1
     1    23    1
    12    14    1
    11    15    1
     2    24    1
     5    22    1
     2    25    1
     5    23    1
    13    16    1
    13    17    1
     6    24    1
    13    18    1
     6    25    1
     6    26    1
     8    27    1
     8    28    1
     8    29    1
    12    26    1
    11    27    1
     8    30    1
    13    26    1
    11    28    1
    11    29    1
    10    30    1
     9    31    1
     9    32    1
     9    33    1
     9    34    1
    14    30    1
    13    31    1
     9    35    1
    13    32    1
    22    24    1
    13    33    1
    12    34    1
    23    24    1
    22    25    1
    12    35    1
    11    36    1
    23    25    1
    11    37    1
    15    34    1
    15    35    1
    16    36    1
    14    38    1
    26    27    1
    17    36    1
    16    37    1
    14    39    1
    26    28    1
    18    36    1
    17    37    1
    14    40    1
    26    29    1
    18    37    1
    17    38    1
    26    30    1
    18    38    1
    17    39    1
    18    39    1
    17    40    1
    18    40    1
    30    31    1
    30    32    1
    30    33    1
    30    34    1
    30    35    1
    34    36    1
    35    36    1
    34    37    1
    35    37    1

