
;
; GENERATED BY LigParGen Server
; Jorgensen Lab @ Yale University 
;
[ atomtypes ]
  opls_818  H818     1.0080     0.000    A    2.50000E-01   1.25520E-01
  opls_815  C815    12.0110     0.000    A    3.30000E-01   2.76144E-01
  opls_824  H824     1.0080     0.000    A    2.50000E-01   1.25520E-01
  opls_805  C805    12.0110     0.000    A    3.50000E-01   2.76144E-01
  opls_833  H833     1.0080     0.000    A    2.50000E-01   1.25520E-01
  opls_836  H836     1.0080     0.000    A    2.50000E-01   1.25520E-01
  opls_834  H834     1.0080     0.000    A    2.50000E-01   1.25520E-01
  opls_810  C810    12.0110     0.000    A    3.50000E-01   2.76144E-01
  opls_828  H828     1.0080     0.000    A    2.50000E-01   1.25520E-01
  opls_802  C802    12.0110     0.000    A    3.50000E-01   2.76144E-01
  opls_827  H827     1.0080     0.000    A    2.50000E-01   1.25520E-01
  opls_809  C809    12.0110     0.000    A    3.50000E-01   2.76144E-01
  opls_806  C806    12.0110     0.000    A    3.50000E-01   2.76144E-01
  opls_822  H822     1.0080     0.000    A    2.50000E-01   1.25520E-01
  opls_803  C803    12.0110     0.000    A    3.50000E-01   2.76144E-01
  opls_825  H825     1.0080     0.000    A    2.50000E-01   1.25520E-01
  opls_830  H830     1.0080     0.000    A    2.50000E-01   1.25520E-01
  opls_821  H821     1.0080     0.000    A    2.50000E-01   1.25520E-01
  opls_820  H820     1.0080     0.000    A    2.50000E-01   1.25520E-01
  opls_837  H837     1.0080     0.000    A    2.50000E-01   1.25520E-01
  opls_829  H829     1.0080     0.000    A    2.50000E-01   1.25520E-01
  opls_831  H831     1.0080     0.000    A    2.50000E-01   1.25520E-01
  opls_832  H832     1.0080     0.000    A    2.50000E-01   1.25520E-01
  opls_800  C800    12.0110     0.000    A    3.50000E-01   2.76144E-01
  opls_811  C811    12.0110     0.000    A    3.50000E-01   2.76144E-01
  opls_823  H823     1.0080     0.000    A    2.50000E-01   1.25520E-01
  opls_826  H826     1.0080     0.000    A    2.50000E-01   1.25520E-01
  opls_835  H835     1.0080     0.000    A    2.50000E-01   1.25520E-01
  opls_813  O813    15.9990     0.000    A    2.96000E-01   7.11280E-01
  opls_816  N816    14.0070     0.000    A    3.20000E-01   7.11280E-01
  opls_819  H819     1.0080     0.000    A    2.50000E-01   1.25520E-01
  opls_804  C804    12.0110     0.000    A    3.50000E-01   2.76144E-01
  opls_812  S812    32.0600     0.000    A    3.55000E-01   1.04600E+00
  opls_801  C801    12.0110     0.000    A    3.50000E-01   2.76144E-01
  opls_808  C808    12.0110     0.000    A    3.50000E-01   2.76144E-01
  opls_817  H817     1.0080     0.000    A    2.50000E-01   1.25520E-01
  opls_814  O814    15.9990     0.000    A    2.96000E-01   7.11280E-01
  opls_807  C807    12.0110     0.000    A    3.50000E-01   2.76144E-01
[ moleculetype ]
; Name               nrexcl
UNK                   3
[ atoms ]
;   nr       type  resnr residue  atom   cgnr     charge       mass  
     1   opls_800      1    UNK   C00      1    -0.2361    12.0110 
     2   opls_801      1    UNK   C01      1    -0.1126    12.0110 
     3   opls_802      1    UNK   C02      1    -0.1602    12.0110 
     4   opls_803      1    UNK   C03      1    -0.1879    12.0110 
     5   opls_804      1    UNK   C04      1    -0.1985    12.0110 
     6   opls_805      1    UNK   C05      1     0.0096    12.0110 
     7   opls_806      1    UNK   C06      1    -0.1626    12.0110 
     8   opls_807      1    UNK   C07      1    -0.1791    12.0110 
     9   opls_808      1    UNK   C08      1    -0.1097    12.0110 
    10   opls_809      1    UNK   C09      1    -0.2344    12.0110 
    11   opls_810      1    UNK   C0A      1    -0.1701    12.0110 
    12   opls_811      1    UNK   C0B      1    -0.3624    12.0110 
    13   opls_812      1    UNK   S0C      1     1.3634    32.0600 
    14   opls_813      1    UNK   O0D      1    -0.4984    15.9990 
    15   opls_814      1    UNK   O0E      1    -0.4984    15.9990 
    16   opls_815      1    UNK   C0F      1    -0.1871    12.0110 
    17   opls_816      1    UNK   N0G      1    -0.2179    14.0070 
    18   opls_817      1    UNK   H0H      1     0.0859     1.0080 
    19   opls_818      1    UNK   H0I      1     0.0859     1.0080 
    20   opls_819      1    UNK   H0J      1     0.0859     1.0080 
    21   opls_820      1    UNK   H0K      1     0.0925     1.0080 
    22   opls_821      1    UNK   H0M      1     0.0936     1.0080 
    23   opls_822      1    UNK   H0N      1     0.0936     1.0080 
    24   opls_823      1    UNK   H0O      1      0.097     1.0080 
    25   opls_824      1    UNK   H0P      1      0.097     1.0080 
    26   opls_825      1    UNK   H0Q      1      0.109     1.0080 
    27   opls_826      1    UNK   H0R      1      0.109     1.0080 
    28   opls_827      1    UNK   H0S      1     0.0959     1.0080 
    29   opls_828      1    UNK   H0T      1     0.0959     1.0080 
    30   opls_829      1    UNK   H0U      1     0.1037     1.0080 
    31   opls_830      1    UNK   H0V      1     0.1037     1.0080 
    32   opls_831      1    UNK   H0W      1     0.1098     1.0080 
    33   opls_832      1    UNK   H0X      2     0.0893     1.0080 
    34   opls_833      1    UNK   H0Y      2     0.0893     1.0080 
    35   opls_834      1    UNK   H0Z      2     0.0893     1.0080 
    36   opls_835      1    UNK   H10      2       0.12     1.0080 
    37   opls_836      1    UNK   H11      2       0.12     1.0080 
    38   opls_837      1    UNK   H12      2      0.176     1.0080 
[ bonds ]
    2     1     1      0.1529 224262.400
    3     2     1      0.1529 224262.400
    4     3     1      0.1529 224262.400
    5     4     1      0.1529 224262.400
    6     5     1      0.1529 224262.400
    7     2     1      0.1529 224262.400
    8     6     1      0.1529 224262.400
    9     8     1      0.1529 224262.400
   10     9     1      0.1529 224262.400
   11     9     1      0.1529 224262.400
   12     6     1      0.1529 224262.400
   13    12     1      0.1770 284512.000
   14    13     1      0.1440 585760.000
   15    13     1      0.1440 585760.000
   16    13     1      0.1685 251040.000
   17    16     1      0.1157 543920.000
   18     1     1      0.1090 284512.000
   19     1     1      0.1090 284512.000
   20     1     1      0.1090 284512.000
   21     2     1      0.1090 284512.000
   22     3     1      0.1090 284512.000
   23     3     1      0.1090 284512.000
   24     4     1      0.1090 284512.000
   25     4     1      0.1090 284512.000
   26     5     1      0.1090 284512.000
   27     5     1      0.1090 284512.000
   28     7     1      0.1090 284512.000
   29     7     1      0.1090 284512.000
   30     8     1      0.1090 284512.000
   31     8     1      0.1090 284512.000
   32     9     1      0.1090 284512.000
   33    10     1      0.1090 284512.000
   34    10     1      0.1090 284512.000
   35    10     1      0.1090 284512.000
   36    11     1      0.1090 284512.000
   37    11     1      0.1090 284512.000
   38    12     1      0.1090 284512.000
    7     6     1      0.1529 224262.400
   12    11     1      0.1529 224262.400

[ angles ]
;  ai    aj    ak funct            c0            c1            c2            c3 
    1     2     3     1    112.700    488.273
    2     3     4     1    112.700    488.273
    3     4     5     1    112.700    488.273
    4     5     6     1    112.700    488.273
    1     2     7     1    112.700    488.273
    5     6     8     1    112.700    488.273
    6     8     9     1    112.700    488.273
    8     9    10     1    112.700    488.273
    8     9    11     1    112.700    488.273
    5     6    12     1    112.700    488.273
    6    12    13     1    108.600    418.400
   12    13    14     1    108.900    619.232
   12    13    15     1    108.900    619.232
   12    13    16     1    100.000    543.920
   13    16    17     1    156.000    924.413
    2     1    18     1    110.700    313.800
    2     1    19     1    110.700    313.800
    2     1    20     1    110.700    313.800
    1     2    21     1    110.700    313.800
    2     3    22     1    110.700    313.800
    2     3    23     1    110.700    313.800
    3     4    24     1    110.700    313.800
    3     4    25     1    110.700    313.800
    4     5    26     1    110.700    313.800
    4     5    27     1    110.700    313.800
    2     7    28     1    110.700    313.800
    2     7    29     1    110.700    313.800
    6     8    30     1    110.700    313.800
    6     8    31     1    110.700    313.800
    8     9    32     1    110.700    313.800
    9    10    33     1    110.700    313.800
    9    10    34     1    110.700    313.800
    9    10    35     1    110.700    313.800
    9    11    36     1    110.700    313.800
    9    11    37     1    110.700    313.800
    6    12    38     1    110.700    313.800
    9     8    30     1    110.700    313.800
   13    12    38     1    109.500    292.880
   15    13    16     1    104.360    658.311
   11    12    13     1    108.600    418.400
    3     2    21     1    110.700    313.800
    5     4    24     1    110.700    313.800
    2     7     6     1    112.700    488.273
   14    13    15     1    119.000    870.272
    9    11    12     1    112.700    488.273
   24     4    25     1    107.800    276.144
    4     3    22     1    110.700    313.800
    5     6     7     1    112.700    488.273
   10     9    11     1    112.700    488.273
   33    10    35     1    107.800    276.144
    4     3    23     1    110.700    313.800
    7     6    12     1    112.700    488.273
   33    10    34     1    107.800    276.144
    6     5    27     1    110.700    313.800
    7     2    21     1    110.700    313.800
   11     9    32     1    110.700    313.800
   26     5    27     1    107.800    276.144
   18     1    19     1    107.800    276.144
   28     7    29     1    107.800    276.144
   36    11    37     1    107.800    276.144
    5     4    25     1    110.700    313.800
    7     6     8     1    112.700    488.273
   19     1    20     1    107.800    276.144
    6    12    11     1    112.700    488.273
    6     5    26     1    110.700    313.800
   22     3    23     1    107.800    276.144
   18     1    20     1    107.800    276.144
   12    11    36     1    110.700    313.800
   14    13    16     1    104.360    658.311
   12    11    37     1    110.700    313.800
   30     8    31     1    107.800    276.144
    9     8    31     1    110.700    313.800
   34    10    35     1    107.800    276.144
    3     2     7     1    112.700    488.273
    8     6    12     1    112.700    488.273
   10     9    32     1    110.700    313.800
   11    12    38     1    110.700    313.800
    6     7    28     1    110.700    313.800
    6     7    29     1    110.700    313.800

[ dihedrals ]
; IMPROPER DIHEDRAL ANGLES 
;  ai    aj    ak    al funct            c0            c1            c2            c3            c4            c5

[ dihedrals ]
; PROPER DIHEDRAL ANGLES
;  ai    aj    ak    al funct            c0            c1            c2            c3            c4            c5
    4    3    2    1        3       2.301  -1.464   0.837  -1.674  -0.000   0.000
   11    9    8    6        3       2.301  -1.464   0.837  -1.674  -0.000   0.000
   12    6    7    2        3       2.301  -1.464   0.837  -1.674  -0.000   0.000
   12   11    9    8        3       2.301  -1.464   0.837  -1.674  -0.000   0.000
   12   11    9   10        3       2.301  -1.464   0.837  -1.674  -0.000   0.000
   12    6    8    9        3       2.301  -1.464   0.837  -1.674  -0.000   0.000
   11   12    6    8        3       2.301  -1.464   0.837  -1.674  -0.000   0.000
    8    6    7    2        3       2.301  -1.464   0.837  -1.674  -0.000   0.000
    9    8    6    7        3       2.301  -1.464   0.837  -1.674  -0.000   0.000
   11   12    6    5        3       2.301  -1.464   0.837  -1.674  -0.000   0.000
    7    2    3    4        3       2.301  -1.464   0.837  -1.674  -0.000   0.000
   12    6    5    4        3       2.301  -1.464   0.837  -1.674  -0.000   0.000
    9   11   12    6        3       2.301  -1.464   0.837  -1.674  -0.000   0.000
    7    6    5    4        3       2.301  -1.464   0.837  -1.674  -0.000   0.000
    8    6    5    4        3       2.301  -1.464   0.837  -1.674  -0.000   0.000
    6    7    2    3        3       2.301  -1.464   0.837  -1.674  -0.000   0.000
    6    7    2    1        3       2.301  -1.464   0.837  -1.674  -0.000   0.000
    5    6    7    2        3       2.301  -1.464   0.837  -1.674  -0.000   0.000
   10    9    8    6        3       2.301  -1.464   0.837  -1.674  -0.000   0.000
    9    8    6    5        3       2.301  -1.464   0.837  -1.674  -0.000   0.000
    5    4    3    2        3       2.301  -1.464   0.837  -1.674  -0.000   0.000
    6    5    4    3        3       2.301  -1.464   0.837  -1.674  -0.000   0.000
   11   12    6    7        3       2.301  -1.464   0.837  -1.674  -0.000   0.000
   16   13   12    6        3       0.000   0.000   0.000  -0.000  -0.000   0.000
   16   13   12   11        3       0.000   0.000   0.000  -0.000  -0.000   0.000
   18    1    2    7        3       0.628   1.883   0.000  -2.510  -0.000   0.000
   30    8    6    5        3       0.628   1.883   0.000  -2.510  -0.000   0.000
   31    8    9   11        3       0.628   1.883   0.000  -2.510  -0.000   0.000
   21    2    3    4        3       0.628   1.883   0.000  -2.510  -0.000   0.000
   30    8    6   12        3       0.628   1.883   0.000  -2.510  -0.000   0.000
   38   12    6    5        3       0.628   1.883   0.000  -2.510  -0.000   0.000
   34   10    9   11        3       0.628   1.883   0.000  -2.510  -0.000   0.000
   27    5    6    8        3       0.628   1.883   0.000  -2.510  -0.000   0.000
   20    1    2    3        3       0.628   1.883   0.000  -2.510  -0.000   0.000
   27    5    6   12        3       0.628   1.883   0.000  -2.510  -0.000   0.000
   36   11    9   10        3       0.628   1.883   0.000  -2.510  -0.000   0.000
   31    8    6    5        3       0.628   1.883   0.000  -2.510  -0.000   0.000
   20    1    2    7        3       0.628   1.883   0.000  -2.510  -0.000   0.000
   29    7    2    3        3       0.628   1.883   0.000  -2.510  -0.000   0.000
   38   12    6    8        3       0.628   1.883   0.000  -2.510  -0.000   0.000
   26    5    4    3        3       0.628   1.883   0.000  -2.510  -0.000   0.000
   23    3    2    1        3       0.628   1.883   0.000  -2.510  -0.000   0.000
   38   12    6    7        3       0.628   1.883   0.000  -2.510  -0.000   0.000
   33   10    9   11        3       0.628   1.883   0.000  -2.510  -0.000   0.000
   28    7    2    3        3       0.628   1.883   0.000  -2.510  -0.000   0.000
   30    8    9   11        3       0.628   1.883   0.000  -2.510  -0.000   0.000
   31    8    9   10        3       0.628   1.883   0.000  -2.510  -0.000   0.000
   29    7    6    8        3       0.628   1.883   0.000  -2.510  -0.000   0.000
   36   11    9    8        3       0.628   1.883   0.000  -2.510  -0.000   0.000
   24    4    5    6        3       0.628   1.883   0.000  -2.510  -0.000   0.000
   32    9   11   12        3       0.628   1.883   0.000  -2.510  -0.000   0.000
   34   10    9    8        3       0.628   1.883   0.000  -2.510  -0.000   0.000
   38   12   11    9        3       0.628   1.883   0.000  -2.510  -0.000   0.000
   26    5    6    8        3       0.628   1.883   0.000  -2.510  -0.000   0.000
   31    8    6   12        3       0.628   1.883   0.000  -2.510  -0.000   0.000
   27    5    6    7        3       0.628   1.883   0.000  -2.510  -0.000   0.000
   29    7    6   12        3       0.628   1.883   0.000  -2.510  -0.000   0.000
   37   11   12    6        3       0.628   1.883   0.000  -2.510  -0.000   0.000
   31    8    6    7        3       0.628   1.883   0.000  -2.510  -0.000   0.000
   28    7    6   12        3       0.628   1.883   0.000  -2.510  -0.000   0.000
   32    9    8    6        3       0.628   1.883   0.000  -2.510  -0.000   0.000
   35   10    9   11        3       0.628   1.883   0.000  -2.510  -0.000   0.000
   28    7    6    8        3       0.628   1.883   0.000  -2.510  -0.000   0.000
   35   10    9    8        3       0.628   1.883   0.000  -2.510  -0.000   0.000
   29    7    2    1        3       0.628   1.883   0.000  -2.510  -0.000   0.000
   25    4    3    2        3       0.628   1.883   0.000  -2.510  -0.000   0.000
   28    7    2    1        3       0.628   1.883   0.000  -2.510  -0.000   0.000
   33   10    9    8        3       0.628   1.883   0.000  -2.510  -0.000   0.000
   22    3    2    7        3       0.628   1.883   0.000  -2.510  -0.000   0.000
   22    3    4    5        3       0.628   1.883   0.000  -2.510  -0.000   0.000
   23    3    2    7        3       0.628   1.883   0.000  -2.510  -0.000   0.000
   24    4    3    2        3       0.628   1.883   0.000  -2.510  -0.000   0.000
   26    5    6   12        3       0.628   1.883   0.000  -2.510  -0.000   0.000
   26    5    6    7        3       0.628   1.883   0.000  -2.510  -0.000   0.000
   37   11    9   10        3       0.628   1.883   0.000  -2.510  -0.000   0.000
   23    3    4    5        3       0.628   1.883   0.000  -2.510  -0.000   0.000
   22    3    2    1        3       0.628   1.883   0.000  -2.510  -0.000   0.000
   30    8    9   10        3       0.628   1.883   0.000  -2.510  -0.000   0.000
   25    4    5    6        3       0.628   1.883   0.000  -2.510  -0.000   0.000
   36   11   12    6        3       0.628   1.883   0.000  -2.510  -0.000   0.000
   29    7    6    5        3       0.628   1.883   0.000  -2.510  -0.000   0.000
   28    7    6    5        3       0.628   1.883   0.000  -2.510  -0.000   0.000
   19    1    2    3        3       0.628   1.883   0.000  -2.510  -0.000   0.000
   21    2    7    6        3       0.628   1.883   0.000  -2.510  -0.000   0.000
   18    1    2    3        3       0.628   1.883   0.000  -2.510  -0.000   0.000
   27    5    4    3        3       0.628   1.883   0.000  -2.510  -0.000   0.000
   37   11    9    8        3       0.628   1.883   0.000  -2.510  -0.000   0.000
   30    8    6    7        3       0.628   1.883   0.000  -2.510  -0.000   0.000
   19    1    2    7        3       0.628   1.883   0.000  -2.510  -0.000   0.000
   37   11    9   32        3       0.628   1.883   0.000  -2.510  -0.000   0.000
   23    3    2   21        3       0.628   1.883   0.000  -2.510  -0.000   0.000
   26    5    4   25        3       0.628   1.883   0.000  -2.510  -0.000   0.000
   32    9    8   31        3       0.628   1.883   0.000  -2.510  -0.000   0.000
   33   10    9   32        3       0.628   1.883   0.000  -2.510  -0.000   0.000
   27    5    4   24        3       0.628   1.883   0.000  -2.510  -0.000   0.000
   25    4    3   23        3       0.628   1.883   0.000  -2.510  -0.000   0.000
   38   12   11   37        3       0.628   1.883   0.000  -2.510  -0.000   0.000
   25    4    3   22        3       0.628   1.883   0.000  -2.510  -0.000   0.000
   24    4    3   23        3       0.628   1.883   0.000  -2.510  -0.000   0.000
   22    3    2   21        3       0.628   1.883   0.000  -2.510  -0.000   0.000
   29    7    2   21        3       0.628   1.883   0.000  -2.510  -0.000   0.000
   38   12   11   36        3       0.628   1.883   0.000  -2.510  -0.000   0.000
   26    5    4   24        3       0.628   1.883   0.000  -2.510  -0.000   0.000
   21    2    1   19        3       0.628   1.883   0.000  -2.510  -0.000   0.000
   34   10    9   32        3       0.628   1.883   0.000  -2.510  -0.000   0.000
   21    2    1   18        3       0.628   1.883   0.000  -2.510  -0.000   0.000
   35   10    9   32        3       0.628   1.883   0.000  -2.510  -0.000   0.000
   36   11    9   32        3       0.628   1.883   0.000  -2.510  -0.000   0.000
   21    2    1   20        3       0.628   1.883   0.000  -2.510  -0.000   0.000
   24    4    3   22        3       0.628   1.883   0.000  -2.510  -0.000   0.000
   27    5    4   25        3       0.628   1.883   0.000  -2.510  -0.000   0.000
   32    9    8   30        3       0.628   1.883   0.000  -2.510  -0.000   0.000
   28    7    2   21        3       0.628   1.883   0.000  -2.510  -0.000   0.000
   37   11   12   13        3       0.946   2.837   0.000  -3.782  -0.000   0.000
   36   11   12   13        3       0.946   2.837   0.000  -3.782  -0.000   0.000
   38   12   13   16        3       0.732   2.197   0.000  -2.929  -0.000   0.000
   38   12   13   14        3       0.732   2.197   0.000  -2.929  -0.000   0.000
   38   12   13   15        3       0.732   2.197   0.000  -2.929  -0.000   0.000
   17   16   13   12        3       0.732   2.197   0.000  -2.929  -0.000   0.000
   17   16   13   14        3       0.000   0.000   0.000  -0.000  -0.000   0.000
   17   16   13   15        3       0.000   0.000   0.000  -0.000  -0.000   0.000
   14   13   12   11        3       0.000   0.000   0.000  -0.000  -0.000   0.000
   15   13   12    6        3       0.000   0.000   0.000  -0.000  -0.000   0.000
   15   13   12   11        3       0.000   0.000   0.000  -0.000  -0.000   0.000
   14   13   12    6        3       0.000   0.000   0.000  -0.000  -0.000   0.000
   13   12    6    8        3       2.784   0.278   0.828  -3.891  -0.000   0.000
   13   12    6    5        3       2.784   0.278   0.828  -3.891  -0.000   0.000
   13   12   11    9        3       2.784   0.278   0.828  -3.891  -0.000   0.000
   13   12    6    7        3       2.784   0.278   0.828  -3.891  -0.000   0.000

[ pairs ]
     1     4    1
     2     5    1
     1     6    1
     3     6    1
     2     8    1
     4     7    1
     4     8    1
     5     9    1
     2    12    1
     7     9    1
     6    10    1
     5    11    1
     4    12    1
     7    11    1
     5    13    1
     7    13    1
     6    14    1
     8    13    1
     6    15    1
     3    18    1
    10    12    1
     9    13    1
     6    16    1
     3    19    1
     3    20    1
     1    22    1
     1    23    1
    11    14    1
     7    18    1
     4    21    1
    11    15    1
     7    19    1
     2    24    1
    11    16    1
     7    20    1
     6    21    1
     5    22    1
     2    25    1
     5    23    1
    12    17    1
     7    22    1
     3    26    1
     1    28    1
     7    23    1
     6    24    1
     3    27    1
     1    29    1
    14    17    1
     6    25    1
     3    28    1
    15    17    1
     3    29    1
     7    26    1
     5    28    1
     8    26    1
     7    27    1
     5    29    1
     8    27    1
     5    30    1
     8    28    1
     5    31    1
     8    29    1
     7    30    1
    12    26    1
     7    31    1
     6    32    1
    18    21    1
    12    27    1
    19    21    1
    12    28    1
    10    30    1
    20    21    1
    12    29    1
    11    30    1
    10    31    1
     8    33    1
    12    30    1
    11    31    1
     8    34    1
     6    36    1
    21    22    1
    12    31    1
     8    35    1
     6    37    1
     5    38    1
    21    23    1
    12    32    1
    11    33    1
     8    36    1
    11    34    1
     8    37    1
     7    38    1
    22    24    1
    11    35    1
    10    36    1
     8    38    1
    23    24    1
    22    25    1
    10    37    1
     9    38    1
    23    25    1
    21    28    1
    13    36    1
    24    26    1
    21    29    1
    13    37    1
    25    26    1
    24    27    1
    25    27    1
    14    38    1
    15    38    1
    16    38    1
    30    32    1
    31    32    1
    32    33    1
    32    34    1
    32    35    1
    32    36    1
    32    37    1
    36    38    1
    37    38    1

