LIGPARGEN GENERATED GRO FILE
   38
    1UNK    C00    1   0.100   0.100   0.000
    1UNK    C01    2  -0.053   0.100   0.000
    1UNK    C02    3  -0.118   0.100   0.139
    1UNK    C03    4  -0.155  -0.035   0.198
    1UNK    C04    5  -0.208  -0.137   0.098
    1UNK    C05    6  -0.128  -0.149  -0.034
    1UNK    C06    7  -0.111  -0.007  -0.093
    1UNK    C07    8  -0.217  -0.228  -0.136
    1UNK    C08    9  -0.129  -0.331  -0.204
    1UNK    C09   10  -0.208  -0.453  -0.250
    1UNK    C0A   11  -0.027  -0.366  -0.098
    1UNK    C0B   12   0.005  -0.232  -0.029
    1UNK    S0C   13   0.082  -0.267   0.131
    1UNK    O0D   14   0.141  -0.151   0.195
    1UNK    O0E   15   0.014  -0.373   0.204
    1UNK    C0F   16   0.236  -0.351   0.089
    1UNK    N0G   17   0.335  -0.403   0.057
    1UNK    H0H   18   0.140   0.178   0.066
    1UNK    H0I   19   0.137   0.120  -0.101
    1UNK    H0J   20   0.143   0.005   0.030
    1UNK    H0K   21  -0.078   0.197  -0.044
    1UNK    H0M   22  -0.211   0.158   0.131
    1UNK    H0N   23  -0.055   0.155   0.211
    1UNK    H0O   24  -0.233  -0.020   0.275
    1UNK    H0P   25  -0.071  -0.076   0.254
    1UNK    H0Q   26  -0.311  -0.107   0.074
    1UNK    H0R   27  -0.217  -0.235   0.146
    1UNK    H0S   28  -0.211   0.030  -0.120
    1UNK    H0T   29  -0.055  -0.011  -0.187
    1UNK    H0U   30  -0.263  -0.164  -0.211
    1UNK    H0V   31  -0.300  -0.278  -0.084
    1UNK    H0W   32  -0.079  -0.286  -0.290
    1UNK    H0X   33  -0.260  -0.500  -0.165
    1UNK    H0Y   34  -0.142  -0.529  -0.294
    1UNK    H0Z   35  -0.283  -0.425  -0.324
    1UNK    H10   36   0.062  -0.412  -0.141
    1UNK    H11   37  -0.070  -0.437  -0.026
    1UNK    H12   38   0.082  -0.180  -0.088
   1.00000   1.00000   1.00000

