LIGPARGEN GENERATED GRO FILE
   31
    1UNK    C00    1   0.100   0.100   0.000
    1UNK    C01    2  -0.052   0.100   0.000
    1UNK    C02    3  -0.108   0.100   0.142
    1UNK    C03    4  -0.261   0.100   0.143
    1UNK    C04    5  -0.314   0.100   0.286
    1UNK    C05    6  -0.467   0.099   0.294
    1UNK    C06    7  -0.533  -0.022   0.223
    1UNK    C07    8  -0.681  -0.046   0.215
    1UNK    C08    9  -0.606  -0.006   0.092
    1UNK    C09   10  -0.524   0.151   0.424
    1UNK    C0A   11  -0.535   0.235   0.300
    1UNK    H0B   12   0.138   0.100  -0.103
    1UNK    H0C   13   0.139   0.011   0.051
    1UNK    H0D   14   0.139   0.189   0.051
    1UNK    H0E   15  -0.088   0.012  -0.054
    1UNK    H0F   16  -0.088   0.188  -0.054
    1UNK    H0G   17  -0.071   0.188   0.196
    1UNK    H0H   18  -0.071   0.012   0.196
    1UNK    H0I   19  -0.296   0.011   0.089
    1UNK    H0J   20  -0.299   0.188   0.089
    1UNK    H0K   21  -0.274   0.187   0.339
    1UNK    H0M   22  -0.277   0.011   0.340
    1UNK    H0N   23  -0.474  -0.114   0.233
    1UNK    H0O   24  -0.749   0.026   0.260
    1UNK    H0P   25  -0.716  -0.149   0.223
    1UNK    H0Q   26  -0.622   0.094   0.053
    1UNK    H0R   27  -0.589  -0.081   0.016
    1UNK    H0S   28  -0.457   0.185   0.502
    1UNK    H0T   29  -0.614   0.105   0.463
    1UNK    H0U   30  -0.475   0.324   0.293
    1UNK    H0V   31  -0.634   0.246   0.256
   1.00000   1.00000   1.00000

