
;
; GENERATED BY LigParGen Server
; Jorgensen Lab @ Yale University 
;
[ atomtypes ]
  opls_818  H818     1.0080     0.000    A    2.50000E-01   1.25520E-01
  opls_824  H824     1.0080     0.000    A    2.50000E-01   1.25520E-01
  opls_810 Cl810    35.4500     0.000    A    3.40000E-01   1.25520E+00
  opls_813  H813     1.0080     0.000    A    2.50000E-01   1.25520E-01
  opls_804  N804    14.0070     0.000    A    3.25000E-01   7.11280E-01
  opls_803  O803    15.9990     0.000    A    2.96000E-01   8.78640E-01
  opls_806  C806    12.0110     0.000    A    3.50000E-01   2.76144E-01
  opls_815  H815     1.0080     0.000    A    2.50000E-01   1.25520E-01
  opls_809  C809    12.0110     0.000    A    3.50000E-01   2.76144E-01
  opls_822  H822     1.0080     0.000    A    2.50000E-01   1.25520E-01
  opls_807  C807    12.0110     0.000    A    3.50000E-01   2.76144E-01
  opls_814  H814     1.0080     0.000    A    2.50000E-01   1.25520E-01
  opls_821  H821     1.0080     0.000    A    2.50000E-01   1.25520E-01
  opls_820  H820     1.0080     0.000    A    2.50000E-01   1.25520E-01
  opls_811  H811     1.0080     0.000    A    2.50000E-01   1.25520E-01
  opls_816  H816     1.0080     0.000    A    2.50000E-01   1.25520E-01
  opls_800  C800    12.0110     0.000    A    3.50000E-01   2.76144E-01
  opls_823  H823     1.0080     0.000    A    2.50000E-01   1.25520E-01
  opls_802  C802    12.0110     0.000    A    3.55000E-01   2.92880E-01
  opls_819  H819     1.0080     0.000    A    2.50000E-01   1.25520E-01
  opls_805  C805    12.0110     0.000    A    3.50000E-01   2.76144E-01
  opls_801  C801    12.0110     0.000    A    3.50000E-01   2.76144E-01
  opls_808  C808    12.0110     0.000    A    3.50000E-01   2.76144E-01
  opls_817  H817     1.0080     0.000    A    2.50000E-01   1.25520E-01
  opls_812  H812     1.0080     0.000    A    2.50000E-01   1.25520E-01
[ moleculetype ]
; Name               nrexcl
UNK                   3
[ atoms ]
;   nr       type  resnr residue  atom   cgnr     charge       mass  
     1   opls_800      1    UNK   C00      1    -0.2274    12.0110 
     2   opls_801      1    UNK   C01      1    -0.2068    12.0110 
     3   opls_802      1    UNK   C02      1     0.5946    12.0110 
     4   opls_803      1    UNK   O03      1    -0.4344    15.9990 
     5   opls_804      1    UNK   N04      1    -0.9279    14.0070 
     6   opls_805      1    UNK   C05      1     0.1237    12.0110 
     7   opls_806      1    UNK   C06      1    -0.1989    12.0110 
     8   opls_807      1    UNK   C07      1    -0.1784    12.0110 
     9   opls_808      1    UNK   C08      1    -0.1936    12.0110 
    10   opls_809      1    UNK   C09      1     0.4042    12.0110 
    11   opls_810      1    UNK   Cl0      1    -0.2947    35.4500 
    12   opls_811      1    UNK   H0B      1     0.0955     1.0080 
    13   opls_812      1    UNK   H0C      1     0.0955     1.0080 
    14   opls_813      1    UNK   H0D      1     0.0955     1.0080 
    15   opls_814      1    UNK   H0E      1     0.1161     1.0080 
    16   opls_815      1    UNK   H0F      1     0.1161     1.0080 
    17   opls_816      1    UNK   H0G      1     0.1232     1.0080 
    18   opls_817      1    UNK   H0H      1     0.1232     1.0080 
    19   opls_818      1    UNK   H0I      1     0.1033     1.0080 
    20   opls_819      1    UNK   H0J      1     0.1033     1.0080 
    21   opls_820      1    UNK   H0K      1     0.1019     1.0080 
    22   opls_821      1    UNK   H0M      1     0.1019     1.0080 
    23   opls_822      1    UNK   H0N      1      0.113     1.0080 
    24   opls_823      1    UNK   H0O      1      0.113     1.0080 
    25   opls_824      1    UNK   H0P      1      0.138     1.0080 
[ bonds ]
    2     1     1      0.1529 224262.400
    3     2     1      0.1522 265265.600
    4     3     1      0.1229 476976.000
    5     3     1      0.1335 410032.000
    6     5     1      0.1449 282001.600
    7     6     1      0.1529 224262.400
    8     7     1      0.1529 224262.400
    9     8     1      0.1529 224262.400
   10     5     1      0.1449 282001.600
   11    10     1      0.1781 205016.000
   12     1     1      0.1090 284512.000
   13     1     1      0.1090 284512.000
   14     1     1      0.1090 284512.000
   15     2     1      0.1090 284512.000
   16     2     1      0.1090 284512.000
   17     6     1      0.1090 284512.000
   18     6     1      0.1090 284512.000
   19     7     1      0.1090 284512.000
   20     7     1      0.1090 284512.000
   21     8     1      0.1090 284512.000
   22     8     1      0.1090 284512.000
   23     9     1      0.1090 284512.000
   24     9     1      0.1090 284512.000
   25    10     1      0.1090 284512.000
   10     9     1      0.1529 224262.400

[ angles ]
;  ai    aj    ak funct            c0            c1            c2            c3 
    1     2     3     1    111.100    527.184
    2     3     4     1    120.400    669.440
    2     3     5     1    116.600    585.760
    3     5     6     1    121.900    418.400
    5     6     7     1    109.700    669.440
    6     7     8     1    112.700    488.273
    7     8     9     1    112.700    488.273
    3     5    10     1    121.900    418.400
    5    10    11     1    110.580    432.207
    2     1    12     1    110.700    313.800
    2     1    13     1    110.700    313.800
    2     1    14     1    110.700    313.800
    1     2    15     1    110.700    313.800
    1     2    16     1    110.700    313.800
    5     6    17     1    109.500    292.880
    5     6    18     1    109.500    292.880
    6     7    19     1    110.700    313.800
    6     7    20     1    110.700    313.800
    7     8    21     1    110.700    313.800
    7     8    22     1    110.700    313.800
    8     9    23     1    110.700    313.800
    8     9    24     1    110.700    313.800
    5    10    25     1    109.500    292.880
    7     6    17     1    110.700    313.800
    9    10    25     1    110.700    313.800
   23     9    24     1    107.800    276.144
    7     6    18     1    110.700    313.800
   21     8    22     1    107.800    276.144
   10     9    23     1    110.700    313.800
   17     6    18     1    107.800    276.144
    3     2    15     1    109.500    292.880
    6     5    10     1    118.000    418.400
    5    10     9     1    109.700    669.440
   12     1    14     1    107.800    276.144
    4     3     5     1    122.900    669.440
   15     2    16     1    107.800    276.144
    3     2    16     1    109.500    292.880
    9    10    11     1    109.800    577.392
   12     1    13     1    107.800    276.144
    8     7    19     1    110.700    313.800
   11    10    25     1    107.600    426.768
    9     8    22     1    110.700    313.800
   19     7    20     1    107.800    276.144
   13     1    14     1    107.800    276.144
   10     9    24     1    110.700    313.800
    9     8    21     1    110.700    313.800
    8     9    10     1    112.700    488.273
    8     7    20     1    110.700    313.800

[ dihedrals ]
; IMPROPER DIHEDRAL ANGLES 
;  ai    aj    ak    al funct            c0            c1            c2            c3            c4            c5
    10     5     3     6    4        180.000     10.460     2  
     5     3     2     4    4        180.000     43.932     2  

[ dihedrals ]
; PROPER DIHEDRAL ANGLES
;  ai    aj    ak    al funct            c0            c1            c2            c3            c4            c5
    9    8    7    6        3       2.301  -1.464   0.837  -1.674  -0.000   0.000
   10    9    8    7        3       2.301  -1.464   0.837  -1.674  -0.000   0.000
    8    7    6    5        3      -0.766   2.707   4.025  -5.966  -0.000   0.000
    8    9   10    5        3      -0.766   2.707   4.025  -5.966  -0.000   0.000
    9   10    5    3        3       1.933   0.000  -1.933  -0.000  -0.000   0.000
    7    6    5    3        3       1.933   0.000  -1.933  -0.000  -0.000   0.000
    9   10    5    6        3       6.872  -9.943   3.071  -0.000  -0.000   0.000
    6    5    3    2        3      30.288  -4.812  -25.476  -0.000  -0.000   0.000
   10    5    3    2        3      30.288  -4.812  -25.476  -0.000  -0.000   0.000
   10    5    3    4        3      25.476   0.000  -25.476  -0.000  -0.000   0.000
    6    5    3    4        3      25.476   0.000  -25.476  -0.000  -0.000   0.000
   10    5    6    7        3       6.872  -9.943   3.071  -0.000  -0.000   0.000
   11   10    9    8        3       0.837   2.510   0.000  -3.347  -0.000   0.000
   11   10    5    3        3      -2.910  -0.387  -3.816   7.113  -0.000   0.000
   11   10    5    6        3      -5.724  -18.338  -5.234  29.296  -0.000   0.000
   16    2    3    5        3       0.000   0.000   0.000  -0.000  -0.000   0.000
   15    2    3    5        3       0.000   0.000   0.000  -0.000  -0.000   0.000
   15    2    3    4        3       0.000   0.000   0.000  -0.000  -0.000   0.000
   16    2    3    4        3       0.000   0.000   0.000  -0.000  -0.000   0.000
   12    1    2    3        3      -0.209  -0.628   0.000   0.837  -0.000   0.000
   14    1    2    3        3      -0.209  -0.628   0.000   0.837  -0.000   0.000
   13    1    2    3        3      -0.209  -0.628   0.000   0.837  -0.000   0.000
   19    7    8    9        3       0.628   1.883   0.000  -2.510  -0.000   0.000
   23    9    8    7        3       0.628   1.883   0.000  -2.510  -0.000   0.000
   21    8    7    6        3       0.628   1.883   0.000  -2.510  -0.000   0.000
   25   10    9    8        3       0.628   1.883   0.000  -2.510  -0.000   0.000
   20    7    8    9        3       0.628   1.883   0.000  -2.510  -0.000   0.000
   18    6    7    8        3       0.628   1.883   0.000  -2.510  -0.000   0.000
   24    9    8    7        3       0.628   1.883   0.000  -2.510  -0.000   0.000
   22    8    7    6        3       0.628   1.883   0.000  -2.510  -0.000   0.000
   17    6    7    8        3       0.628   1.883   0.000  -2.510  -0.000   0.000
   21    8    9   10        3       0.628   1.883   0.000  -2.510  -0.000   0.000
   22    8    9   10        3       0.628   1.883   0.000  -2.510  -0.000   0.000
   23    9   10   11        3       0.837   2.510   0.000  -3.347  -0.000   0.000
   24    9   10   11        3       0.837   2.510   0.000  -3.347  -0.000   0.000
   15    2    1   13        3       0.628   1.883   0.000  -2.510  -0.000   0.000
   21    8    7   19        3       0.628   1.883   0.000  -2.510  -0.000   0.000
   23    9    8   21        3       0.628   1.883   0.000  -2.510  -0.000   0.000
   22    8    7   20        3       0.628   1.883   0.000  -2.510  -0.000   0.000
   15    2    1   14        3       0.628   1.883   0.000  -2.510  -0.000   0.000
   25   10    9   24        3       0.628   1.883   0.000  -2.510  -0.000   0.000
   15    2    1   12        3       0.628   1.883   0.000  -2.510  -0.000   0.000
   25   10    9   23        3       0.628   1.883   0.000  -2.510  -0.000   0.000
   16    2    1   13        3       0.628   1.883   0.000  -2.510  -0.000   0.000
   16    2    1   12        3       0.628   1.883   0.000  -2.510  -0.000   0.000
   24    9    8   21        3       0.628   1.883   0.000  -2.510  -0.000   0.000
   20    7    6   17        3       0.628   1.883   0.000  -2.510  -0.000   0.000
   19    7    6   18        3       0.628   1.883   0.000  -2.510  -0.000   0.000
   20    7    6   18        3       0.628   1.883   0.000  -2.510  -0.000   0.000
   23    9    8   22        3       0.628   1.883   0.000  -2.510  -0.000   0.000
   16    2    1   14        3       0.628   1.883   0.000  -2.510  -0.000   0.000
   21    8    7   20        3       0.628   1.883   0.000  -2.510  -0.000   0.000
   22    8    7   19        3       0.628   1.883   0.000  -2.510  -0.000   0.000
   19    7    6   17        3       0.628   1.883   0.000  -2.510  -0.000   0.000
   24    9    8   22        3       0.628   1.883   0.000  -2.510  -0.000   0.000
   23    9   10    5        3       0.971   2.912   0.000  -3.883  -0.000   0.000
   19    7    6    5        3       0.971   2.912   0.000  -3.883  -0.000   0.000
   24    9   10    5        3       0.971   2.912   0.000  -3.883  -0.000   0.000
   20    7    6    5        3       0.971   2.912   0.000  -3.883  -0.000   0.000
   18    6    5    3        3       0.000   0.000   0.000  -0.000  -0.000   0.000
   17    6    5    3        3       0.000   0.000   0.000  -0.000  -0.000   0.000
   25   10    5    3        3       0.000   0.000   0.000  -0.000  -0.000   0.000
   25   10    5    6        3       0.000   0.000   0.000  -0.000  -0.000   0.000
   17    6    5   10        3       0.000   0.000   0.000  -0.000  -0.000   0.000
   18    6    5   10        3       0.000   0.000   0.000  -0.000  -0.000   0.000
    5    3    2    1        3       0.734  -9.985  -0.791  10.042  -0.000   0.000
    4    3    2    1        3       0.000   0.000   0.000  -0.000  -0.000   0.000

[ pairs ]
     1     4    1
     1     5    1
     2     6    1
     4     6    1
     3     7    1
     3     9    1
     2    10    1
     5     8    1
     4    10    1
     3    11    1
     6     9    1
     3    12    1
     3    13    1
     7    10    1
     6    11    1
     3    14    1
     8    11    1
     4    15    1
     5    15    1
     4    16    1
     3    17    1
     5    16    1
     3    18    1
     5    19    1
     8    17    1
     5    20    1
     8    18    1
    12    15    1
    10    17    1
     6    21    1
    13    15    1
    12    16    1
    10    18    1
     9    19    1
     6    22    1
     5    23    1
     3    25    1
    14    15    1
    13    16    1
     9    20    1
     5    24    1
    14    16    1
     7    23    1
    10    21    1
     7    24    1
     6    25    1
    10    22    1
     8    25    1
    11    23    1
    11    24    1
    17    19    1
    18    19    1
    17    20    1
    18    20    1
    19    21    1
    20    21    1
    19    22    1
    20    22    1
    21    23    1
    22    23    1
    21    24    1
    22    24    1
    23    25    1
    24    25    1

