LIGPARGEN GENERATED GRO FILE
   33
    1UNK    C00    1   0.100   0.100   0.000
    1UNK    C01    2  -0.052   0.100   0.000
    1UNK    C02    3  -0.107   0.100   0.143
    1UNK    S03    4  -0.289   0.111   0.140
    1UNK    C04    5  -0.326   0.095   0.319
    1UNK    C05    6  -0.271   0.215   0.396
    1UNK    C06    7  -0.478   0.085   0.345
    1UNK    C07    8  -0.551  -0.037   0.286
    1UNK    C08    9  -0.497  -0.169   0.342
    1UNK    C09   10  -0.704  -0.026   0.307
    1UNK    C0A   11  -0.749  -0.019   0.453
    1UNK    H0B   12   0.138   0.100  -0.102
    1UNK    H0C   13   0.139   0.011   0.051
    1UNK    H0D   14   0.139   0.189   0.051
    1UNK    H0E   15  -0.088   0.012  -0.055
    1UNK    H0F   16  -0.087   0.189  -0.054
    1UNK    H0G   17  -0.067   0.186   0.196
    1UNK    H0H   18  -0.077   0.008   0.194
    1UNK    H0I   19  -0.276   0.004   0.356
    1UNK    H0J   20  -0.319   0.309   0.365
    1UNK    H0K   21  -0.163   0.227   0.385
    1UNK    H0M   22  -0.290   0.204   0.504
    1UNK    H0N   23  -0.526   0.177   0.307
    1UNK    H0O   24  -0.493   0.085   0.453
    1UNK    H0P   25  -0.536  -0.039   0.177
    1UNK    H0Q   26  -0.491  -0.167   0.451
    1UNK    H0R   27  -0.397  -0.190   0.303
    1UNK    H0S   28  -0.561  -0.253   0.312
    1UNK    H0T   29  -0.753  -0.112   0.260
    1UNK    H0U   30  -0.741   0.064   0.255
    1UNK    H0V   31  -0.714  -0.104   0.510
    1UNK    H0W   32  -0.859  -0.019   0.457
    1UNK    H0X   33  -0.715   0.073   0.501
   1.00000   1.00000   1.00000

