
;
; GENERATED BY LigParGen Server
; Jorgensen Lab @ Yale University 
;
[ atomtypes ]
  opls_807  O807    15.9990     0.000    A    2.96000E-01   8.78640E-01
  opls_818  H818     1.0080     0.000    A    2.50000E-01   1.25520E-01
  opls_814  C814    12.0110     0.000    A    3.50000E-01   2.76144E-01
  opls_824  H824     1.0080     0.000    A    2.50000E-01   1.25520E-01
  opls_805  C805    12.0110     0.000    A    3.50000E-01   2.76144E-01
  opls_836  H836     1.0080     0.000    A    2.50000E-01   1.25520E-01
  opls_834  H834     1.0080     0.000    A    2.50000E-01   1.25520E-01
  opls_810  C810    12.0110     0.000    A    3.50000E-01   2.76144E-01
  opls_828  H828     1.0080     0.000    A    2.50000E-01   1.25520E-01
  opls_835  H835     1.0080     0.000    A    2.50000E-01   1.25520E-01
  opls_803  O803    15.9990     0.000    A    2.96000E-01   8.78640E-01
  opls_811  C811    12.0110     0.000    A    3.50000E-01   2.76144E-01
  opls_827  H827     1.0080     0.000    A    2.50000E-01   1.25520E-01
  opls_809  C809    12.0110     0.000    A    3.50000E-01   2.76144E-01
  opls_838  H838     1.0080     0.000    A    2.50000E-01   1.25520E-01
  opls_822  H822     1.0080     0.000    A    2.50000E-01   1.25520E-01
  opls_825  H825     1.0080     0.000    A    2.50000E-01   1.25520E-01
  opls_830  H830     1.0080     0.000    A    2.50000E-01   1.25520E-01
  opls_804  C804    12.0110     0.000    A    3.50000E-01   2.76144E-01
  opls_820  H820     1.0080     0.000    A    2.50000E-01   1.25520E-01
  opls_812  C812    12.0110     0.000    A    3.55000E-01   2.92880E-01
  opls_837  H837     1.0080     0.000    A    2.50000E-01   1.25520E-01
  opls_821  H821     1.0080     0.000    A    2.50000E-01   1.25520E-01
  opls_831  H831     1.0080     0.000    A    2.50000E-01   1.25520E-01
  opls_832  H832     1.0080     0.000    A    2.50000E-01   1.25520E-01
  opls_800  C800    12.0110     0.000    A    3.50000E-01   2.76144E-01
  opls_815  C815    12.0110     0.000    A    3.50000E-01   2.76144E-01
  opls_806  C806    12.0110     0.000    A    3.55000E-01   2.92880E-01
  opls_823  H823     1.0080     0.000    A    2.50000E-01   1.25520E-01
  opls_802  C802    12.0110     0.000    A    3.55000E-01   2.92880E-01
  opls_826  H826     1.0080     0.000    A    2.50000E-01   1.25520E-01
  opls_813  O813    15.9990     0.000    A    2.96000E-01   8.78640E-01
  opls_819  H819     1.0080     0.000    A    2.50000E-01   1.25520E-01
  opls_816  C816    12.0110     0.000    A    3.50000E-01   2.76144E-01
  opls_833  H833     1.0080     0.000    A    2.50000E-01   1.25520E-01
  opls_801  C801    12.0110     0.000    A    3.50000E-01   2.76144E-01
  opls_808  C808    12.0110     0.000    A    3.50000E-01   2.76144E-01
  opls_817  H817     1.0080     0.000    A    2.50000E-01   1.25520E-01
  opls_829  H829     1.0080     0.000    A    2.50000E-01   1.25520E-01
[ moleculetype ]
; Name               nrexcl
UNK                   3
[ atoms ]
;   nr       type  resnr residue  atom   cgnr     charge       mass  
     1   opls_800      1    UNK   C00      1    -0.2335    12.0110 
     2   opls_801      1    UNK   C01      1    -0.2281    12.0110 
     3   opls_802      1    UNK   C02      1     0.3608    12.0110 
     4   opls_803      1    UNK   O03      1    -0.4363    15.9990 
     5   opls_804      1    UNK   C04      1     -0.235    12.0110 
     6   opls_805      1    UNK   C05      1    -0.1385    12.0110 
     7   opls_806      1    UNK   C06      1       0.37    12.0110 
     8   opls_807      1    UNK   O07      1    -0.4289    15.9990 
     9   opls_808      1    UNK   C08      1    -0.1482    12.0110 
    10   opls_809      1    UNK   C09      1    -0.1688    12.0110 
    11   opls_810      1    UNK   C0A      1    -0.2407    12.0110 
    12   opls_811      1    UNK   C0B      1    -0.2247    12.0110 
    13   opls_812      1    UNK   C0C      1     0.3675    12.0110 
    14   opls_813      1    UNK   O0D      1    -0.4358    15.9990 
    15   opls_814      1    UNK   C0E      1     -0.091    12.0110 
    16   opls_815      1    UNK   C0F      1    -0.2264    12.0110 
    17   opls_816      1    UNK   C0G      1    -0.2344    12.0110 
    18   opls_817      1    UNK   H0H      1     0.0945     1.0080 
    19   opls_818      1    UNK   H0I      1     0.0945     1.0080 
    20   opls_819      1    UNK   H0J      1     0.0945     1.0080 
    21   opls_820      1    UNK   H0K      1     0.1202     1.0080 
    22   opls_821      1    UNK   H0M      1     0.1202     1.0080 
    23   opls_822      1    UNK   H0N      1     0.1254     1.0080 
    24   opls_823      1    UNK   H0O      1     0.1254     1.0080 
    25   opls_824      1    UNK   H0P      1     0.1367     1.0080 
    26   opls_825      1    UNK   H0Q      1     0.1429     1.0080 
    27   opls_826      1    UNK   H0R      1     0.1083     1.0080 
    28   opls_827      1    UNK   H0S      1     0.1083     1.0080 
    29   opls_828      1    UNK   H0T      1     0.0847     1.0080 
    30   opls_829      1    UNK   H0U      1     0.0847     1.0080 
    31   opls_830      1    UNK   H0V      1     0.0847     1.0080 
    32   opls_831      1    UNK   H0W      1     0.1334     1.0080 
    33   opls_832      1    UNK   H0X      2     0.1334     1.0080 
    34   opls_833      1    UNK   H0Y      2      0.096     1.0080 
    35   opls_834      1    UNK   H0Z      2      0.096     1.0080 
    36   opls_835      1    UNK   H10      2      0.096     1.0080 
    37   opls_836      1    UNK   H11      2     0.0973     1.0080 
    38   opls_837      1    UNK   H12      2     0.0973     1.0080 
    39   opls_838      1    UNK   H13      2     0.0973     1.0080 
[ bonds ]
    2     1     1      0.1529 224262.400
    3     2     1      0.1522 265265.600
    4     3     1      0.1229 476976.000
    5     3     1      0.1522 265265.600
    6     5     1      0.1529 224262.400
    7     6     1      0.1522 265265.600
    8     7     1      0.1229 476976.000
    9     7     1      0.1522 265265.600
   10     9     1      0.1529 224262.400
   11    10     1      0.1529 224262.400
   12     9     1      0.1529 224262.400
   13    12     1      0.1522 265265.600
   14    13     1      0.1229 476976.000
   15     6     1      0.1529 224262.400
   16    15     1      0.1529 224262.400
   17    15     1      0.1529 224262.400
   18     1     1      0.1090 284512.000
   19     1     1      0.1090 284512.000
   20     1     1      0.1090 284512.000
   21     2     1      0.1090 284512.000
   22     2     1      0.1090 284512.000
   23     5     1      0.1090 284512.000
   24     5     1      0.1090 284512.000
   25     6     1      0.1090 284512.000
   26     9     1      0.1090 284512.000
   27    10     1      0.1090 284512.000
   28    10     1      0.1090 284512.000
   29    11     1      0.1090 284512.000
   30    11     1      0.1090 284512.000
   31    11     1      0.1090 284512.000
   32    12     1      0.1090 284512.000
   33    12     1      0.1090 284512.000
   34    16     1      0.1090 284512.000
   35    16     1      0.1090 284512.000
   36    16     1      0.1090 284512.000
   37    17     1      0.1090 284512.000
   38    17     1      0.1090 284512.000
   39    17     1      0.1090 284512.000
   15    13     1      0.1522 265265.600

[ angles ]
;  ai    aj    ak funct            c0            c1            c2            c3 
    1     2     3     1    111.100    527.184
    2     3     4     1    120.400    669.440
    2     3     5     1    116.000    585.760
    3     5     6     1    111.100    527.184
    5     6     7     1    111.100    527.184
    6     7     8     1    120.400    669.440
    6     7     9     1    116.000    585.760
    7     9    10     1    111.100    527.184
    9    10    11     1    112.700    488.273
    7     9    12     1    111.100    527.184
    9    12    13     1    111.100    527.184
   12    13    14     1    120.400    669.440
    5     6    15     1    112.700    488.273
    6    15    16     1    112.700    488.273
    6    15    17     1    112.700    488.273
    2     1    18     1    110.700    313.800
    2     1    19     1    110.700    313.800
    2     1    20     1    110.700    313.800
    1     2    21     1    110.700    313.800
    1     2    22     1    110.700    313.800
    3     5    23     1    109.500    292.880
    3     5    24     1    109.500    292.880
    5     6    25     1    110.700    313.800
    7     9    26     1    109.500    292.880
    9    10    27     1    110.700    313.800
    9    10    28     1    110.700    313.800
   10    11    29     1    110.700    313.800
   10    11    30     1    110.700    313.800
   10    11    31     1    110.700    313.800
    9    12    32     1    110.700    313.800
    9    12    33     1    110.700    313.800
   15    16    34     1    110.700    313.800
   15    16    35     1    110.700    313.800
   15    16    36     1    110.700    313.800
   15    17    37     1    110.700    313.800
   15    17    38     1    110.700    313.800
   15    17    39     1    110.700    313.800
   27    10    28     1    107.800    276.144
   37    17    39     1    107.800    276.144
   11    10    27     1    110.700    313.800
    6     5    24     1    110.700    313.800
   32    12    33     1    107.800    276.144
   13    15    17     1    111.100    527.184
   15     6    25     1    110.700    313.800
   10     9    12     1    112.700    488.273
    7     6    25     1    109.500    292.880
   13    12    32     1    109.500    292.880
   10     9    26     1    110.700    313.800
    8     7     9     1    120.400    669.440
   13    12    33     1    109.500    292.880
   14    13    15     1    120.400    669.440
    3     2    22     1    109.500    292.880
    4     3     5     1    120.400    669.440
   35    16    36     1    107.800    276.144
   18     1    19     1    107.800    276.144
   37    17    38     1    107.800    276.144
    7     6    15     1    111.100    527.184
   12    13    15     1    116.000    585.760
   11    10    28     1    110.700    313.800
   16    15    17     1    112.700    488.273
   21     2    22     1    107.800    276.144
   23     5    24     1    107.800    276.144
   12     9    26     1    110.700    313.800
   30    11    31     1    107.800    276.144
   18     1    20     1    107.800    276.144
    6    15    13     1    111.100    527.184
    6     5    23     1    110.700    313.800
   34    16    36     1    107.800    276.144
   19     1    20     1    107.800    276.144
    3     2    21     1    109.500    292.880
   29    11    31     1    107.800    276.144
   29    11    30     1    107.800    276.144
   34    16    35     1    107.800    276.144
   38    17    39     1    107.800    276.144
   13    15    16     1    111.100    527.184

[ dihedrals ]
; IMPROPER DIHEDRAL ANGLES 
;  ai    aj    ak    al funct            c0            c1            c2            c3            c4            c5
     5     3     2     4    4        180.000     43.932     2  
     9     7     6     8    4        180.000     43.932     2  
    12    13    14    15    4        180.000     43.932     2  

[ dihedrals ]
; PROPER DIHEDRAL ANGLES
;  ai    aj    ak    al funct            c0            c1            c2            c3            c4            c5
   13   15    6    7        3       0.941   7.427   0.000  -8.368  -0.000   0.000
    7    6    5    3        3       0.941   7.427   0.000  -8.368  -0.000   0.000
   13   12    9    7        3       0.941   7.427   0.000  -8.368  -0.000   0.000
   13   15    6    5        3      -4.960   6.286   1.310  -2.636  -0.000   0.000
   13   12    9   10        3      -4.960   6.286   1.310  -2.636  -0.000   0.000
    9    7    6    5        3       0.818  -7.906   0.602   6.485  -0.000   0.000
   15   13   12    9        3       0.818  -7.906   0.602   6.485  -0.000   0.000
   12   13   15    6        3       0.818  -7.906   0.602   6.485  -0.000   0.000
    5    3    2    1        3       0.818  -7.906   0.602   6.485  -0.000   0.000
   10    9    7    6        3       0.818  -7.906   0.602   6.485  -0.000   0.000
   15    6    7    9        3       0.818  -7.906   0.602   6.485  -0.000   0.000
   16   15   13   12        3       0.818  -7.906   0.602   6.485  -0.000   0.000
   12    9    7    6        3       0.818  -7.906   0.602   6.485  -0.000   0.000
    6    5    3    2        3       0.818  -7.906   0.602   6.485  -0.000   0.000
   17   15   13   12        3       0.818  -7.906   0.602   6.485  -0.000   0.000
   17   15   13   14        3       0.000   0.000   0.000  -0.000  -0.000   0.000
   15    6    7    8        3       0.000   0.000   0.000  -0.000  -0.000   0.000
   16   15   13   14        3       0.000   0.000   0.000  -0.000  -0.000   0.000
   12    9    7    8        3       0.000   0.000   0.000  -0.000  -0.000   0.000
   10    9    7    8        3       0.000   0.000   0.000  -0.000  -0.000   0.000
    6    5    3    4        3       0.000   0.000   0.000  -0.000  -0.000   0.000
   15    6    5    3        3      -4.960   6.286   1.310  -2.636  -0.000   0.000
   16   15    6    7        3      -4.960   6.286   1.310  -2.636  -0.000   0.000
   11   10    9    7        3      -4.960   6.286   1.310  -2.636  -0.000   0.000
   17   15    6    7        3      -4.960   6.286   1.310  -2.636  -0.000   0.000
   16   15    6    5        3       2.301  -1.464   0.837  -1.674  -0.000   0.000
   17   15    6    5        3       2.301  -1.464   0.837  -1.674  -0.000   0.000
   12    9   10   11        3       2.301  -1.464   0.837  -1.674  -0.000   0.000
   33   12   13   15        3       0.575   1.726   0.000  -2.301  -0.000   0.000
   22    2    3    5        3       0.575   1.726   0.000  -2.301  -0.000   0.000
   25    6    7    9        3       0.575   1.726   0.000  -2.301  -0.000   0.000
   26    9    7    6        3       0.575   1.726   0.000  -2.301  -0.000   0.000
   23    5    3    2        3       0.575   1.726   0.000  -2.301  -0.000   0.000
   24    5    3    2        3       0.575   1.726   0.000  -2.301  -0.000   0.000
   32   12   13   15        3       0.575   1.726   0.000  -2.301  -0.000   0.000
   21    2    3    5        3       0.575   1.726   0.000  -2.301  -0.000   0.000
   24    5    3    4        3       0.000   0.000   0.000  -0.000  -0.000   0.000
   23    5    3    4        3       0.000   0.000   0.000  -0.000  -0.000   0.000
   32   12   13   14        3       0.000   0.000   0.000  -0.000  -0.000   0.000
   33   12   13   14        3       0.000   0.000   0.000  -0.000  -0.000   0.000
   21    2    3    4        3       0.000   0.000   0.000  -0.000  -0.000   0.000
   25    6    7    8        3       0.000   0.000   0.000  -0.000  -0.000   0.000
   22    2    3    4        3       0.000   0.000   0.000  -0.000  -0.000   0.000
   26    9    7    8        3       0.000   0.000   0.000  -0.000  -0.000   0.000
   35   16   15   13        3      -0.209  -0.628   0.000   0.837  -0.000   0.000
   24    5    6    7        3      -0.209  -0.628   0.000   0.837  -0.000   0.000
   18    1    2    3        3      -0.209  -0.628   0.000   0.837  -0.000   0.000
   25    6    5    3        3      -0.209  -0.628   0.000   0.837  -0.000   0.000
   37   17   15   13        3      -0.209  -0.628   0.000   0.837  -0.000   0.000
   33   12    9    7        3      -0.209  -0.628   0.000   0.837  -0.000   0.000
   19    1    2    3        3      -0.209  -0.628   0.000   0.837  -0.000   0.000
   36   16   15   13        3      -0.209  -0.628   0.000   0.837  -0.000   0.000
   34   16   15   13        3      -0.209  -0.628   0.000   0.837  -0.000   0.000
   38   17   15   13        3      -0.209  -0.628   0.000   0.837  -0.000   0.000
   20    1    2    3        3      -0.209  -0.628   0.000   0.837  -0.000   0.000
   32   12    9    7        3      -0.209  -0.628   0.000   0.837  -0.000   0.000
   27   10    9    7        3      -0.209  -0.628   0.000   0.837  -0.000   0.000
   26    9   12   13        3      -0.209  -0.628   0.000   0.837  -0.000   0.000
   23    5    6    7        3      -0.209  -0.628   0.000   0.837  -0.000   0.000
   25    6   15   13        3      -0.209  -0.628   0.000   0.837  -0.000   0.000
   28   10    9    7        3      -0.209  -0.628   0.000   0.837  -0.000   0.000
   39   17   15   13        3      -0.209  -0.628   0.000   0.837  -0.000   0.000
   34   16   15   17        3       0.628   1.883   0.000  -2.510  -0.000   0.000
   33   12    9   10        3       0.628   1.883   0.000  -2.510  -0.000   0.000
   37   17   15    6        3       0.628   1.883   0.000  -2.510  -0.000   0.000
   27   10    9   12        3       0.628   1.883   0.000  -2.510  -0.000   0.000
   31   11   10    9        3       0.628   1.883   0.000  -2.510  -0.000   0.000
   34   16   15    6        3       0.628   1.883   0.000  -2.510  -0.000   0.000
   36   16   15    6        3       0.628   1.883   0.000  -2.510  -0.000   0.000
   38   17   15    6        3       0.628   1.883   0.000  -2.510  -0.000   0.000
   25    6   15   16        3       0.628   1.883   0.000  -2.510  -0.000   0.000
   39   17   15   16        3       0.628   1.883   0.000  -2.510  -0.000   0.000
   23    5    6   15        3       0.628   1.883   0.000  -2.510  -0.000   0.000
   36   16   15   17        3       0.628   1.883   0.000  -2.510  -0.000   0.000
   26    9   10   11        3       0.628   1.883   0.000  -2.510  -0.000   0.000
   30   11   10    9        3       0.628   1.883   0.000  -2.510  -0.000   0.000
   24    5    6   15        3       0.628   1.883   0.000  -2.510  -0.000   0.000
   38   17   15   16        3       0.628   1.883   0.000  -2.510  -0.000   0.000
   35   16   15    6        3       0.628   1.883   0.000  -2.510  -0.000   0.000
   37   17   15   16        3       0.628   1.883   0.000  -2.510  -0.000   0.000
   25    6   15   17        3       0.628   1.883   0.000  -2.510  -0.000   0.000
   35   16   15   17        3       0.628   1.883   0.000  -2.510  -0.000   0.000
   28   10    9   12        3       0.628   1.883   0.000  -2.510  -0.000   0.000
   32   12    9   10        3       0.628   1.883   0.000  -2.510  -0.000   0.000
   39   17   15    6        3       0.628   1.883   0.000  -2.510  -0.000   0.000
   29   11   10    9        3       0.628   1.883   0.000  -2.510  -0.000   0.000
   21    2    1   19        3       0.628   1.883   0.000  -2.510  -0.000   0.000
   22    2    1   18        3       0.628   1.883   0.000  -2.510  -0.000   0.000
   32   12    9   26        3       0.628   1.883   0.000  -2.510  -0.000   0.000
   30   11   10   27        3       0.628   1.883   0.000  -2.510  -0.000   0.000
   29   11   10   27        3       0.628   1.883   0.000  -2.510  -0.000   0.000
   29   11   10   28        3       0.628   1.883   0.000  -2.510  -0.000   0.000
   33   12    9   26        3       0.628   1.883   0.000  -2.510  -0.000   0.000
   28   10    9   26        3       0.628   1.883   0.000  -2.510  -0.000   0.000
   25    6    5   24        3       0.628   1.883   0.000  -2.510  -0.000   0.000
   27   10    9   26        3       0.628   1.883   0.000  -2.510  -0.000   0.000
   22    2    1   20        3       0.628   1.883   0.000  -2.510  -0.000   0.000
   22    2    1   19        3       0.628   1.883   0.000  -2.510  -0.000   0.000
   21    2    1   18        3       0.628   1.883   0.000  -2.510  -0.000   0.000
   30   11   10   28        3       0.628   1.883   0.000  -2.510  -0.000   0.000
   31   11   10   27        3       0.628   1.883   0.000  -2.510  -0.000   0.000
   31   11   10   28        3       0.628   1.883   0.000  -2.510  -0.000   0.000
   21    2    1   20        3       0.628   1.883   0.000  -2.510  -0.000   0.000
   25    6    5   23        3       0.628   1.883   0.000  -2.510  -0.000   0.000
    8    7    6    5        3       0.000   0.000   0.000  -0.000  -0.000   0.000
   14   13   15    6        3       0.000   0.000   0.000  -0.000  -0.000   0.000
   14   13   12    9        3       0.000   0.000   0.000  -0.000  -0.000   0.000
    4    3    2    1        3       0.000   0.000   0.000  -0.000  -0.000   0.000

[ pairs ]
     1     4    1
     1     5    1
     2     6    1
     4     6    1
     3     7    1
     5     8    1
     5     9    1
     6    10    1
     8    10    1
     7    11    1
     6    12    1
     5    13    1
     3    15    1
     8    12    1
     7    13    1
     6    14    1
     5    16    1
     3    18    1
     5    17    1
     3    19    1
    11    12    1
    10    13    1
     9    14    1
     8    15    1
     7    16    1
     3    20    1
     9    15    1
     7    17    1
     4    21    1
     2    23    1
     5    21    1
     4    22    1
     2    24    1
     5    22    1
     4    23    1
    12    16    1
     4    24    1
     3    25    1
    12    17    1
    14    16    1
     7    23    1
    14    17    1
     7    24    1
     6    26    1
     8    25    1
     9    25    1
     8    26    1
     7    27    1
     7    28    1
    11    26    1
    15    23    1
    13    25    1
     9    29    1
    18    21    1
    15    24    1
    13    26    1
    12    27    1
     9    30    1
     7    32    1
    19    21    1
    18    22    1
    12    28    1
     9    31    1
     7    33    1
     6    34    1
    20    21    1
    19    22    1
    16    25    1
     6    35    1
    20    22    1
    17    25    1
    10    32    1
     6    36    1
    10    33    1
     6    37    1
     6    38    1
     6    39    1
    14    32    1
    15    32    1
    14    33    1
    13    34    1
    23    25    1
    15    33    1
    13    35    1
    24    25    1
    13    36    1
    13    37    1
    17    34    1
    13    38    1
    17    35    1
    13    39    1
    26    27    1
    17    36    1
    16    37    1
    26    28    1
    16    38    1
    16    39    1
    27    29    1
    28    29    1
    27    30    1
    28    30    1
    27    31    1
    26    32    1
    28    31    1
    26    33    1

