LIGPARGEN GENERATED GRO FILE
   39
    1UNK    C00    1   0.100   0.100   0.000
    1UNK    C01    2  -0.052   0.100   0.000
    1UNK    C02    3  -0.111   0.100   0.140
    1UNK    O03    4  -0.042   0.100   0.242
    1UNK    C04    5  -0.262   0.100   0.150
    1UNK    C05    6  -0.319  -0.043   0.156
    1UNK    C06    7  -0.261  -0.118   0.276
    1UNK    O07    8  -0.187  -0.215   0.258
    1UNK    C08    9  -0.304  -0.070   0.415
    1UNK    C09   10  -0.238  -0.154   0.526
    1UNK    C0A   11  -0.278  -0.111   0.666
    1UNK    C0B   12  -0.456  -0.073   0.423
    1UNK    C0C   13  -0.518  -0.004   0.302
    1UNK    O0D   14  -0.601   0.086   0.317
    1UNK    C0E   15  -0.474  -0.049   0.164
    1UNK    C0F   16  -0.541   0.039   0.057
    1UNK    C0G   17  -0.524  -0.194   0.142
    1UNK    H0H   18   0.138   0.100  -0.103
    1UNK    H0I   19   0.139   0.012   0.051
    1UNK    H0J   20   0.139   0.189   0.051
    1UNK    H0K   21  -0.088   0.012  -0.053
    1UNK    H0M   22  -0.088   0.189  -0.052
    1UNK    H0N   23  -0.300   0.154   0.063
    1UNK    H0O   24  -0.290   0.159   0.238
    1UNK    H0P   25  -0.286  -0.096   0.066
    1UNK    H0Q   26  -0.268   0.033   0.426
    1UNK    H0R   27  -0.129  -0.146   0.517
    1UNK    H0S   28  -0.263  -0.260   0.513
    1UNK    H0T   29  -0.261  -0.003   0.680
    1UNK    H0U   30  -0.219  -0.165   0.741
    1UNK    H0V   31  -0.384  -0.132   0.686
    1UNK    H0W   32  -0.491  -0.020   0.512
    1UNK    H0X   33  -0.495  -0.175   0.428
    1UNK    H0Y   34  -0.521   0.146   0.074
    1UNK    H0Z   35  -0.649   0.027   0.059
    1UNK    H10   36  -0.505   0.013  -0.043
    1UNK    H11   37  -0.480  -0.265   0.213
    1UNK    H12   38  -0.499  -0.228   0.041
    1UNK    H13   39  -0.632  -0.200   0.155
   1.00000   1.00000   1.00000

