LIGPARGEN GENERATED GRO FILE
   28
    1UNK    C00    1   0.100   0.100   0.000
    1UNK    C01    2  -0.052   0.100   0.000
    1UNK    C02    3  -0.108   0.100   0.143
    1UNK    C03    4  -0.262   0.106   0.148
    1UNK    C04    5  -0.326  -0.016   0.082
    1UNK    C05    6  -0.311   0.118   0.293
    1UNK    C06    7  -0.268   0.246   0.361
    1UNK    O07    8  -0.199   0.249   0.462
    1UNK    O08    9  -0.321   0.353   0.296
    1UNK    C09   10  -0.289   0.474   0.348
    1UNK    C0A   11  -0.143   0.507   0.355
    1UNK    O0B   12  -0.376   0.557   0.371
    1UNK    H0C   13   0.138   0.100  -0.103
    1UNK    H0D   14   0.139   0.011   0.051
    1UNK    H0E   15   0.139   0.189   0.051
    1UNK    H0F   16  -0.086   0.012  -0.055
    1UNK    H0G   17  -0.088   0.188  -0.054
    1UNK    H0H   18  -0.066   0.186   0.196
    1UNK    H0I   19  -0.073   0.011   0.196
    1UNK    H0J   20  -0.295   0.195   0.092
    1UNK    H0K   21  -0.288  -0.109   0.126
    1UNK    H0M   22  -0.306  -0.018  -0.026
    1UNK    H0N   23  -0.435  -0.015   0.094
    1UNK    H0O   24  -0.274   0.033   0.353
    1UNK    H0P   25  -0.421   0.114   0.298
    1UNK    H0Q   26  -0.080   0.428   0.313
    1UNK    H0R   27  -0.114   0.524   0.459
    1UNK    H0S   28  -0.125   0.598   0.296
   1.00000   1.00000   1.00000

