LIGPARGEN GENERATED GRO FILE
   34
    1UNK    C00    1   0.100   0.100   0.000
    1UNK    C01    2  -0.052   0.100   0.000
    1UNK    C02    3  -0.110   0.100   0.145
    1UNK    C03    4  -0.237   0.034   0.084
    1UNK    C04    5  -0.338   0.136   0.031
    1UNK    C05    6  -0.404   0.090  -0.098
    1UNK    C06    7  -0.304   0.035  -0.201
    1UNK    C07    8  -0.215  -0.077  -0.145
    1UNK    C08    9  -0.116  -0.130  -0.251
    1UNK    C09   10  -0.178  -0.254  -0.313
    1UNK    C0A   11  -0.260  -0.320  -0.203
    1UNK    C0B   12  -0.299  -0.203  -0.118
    1UNK    O0C   13  -0.386  -0.212  -0.032
    1UNK    C0D   14  -0.139  -0.031  -0.020
    1UNK    H0E   15   0.137   0.190   0.052
    1UNK    H0F   16   0.140   0.104  -0.102
    1UNK    H0G   17   0.141   0.013   0.051
    1UNK    H0H   18  -0.086   0.185  -0.060
    1UNK    H0I   19  -0.123   0.198   0.192
    1UNK    H0J   20  -0.057   0.034   0.215
    1UNK    H0K   21  -0.285  -0.039   0.150
    1UNK    H0M   22  -0.290   0.233   0.012
    1UNK    H0N   23  -0.414   0.155   0.108
    1UNK    H0O   24  -0.459   0.173  -0.142
    1UNK    H0P   25  -0.479   0.013  -0.075
    1UNK    H0Q   26  -0.240   0.119  -0.235
    1UNK    H0R   27  -0.360   0.000  -0.288
    1UNK    H0S   28  -0.020  -0.155  -0.206
    1UNK    H0T   29  -0.096  -0.055  -0.329
    1UNK    H0U   30  -0.102  -0.323  -0.352
    1UNK    H0V   31  -0.244  -0.227  -0.396
    1UNK    H0W   32  -0.199  -0.389  -0.143
    1UNK    H0X   33  -0.348  -0.371  -0.243
    1UNK    H0Y   34  -0.086  -0.118   0.021
   1.00000   1.00000   1.00000

