
;
; GENERATED BY LigParGen Server
; Jorgensen Lab @ Yale University 
;
[ atomtypes ]
  opls_818  H818     1.0080     0.000    A    2.50000E-01   1.25520E-01
  opls_824  H824     1.0080     0.000    A    2.50000E-01   1.25520E-01
  opls_804  C804    12.0110     0.000    A    3.50000E-01   2.76144E-01
  opls_843  H843     1.0080     0.000    A    2.50000E-01   1.25520E-01
  opls_836  H836     1.0080     0.000    A    2.50000E-01   1.25520E-01
  opls_834  H834     1.0080     0.000    A    2.50000E-01   1.25520E-01
  opls_828  H828     1.0080     0.000    A    2.50000E-01   1.25520E-01
  opls_812  C812    12.0110     0.000    A    3.50000E-01   2.76144E-01
  opls_802  C802    12.0110     0.000    A    3.50000E-01   2.76144E-01
  opls_827  H827     1.0080     0.000    A    2.50000E-01   1.25520E-01
  opls_809  C809    12.0110     0.000    A    3.50000E-01   2.76144E-01
  opls_806  C806    12.0110     0.000    A    3.50000E-01   2.76144E-01
  opls_822  H822     1.0080     0.000    A    2.50000E-01   1.25520E-01
  opls_803  C803    12.0110     0.000    A    3.50000E-01   2.76144E-01
  opls_838  H838     1.0080     0.000    A    2.50000E-01   1.25520E-01
  opls_825  H825     1.0080     0.000    A    2.50000E-01   1.25520E-01
  opls_830  H830     1.0080     0.000    A    2.50000E-01   1.25520E-01
  opls_810  O810    15.9990     0.000    A    2.96000E-01   8.78640E-01
  opls_821  H821     1.0080     0.000    A    2.50000E-01   1.25520E-01
  opls_842  H842     1.0080     0.000    A    2.50000E-01   1.25520E-01
  opls_820  H820     1.0080     0.000    A    2.50000E-01   1.25520E-01
  opls_837  H837     1.0080     0.000    A    2.50000E-01   1.25520E-01
  opls_829  H829     1.0080     0.000    A    2.50000E-01   1.25520E-01
  opls_831  H831     1.0080     0.000    A    2.50000E-01   1.25520E-01
  opls_832  H832     1.0080     0.000    A    2.50000E-01   1.25520E-01
  opls_800  C800    12.0110     0.000    A    3.50000E-01   2.76144E-01
  opls_805  C805    12.0110     0.000    A    3.50000E-01   2.76144E-01
  opls_811  C811    12.0110     0.000    A    3.50000E-01   2.76144E-01
  opls_815  C815    12.0110     0.000    A    3.55000E-01   2.92880E-01
  opls_823  H823     1.0080     0.000    A    2.50000E-01   1.25520E-01
  opls_813  C813    12.0110     0.000    A    3.50000E-01   2.76144E-01
  opls_826  H826     1.0080     0.000    A    2.50000E-01   1.25520E-01
  opls_835  H835     1.0080     0.000    A    2.50000E-01   1.25520E-01
  opls_841  H841     1.0080     0.000    A    2.50000E-01   1.25520E-01
  opls_819  H819     1.0080     0.000    A    2.50000E-01   1.25520E-01
  opls_816  C816    12.0110     0.000    A    3.50000E-01   2.76144E-01
  opls_833  H833     1.0080     0.000    A    2.50000E-01   1.25520E-01
  opls_839  H839     1.0080     0.000    A    2.50000E-01   1.25520E-01
  opls_801  C801    12.0110     0.000    A    3.50000E-01   2.76144E-01
  opls_814  O814    15.9990     0.000    A    2.90000E-01   5.85760E-01
  opls_807  O807    15.9990     0.000    A    2.90000E-01   5.85760E-01
  opls_840  H840     1.0080     0.000    A    2.50000E-01   1.25520E-01
  opls_817  O817    15.9990     0.000    A    2.96000E-01   8.78640E-01
  opls_808  C808    12.0110     0.000    A    3.55000E-01   2.92880E-01
[ moleculetype ]
; Name               nrexcl
UNK                   3
[ atoms ]
;   nr       type  resnr residue  atom   cgnr     charge       mass  
     1   opls_800      1    UNK   C00      1    -0.2399    12.0110 
     2   opls_801      1    UNK   C01      1    -0.1778    12.0110 
     3   opls_802      1    UNK   C02      1    -0.1823    12.0110 
     4   opls_803      1    UNK   C03      1    -0.1728    12.0110 
     5   opls_804      1    UNK   C04      1    -0.1913    12.0110 
     6   opls_805      1    UNK   C05      1    -0.1968    12.0110 
     7   opls_806      1    UNK   C06      1     0.0847    12.0110 
     8   opls_807      1    UNK   O07      1    -0.3692    15.9990 
     9   opls_808      1    UNK   C08      1     0.4455    12.0110 
    10   opls_809      1    UNK   C09      1    -0.2575    12.0110 
    11   opls_810      1    UNK   O0A      1    -0.4569    15.9990 
    12   opls_811      1    UNK   C0B      1    -0.1452    12.0110 
    13   opls_812      1    UNK   C0C      1    -0.2256    12.0110 
    14   opls_813      1    UNK   C0D      1     0.0142    12.0110 
    15   opls_814      1    UNK   O0E      1    -0.3569    15.9990 
    16   opls_815      1    UNK   C0F      1     0.4397    12.0110 
    17   opls_816      1    UNK   C0G      1     -0.261    12.0110 
    18   opls_817      1    UNK   O0H      1    -0.4515    15.9990 
    19   opls_818      1    UNK   H0I      1     0.0809     1.0080 
    20   opls_819      1    UNK   H0J      1     0.0809     1.0080 
    21   opls_820      1    UNK   H0K      1     0.0809     1.0080 
    22   opls_821      1    UNK   H0M      1       0.09     1.0080 
    23   opls_822      1    UNK   H0N      1       0.09     1.0080 
    24   opls_823      1    UNK   H0O      1     0.0878     1.0080 
    25   opls_824      1    UNK   H0P      1     0.0878     1.0080 
    26   opls_825      1    UNK   H0Q      1     0.0924     1.0080 
    27   opls_826      1    UNK   H0R      1     0.0924     1.0080 
    28   opls_827      1    UNK   H0S      1     0.0949     1.0080 
    29   opls_828      1    UNK   H0T      1     0.0949     1.0080 
    30   opls_829      1    UNK   H0U      1     0.1085     1.0080 
    31   opls_830      1    UNK   H0V      1     0.1085     1.0080 
    32   opls_831      1    UNK   H0W      1      0.119     1.0080 
    33   opls_832      1    UNK   H0X      2     0.1275     1.0080 
    34   opls_833      1    UNK   H0Y      2     0.1275     1.0080 
    35   opls_834      1    UNK   H0Z      2     0.1275     1.0080 
    36   opls_835      1    UNK   H10      2     0.1211     1.0080 
    37   opls_836      1    UNK   H11      2     0.0889     1.0080 
    38   opls_837      1    UNK   H12      2     0.0889     1.0080 
    39   opls_838      1    UNK   H13      2     0.0889     1.0080 
    40   opls_839      1    UNK   H14      2     0.1185     1.0080 
    41   opls_840      1    UNK   H15      2     0.1185     1.0080 
    42   opls_841      1    UNK   H16      2      0.128     1.0080 
    43   opls_842      1    UNK   H17      2      0.128     1.0080 
    44   opls_843      1    UNK   H18      2      0.128     1.0080 
[ bonds ]
    2     1     1      0.1529 224262.400
    3     2     1      0.1529 224262.400
    4     3     1      0.1529 224262.400
    5     4     1      0.1529 224262.400
    6     5     1      0.1529 224262.400
    7     6     1      0.1529 224262.400
    8     7     1      0.1410 267776.000
    9     8     1      0.1327 179075.200
   10     9     1      0.1522 265265.600
   11     9     1      0.1229 476976.000
   12     7     1      0.1529 224262.400
   13    12     1      0.1529 224262.400
   14    12     1      0.1529 224262.400
   15    14     1      0.1410 267776.000
   16    15     1      0.1327 179075.200
   17    16     1      0.1522 265265.600
   18    16     1      0.1229 476976.000
   19     1     1      0.1090 284512.000
   20     1     1      0.1090 284512.000
   21     1     1      0.1090 284512.000
   22     2     1      0.1090 284512.000
   23     2     1      0.1090 284512.000
   24     3     1      0.1090 284512.000
   25     3     1      0.1090 284512.000
   26     4     1      0.1090 284512.000
   27     4     1      0.1090 284512.000
   28     5     1      0.1090 284512.000
   29     5     1      0.1090 284512.000
   30     6     1      0.1090 284512.000
   31     6     1      0.1090 284512.000
   32     7     1      0.1090 284512.000
   33    10     1      0.1090 284512.000
   34    10     1      0.1090 284512.000
   35    10     1      0.1090 284512.000
   36    12     1      0.1090 284512.000
   37    13     1      0.1090 284512.000
   38    13     1      0.1090 284512.000
   39    13     1      0.1090 284512.000
   40    14     1      0.1090 284512.000
   41    14     1      0.1090 284512.000
   42    17     1      0.1090 284512.000
   43    17     1      0.1090 284512.000
   44    17     1      0.1090 284512.000

[ angles ]
;  ai    aj    ak funct            c0            c1            c2            c3 
    1     2     3     1    112.700    488.273
    2     3     4     1    112.700    488.273
    3     4     5     1    112.700    488.273
    4     5     6     1    112.700    488.273
    5     6     7     1    112.700    488.273
    6     7     8     1    109.500    418.400
    7     8     9     1    116.900    694.544
    8     9    10     1    111.400    677.808
    8     9    11     1    123.400    694.544
    6     7    12     1    112.700    488.273
    7    12    13     1    112.700    488.273
    7    12    14     1    112.700    488.273
   12    14    15     1    109.500    418.400
   14    15    16     1    116.900    694.544
   15    16    17     1    111.400    677.808
   15    16    18     1    123.400    694.544
    2     1    19     1    110.700    313.800
    2     1    20     1    110.700    313.800
    2     1    21     1    110.700    313.800
    1     2    22     1    110.700    313.800
    1     2    23     1    110.700    313.800
    2     3    24     1    110.700    313.800
    2     3    25     1    110.700    313.800
    3     4    26     1    110.700    313.800
    3     4    27     1    110.700    313.800
    4     5    28     1    110.700    313.800
    4     5    29     1    110.700    313.800
    5     6    30     1    110.700    313.800
    5     6    31     1    110.700    313.800
    6     7    32     1    110.700    313.800
    9    10    33     1    109.500    292.880
    9    10    34     1    109.500    292.880
    9    10    35     1    109.500    292.880
    7    12    36     1    110.700    313.800
   12    13    37     1    110.700    313.800
   12    13    38     1    110.700    313.800
   12    13    39     1    110.700    313.800
   12    14    40     1    110.700    313.800
   12    14    41     1    110.700    313.800
   16    17    42     1    109.500    292.880
   16    17    43     1    109.500    292.880
   16    17    44     1    109.500    292.880
   13    12    14     1    112.700    488.273
    6     5    29     1    110.700    313.800
    7     6    30     1    110.700    313.800
   22     2    23     1    107.800    276.144
   28     5    29     1    107.800    276.144
    5     4    26     1    110.700    313.800
    8     7    12     1    109.500    418.400
   13    12    36     1    110.700    313.800
   37    13    39     1    107.800    276.144
   30     6    31     1    107.800    276.144
   33    10    35     1    107.800    276.144
   38    13    39     1    107.800    276.144
    3     2    22     1    110.700    313.800
    3     2    23     1    110.700    313.800
   19     1    21     1    107.800    276.144
   15    14    40     1    109.500    292.880
   40    14    41     1    107.800    276.144
   17    16    18     1    120.400    669.440
   15    14    41     1    109.500    292.880
   42    17    44     1    107.800    276.144
    4     3    25     1    110.700    313.800
    8     7    32     1    109.500    292.880
    4     3    24     1    110.700    313.800
   26     4    27     1    107.800    276.144
   37    13    38     1    107.800    276.144
   12     7    32     1    110.700    313.800
   10     9    11     1    120.400    669.440
   33    10    34     1    107.800    276.144
   24     3    25     1    107.800    276.144
   34    10    35     1    107.800    276.144
   19     1    20     1    107.800    276.144
   20     1    21     1    107.800    276.144
    5     4    27     1    110.700    313.800
   42    17    43     1    107.800    276.144
    6     5    28     1    110.700    313.800
   14    12    36     1    110.700    313.800
    7     6    31     1    110.700    313.800
   43    17    44     1    107.800    276.144

[ dihedrals ]
; IMPROPER DIHEDRAL ANGLES 
;  ai    aj    ak    al funct            c0            c1            c2            c3            c4            c5
    18    16    15    17    4        180.000     43.932     2  
    11     9     8    10    4        180.000     43.932     2  

[ dihedrals ]
; PROPER DIHEDRAL ANGLES
;  ai    aj    ak    al funct            c0            c1            c2            c3            c4            c5
   16   15   14   12        3      -2.197   5.201   0.527  -3.531  -0.000   0.000
    9    8    7    6        3      -2.197   5.201   0.527  -3.531  -0.000   0.000
   17   16   15   14        3      31.206  -9.768  -21.439  -0.000  -0.000   0.000
   10    9    8    7        3      31.206  -9.768  -21.439  -0.000  -0.000   0.000
    4    3    2    1        3       2.301  -1.464   0.837  -1.674  -0.000   0.000
   14   12    7    6        3       2.301  -1.464   0.837  -1.674  -0.000   0.000
   13   12    7    6        3       2.301  -1.464   0.837  -1.674  -0.000   0.000
   12    7    6    5        3       2.301  -1.464   0.837  -1.674  -0.000   0.000
    7    6    5    4        3       2.301  -1.464   0.837  -1.674  -0.000   0.000
    6    5    4    3        3       2.301  -1.464   0.837  -1.674  -0.000   0.000
    5    4    3    2        3       2.301  -1.464   0.837  -1.674  -0.000   0.000
   13   12    7    8        3       2.874   0.582   2.092  -5.548  -0.000   0.000
   14   12    7    8        3       2.874   0.582   2.092  -5.548  -0.000   0.000
   12    7    8    9        3      -2.197   5.201   0.527  -3.531  -0.000   0.000
   33   10    9   11        3       0.000   0.000   0.000  -0.000  -0.000   0.000
   42   17   16   18        3       0.000   0.000   0.000  -0.000  -0.000   0.000
   43   17   16   18        3       0.000   0.000   0.000  -0.000  -0.000   0.000
   34   10    9   11        3       0.000   0.000   0.000  -0.000  -0.000   0.000
   44   17   16   18        3       0.000   0.000   0.000  -0.000  -0.000   0.000
   35   10    9   11        3       0.000   0.000   0.000  -0.000  -0.000   0.000
   33   10    9    8        3       0.276   0.828   0.000  -1.105  -0.000   0.000
   35   10    9    8        3       0.276   0.828   0.000  -1.105  -0.000   0.000
   34   10    9    8        3       0.276   0.828   0.000  -1.105  -0.000   0.000
   42   17   16   15        3       0.276   0.828   0.000  -1.105  -0.000   0.000
   44   17   16   15        3       0.276   0.828   0.000  -1.105  -0.000   0.000
   43   17   16   15        3       0.276   0.828   0.000  -1.105  -0.000   0.000
   21    1    2    3        3       0.628   1.883   0.000  -2.510  -0.000   0.000
   32    7   12   14        3       0.628   1.883   0.000  -2.510  -0.000   0.000
   31    6    7   12        3       0.628   1.883   0.000  -2.510  -0.000   0.000
   38   13   12   14        3       0.628   1.883   0.000  -2.510  -0.000   0.000
   38   13   12    7        3       0.628   1.883   0.000  -2.510  -0.000   0.000
   27    4    5    6        3       0.628   1.883   0.000  -2.510  -0.000   0.000
   36   12    7    6        3       0.628   1.883   0.000  -2.510  -0.000   0.000
   40   14   12    7        3       0.628   1.883   0.000  -2.510  -0.000   0.000
   24    3    4    5        3       0.628   1.883   0.000  -2.510  -0.000   0.000
   40   14   12   13        3       0.628   1.883   0.000  -2.510  -0.000   0.000
   31    6    5    4        3       0.628   1.883   0.000  -2.510  -0.000   0.000
   25    3    2    1        3       0.628   1.883   0.000  -2.510  -0.000   0.000
   22    2    3    4        3       0.628   1.883   0.000  -2.510  -0.000   0.000
   26    4    3    2        3       0.628   1.883   0.000  -2.510  -0.000   0.000
   26    4    5    6        3       0.628   1.883   0.000  -2.510  -0.000   0.000
   30    6    5    4        3       0.628   1.883   0.000  -2.510  -0.000   0.000
   37   13   12   14        3       0.628   1.883   0.000  -2.510  -0.000   0.000
   20    1    2    3        3       0.628   1.883   0.000  -2.510  -0.000   0.000
   24    3    2    1        3       0.628   1.883   0.000  -2.510  -0.000   0.000
   39   13   12    7        3       0.628   1.883   0.000  -2.510  -0.000   0.000
   29    5    6    7        3       0.628   1.883   0.000  -2.510  -0.000   0.000
   30    6    7   12        3       0.628   1.883   0.000  -2.510  -0.000   0.000
   41   14   12   13        3       0.628   1.883   0.000  -2.510  -0.000   0.000
   32    7    6    5        3       0.628   1.883   0.000  -2.510  -0.000   0.000
   27    4    3    2        3       0.628   1.883   0.000  -2.510  -0.000   0.000
   28    5    6    7        3       0.628   1.883   0.000  -2.510  -0.000   0.000
   37   13   12    7        3       0.628   1.883   0.000  -2.510  -0.000   0.000
   25    3    4    5        3       0.628   1.883   0.000  -2.510  -0.000   0.000
   29    5    4    3        3       0.628   1.883   0.000  -2.510  -0.000   0.000
   39   13   12   14        3       0.628   1.883   0.000  -2.510  -0.000   0.000
   32    7   12   13        3       0.628   1.883   0.000  -2.510  -0.000   0.000
   41   14   12    7        3       0.628   1.883   0.000  -2.510  -0.000   0.000
   19    1    2    3        3       0.628   1.883   0.000  -2.510  -0.000   0.000
   23    2    3    4        3       0.628   1.883   0.000  -2.510  -0.000   0.000
   28    5    4    3        3       0.628   1.883   0.000  -2.510  -0.000   0.000
   30    6    5   29        3       0.628   1.883   0.000  -2.510  -0.000   0.000
   26    4    3   24        3       0.628   1.883   0.000  -2.510  -0.000   0.000
   30    6    5   28        3       0.628   1.883   0.000  -2.510  -0.000   0.000
   40   14   12   36        3       0.628   1.883   0.000  -2.510  -0.000   0.000
   31    6    5   29        3       0.628   1.883   0.000  -2.510  -0.000   0.000
   38   13   12   36        3       0.628   1.883   0.000  -2.510  -0.000   0.000
   24    3    2   23        3       0.628   1.883   0.000  -2.510  -0.000   0.000
   25    3    2   22        3       0.628   1.883   0.000  -2.510  -0.000   0.000
   28    5    4   27        3       0.628   1.883   0.000  -2.510  -0.000   0.000
   29    5    4   26        3       0.628   1.883   0.000  -2.510  -0.000   0.000
   22    2    1   21        3       0.628   1.883   0.000  -2.510  -0.000   0.000
   23    2    1   20        3       0.628   1.883   0.000  -2.510  -0.000   0.000
   29    5    4   27        3       0.628   1.883   0.000  -2.510  -0.000   0.000
   28    5    4   26        3       0.628   1.883   0.000  -2.510  -0.000   0.000
   27    4    3   25        3       0.628   1.883   0.000  -2.510  -0.000   0.000
   25    3    2   23        3       0.628   1.883   0.000  -2.510  -0.000   0.000
   24    3    2   22        3       0.628   1.883   0.000  -2.510  -0.000   0.000
   32    7    6   30        3       0.628   1.883   0.000  -2.510  -0.000   0.000
   23    2    1   21        3       0.628   1.883   0.000  -2.510  -0.000   0.000
   22    2    1   20        3       0.628   1.883   0.000  -2.510  -0.000   0.000
   41   14   12   36        3       0.628   1.883   0.000  -2.510  -0.000   0.000
   36   12    7   32        3       0.628   1.883   0.000  -2.510  -0.000   0.000
   22    2    1   19        3       0.628   1.883   0.000  -2.510  -0.000   0.000
   37   13   12   36        3       0.628   1.883   0.000  -2.510  -0.000   0.000
   39   13   12   36        3       0.628   1.883   0.000  -2.510  -0.000   0.000
   26    4    3   25        3       0.628   1.883   0.000  -2.510  -0.000   0.000
   27    4    3   24        3       0.628   1.883   0.000  -2.510  -0.000   0.000
   31    6    5   28        3       0.628   1.883   0.000  -2.510  -0.000   0.000
   32    7    6   31        3       0.628   1.883   0.000  -2.510  -0.000   0.000
   23    2    1   19        3       0.628   1.883   0.000  -2.510  -0.000   0.000
   30    6    7    8        3       0.979   2.937   0.000  -3.916  -0.000   0.000
   36   12   14   15        3       0.979   2.937   0.000  -3.916  -0.000   0.000
   36   12    7    8        3       0.979   2.937   0.000  -3.916  -0.000   0.000
   31    6    7    8        3       0.979   2.937   0.000  -3.916  -0.000   0.000
   40   14   15   16        3       0.414   1.243   0.000  -1.657  -0.000   0.000
   32    7    8    9        3       0.414   1.243   0.000  -1.657  -0.000   0.000
   41   14   15   16        3       0.414   1.243   0.000  -1.657  -0.000   0.000
   18   16   15   14        3      21.439   0.000  -21.439  -0.000  -0.000   0.000
   11    9    8    7        3      21.439   0.000  -21.439  -0.000  -0.000   0.000
   15   14   12    7        3       2.874   0.582   2.092  -5.548  -0.000   0.000
    8    7    6    5        3       2.874   0.582   2.092  -5.548  -0.000   0.000
   15   14   12   13        3       2.874   0.582   2.092  -5.548  -0.000   0.000

[ pairs ]
     1     4    1
     2     5    1
     3     6    1
     4     7    1
     5     8    1
     6     9    1
     7    10    1
     5    12    1
     7    11    1
     6    13    1
     6    14    1
     9    12    1
     8    13    1
     8    14    1
     7    15    1
     3    19    1
     3    20    1
     3    21    1
     1    24    1
     4    22    1
     1    25    1
     4    23    1
    13    15    1
    12    16    1
     2    26    1
     5    24    1
     2    27    1
     5    25    1
    14    17    1
     3    28    1
    14    18    1
     6    26    1
     3    29    1
     6    27    1
     4    30    1
     7    28    1
     4    31    1
     7    29    1
     5    32    1
     8    30    1
     8    31    1
    19    22    1
     9    32    1
     8    33    1
    20    22    1
    19    23    1
    12    30    1
     8    34    1
     6    36    1
    21    22    1
    20    23    1
    12    31    1
     8    35    1
    21    23    1
    11    33    1
     8    36    1
     7    37    1
    13    32    1
    11    34    1
     7    38    1
    22    24    1
    14    32    1
    11    35    1
     7    39    1
    23    24    1
    22    25    1
     7    40    1
    23    25    1
     7    41    1
    24    26    1
    25    26    1
    24    27    1
    15    36    1
    14    37    1
    25    27    1
    14    38    1
    14    39    1
    13    40    1
    26    28    1
    13    41    1
    27    28    1
    26    29    1
    27    29    1
    16    40    1
    16    41    1
    15    42    1
    28    30    1
    15    43    1
    29    30    1
    28    31    1
    15    44    1
    29    31    1
    18    42    1
    18    43    1
    30    32    1
    18    44    1
    31    32    1
    32    36    1
    36    37    1
    36    38    1
    36    39    1
    36    40    1
    36    41    1

