LIGPARGEN GENERATED GRO FILE
   44
    1UNK    C00    1   0.100   0.100   0.000
    1UNK    C01    2  -0.053   0.100   0.000
    1UNK    C02    3  -0.104   0.100   0.143
    1UNK    C03    4  -0.257   0.100   0.155
    1UNK    C04    5  -0.287   0.115   0.304
    1UNK    C05    6  -0.432   0.118   0.349
    1UNK    C06    7  -0.443   0.127   0.504
    1UNK    O07    8  -0.383   0.010   0.565
    1UNK    C08    9  -0.455  -0.106   0.564
    1UNK    C09   10  -0.380  -0.214   0.637
    1UNK    O0A   11  -0.567  -0.120   0.516
    1UNK    C0B   12  -0.378   0.251   0.573
    1UNK    C0C   13  -0.224   0.253   0.579
    1UNK    C0D   14  -0.434   0.384   0.521
    1UNK    O0E   15  -0.363   0.497   0.574
    1UNK    C0F   16  -0.393   0.533   0.701
    1UNK    C0G   17  -0.304   0.645   0.746
    1UNK    O0H   18  -0.480   0.483   0.770
    1UNK    H0I   19   0.138   0.100  -0.102
    1UNK    H0J   20   0.139   0.011   0.051
    1UNK    H0K   21   0.139   0.188   0.052
    1UNK    H0M   22  -0.089   0.012  -0.054
    1UNK    H0N   23  -0.088   0.189  -0.053
    1UNK    H0O   24  -0.064   0.188   0.194
    1UNK    H0P   25  -0.064   0.013   0.196
    1UNK    H0Q   26  -0.299   0.007   0.115
    1UNK    H0R   27  -0.300   0.184   0.099
    1UNK    H0S   28  -0.243   0.210   0.330
    1UNK    H0T   29  -0.234   0.036   0.358
    1UNK    H0U   30  -0.481   0.027   0.314
    1UNK    H0V   31  -0.485   0.202   0.302
    1UNK    H0W   32  -0.550   0.129   0.530
    1UNK    H0X   33  -0.273  -0.192   0.639
    1UNK    H0Y   34  -0.393  -0.309   0.584
    1UNK    H0Z   35  -0.417  -0.221   0.739
    1UNK    H10   36  -0.406   0.242   0.679
    1UNK    H11   37  -0.178   0.294   0.488
    1UNK    H12   38  -0.181   0.154   0.599
    1UNK    H13   39  -0.190   0.319   0.659
    1UNK    H14   40  -0.542   0.393   0.543
    1UNK    H15   41  -0.424   0.390   0.412
    1UNK    H16   42  -0.233   0.673   0.667
    1UNK    H17   43  -0.246   0.612   0.833
    1UNK    H18   44  -0.364   0.732   0.772
   1.00000   1.00000   1.00000

