LIGPARGEN GENERATED GRO FILE
   35
    1UNK    C00    1   0.100   0.100   0.000
    1UNK    C01    2  -0.054   0.100   0.000
    1UNK    C02    3  -0.118   0.100   0.146
    1UNK    C03    4  -0.158   0.235   0.221
    1UNK    C04    5  -0.121   0.358   0.141
    1UNK    C05    6  -0.207   0.384   0.016
    1UNK    C06    7  -0.099   0.356  -0.092
    1UNK    C07    8  -0.124   0.419  -0.229
    1UNK    C08    9  -0.104   0.200  -0.109
    1UNK    C09   10   0.027   0.426  -0.027
    1UNK    C0A   11   0.013   0.564   0.030
    1UNK    C0B   12   0.001   0.447   0.126
    1UNK    C0C   13   0.104   0.441   0.234
    1UNK    H0D   14   0.139   0.007   0.042
    1UNK    H0E   15   0.142   0.183   0.056
    1UNK    H0F   16   0.138   0.106  -0.103
    1UNK    H0G   17  -0.081   0.001  -0.040
    1UNK    H0H   18  -0.047   0.047   0.212
    1UNK    H0I   19  -0.208   0.037   0.143
    1UNK    H0J   20  -0.110   0.237   0.320
    1UNK    H0K   21  -0.266   0.233   0.239
    1UNK    H0M   22  -0.046   0.288   0.108
    1UNK    H0N   23  -0.244   0.487   0.013
    1UNK    H0O   24  -0.296   0.319   0.009
    1UNK    H0P   25  -0.222   0.394  -0.269
    1UNK    H0Q   26  -0.049   0.382  -0.300
    1UNK    H0R   27  -0.113   0.528  -0.227
    1UNK    H0S   28  -0.054   0.174  -0.203
    1UNK    H0T   29  -0.209   0.173  -0.127
    1UNK    H0U   30   0.123   0.392  -0.062
    1UNK    H0V   31  -0.075   0.623   0.009
    1UNK    H0W   32   0.103   0.625   0.036
    1UNK    H0X   33   0.096   0.350   0.294
    1UNK    H0Y   34   0.091   0.527   0.302
    1UNK    H0Z   35   0.206   0.445   0.193
   1.00000   1.00000   1.00000

