LIGPARGEN GENERATED GRO FILE
   30
    1UNK    C00    1   0.100   0.100   0.000
    1UNK    C01    2  -0.053   0.100   0.000
    1UNK    C02    3  -0.114   0.100   0.142
    1UNK    C03    4  -0.070   0.227   0.213
    1UNK    N04    5  -0.034   0.332   0.272
    1UNK    C05    6  -0.267   0.093   0.139
    1UNK    C06    7  -0.315  -0.034   0.071
    1UNK    O07    8  -0.256  -0.141   0.089
    1UNK    C08    9  -0.441  -0.028  -0.010
    1UNK    C09   10  -0.433   0.062  -0.131
    1UNK    O0A   11  -0.330   0.124  -0.159
    1UNK    C0B   12  -0.553   0.071  -0.224
    1UNK    C0C   13  -0.576  -0.061  -0.296
    1UNK    C0D   14  -0.680   0.116  -0.156
    1UNK    O0E   15  -0.689   0.144  -0.037
    1UNK    H0F   16   0.137   0.092  -0.103
    1UNK    H0G   17   0.139   0.015   0.057
    1UNK    H0H   18   0.140   0.193   0.042
    1UNK    H0I   19  -0.085   0.011  -0.055
    1UNK    H0J   20  -0.087   0.188  -0.056
    1UNK    H0K   21  -0.074   0.014   0.198
    1UNK    H0M   22  -0.308   0.181   0.088
    1UNK    H0N   23  -0.308   0.094   0.241
    1UNK    H0O   24  -0.521   0.004   0.057
    1UNK    H0P   25  -0.463  -0.130  -0.044
    1UNK    H0Q   26  -0.530   0.148  -0.299
    1UNK    H0R   27  -0.598  -0.143  -0.227
    1UNK    H0S   28  -0.487  -0.090  -0.353
    1UNK    H0T   29  -0.660  -0.054  -0.366
    1UNK    H0U   30  -0.767   0.127  -0.223
   1.00000   1.00000   1.00000

