
;
; GENERATED BY LigParGen Server
; Jorgensen Lab @ Yale University 
;
[ atomtypes ]
  opls_807  O807    15.9990     0.000    A    2.96000E-01   8.78640E-01
  opls_818  H818     1.0080     0.000    A    2.50000E-01   1.25520E-01
  opls_824  H824     1.0080     0.000    A    2.50000E-01   1.25520E-01
  opls_828  H828     1.0080     0.000    A    2.50000E-01   1.25520E-01
  opls_802  C802    12.0110     0.000    A    3.50000E-01   2.76144E-01
  opls_815  H815     1.0080     0.000    A    2.50000E-01   1.25520E-01
  opls_801  C801    12.0110     0.000    A    3.50000E-01   2.76144E-01
  opls_822  H822     1.0080     0.000    A    2.50000E-01   1.25520E-01
  opls_825  H825     1.0080     0.000    A    2.50000E-01   1.25520E-01
  opls_803  C803    12.0110     0.000    A    3.30000E-01   2.76144E-01
  opls_810  O810    15.9990     0.000    A    2.96000E-01   8.78640E-01
  opls_821  H821     1.0080     0.000    A    2.50000E-01   1.25520E-01
  opls_820  H820     1.0080     0.000    A    2.50000E-01   1.25520E-01
  opls_809  C809    12.0110     0.000    A    3.55000E-01   2.92880E-01
  opls_813  C813    12.0110     0.000    A    3.55000E-01   2.92880E-01
  opls_829  H829     1.0080     0.000    A    2.50000E-01   1.25520E-01
  opls_816  H816     1.0080     0.000    A    2.50000E-01   1.25520E-01
  opls_800  C800    12.0110     0.000    A    3.50000E-01   2.76144E-01
  opls_811  C811    12.0110     0.000    A    3.50000E-01   2.76144E-01
  opls_806  C806    12.0110     0.000    A    3.55000E-01   2.92880E-01
  opls_823  H823     1.0080     0.000    A    2.50000E-01   1.25520E-01
  opls_826  H826     1.0080     0.000    A    2.50000E-01   1.25520E-01
  opls_819  H819     1.0080     0.000    A    2.50000E-01   1.25520E-01
  opls_805  C805    12.0110     0.000    A    3.50000E-01   2.76144E-01
  opls_827  H827     1.0080     0.000    A    2.50000E-01   1.25520E-01
  opls_812  C812    12.0110     0.000    A    3.50000E-01   2.76144E-01
  opls_808  C808    12.0110     0.000    A    3.50000E-01   2.76144E-01
  opls_804  N804    14.0070     0.000    A    3.20000E-01   7.11280E-01
  opls_817  H817     1.0080     0.000    A    2.50000E-01   1.25520E-01
  opls_814  O814    15.9990     0.000    A    2.96000E-01   8.78640E-01
[ moleculetype ]
; Name               nrexcl
UNK                   3
[ atoms ]
;   nr       type  resnr residue  atom   cgnr     charge       mass  
     1   opls_800      1    UNK   C00      1    -0.2431    12.0110 
     2   opls_801      1    UNK   C01      1    -0.1784    12.0110 
     3   opls_802      1    UNK   C02      1     0.0409    12.0110 
     4   opls_803      1    UNK   C03      1     0.1349    12.0110 
     5   opls_804      1    UNK   N04      1     -0.398    14.0070 
     6   opls_805      1    UNK   C05      1    -0.2238    12.0110 
     7   opls_806      1    UNK   C06      1     0.3865    12.0110 
     8   opls_807      1    UNK   O07      1    -0.4432    15.9990 
     9   opls_808      1    UNK   C08      1    -0.2977    12.0110 
    10   opls_809      1    UNK   C09      1     0.4038    12.0110 
    11   opls_810      1    UNK   O0A      1    -0.4382    15.9990 
    12   opls_811      1    UNK   C0B      1    -0.2496    12.0110 
    13   opls_812      1    UNK   C0C      1    -0.2289    12.0110 
    14   opls_813      1    UNK   C0D      1     0.3296    12.0110 
    15   opls_814      1    UNK   O0E      1    -0.4385    15.9990 
    16   opls_815      1    UNK   H0F      1     0.0882     1.0080 
    17   opls_816      1    UNK   H0G      1     0.0882     1.0080 
    18   opls_817      1    UNK   H0H      1     0.0882     1.0080 
    19   opls_818      1    UNK   H0I      1     0.1129     1.0080 
    20   opls_819      1    UNK   H0J      1     0.1129     1.0080 
    21   opls_820      1    UNK   H0K      1     0.1509     1.0080 
    22   opls_821      1    UNK   H0M      1     0.1371     1.0080 
    23   opls_822      1    UNK   H0N      1     0.1371     1.0080 
    24   opls_823      1    UNK   H0O      1     0.1654     1.0080 
    25   opls_824      1    UNK   H0P      1     0.1654     1.0080 
    26   opls_825      1    UNK   H0Q      1     0.1633     1.0080 
    27   opls_826      1    UNK   H0R      1     0.1025     1.0080 
    28   opls_827      1    UNK   H0S      1     0.1025     1.0080 
    29   opls_828      1    UNK   H0T      1     0.1025     1.0080 
    30   opls_829      1    UNK   H0U      1     0.1269     1.0080 
[ bonds ]
    2     1     1      0.1529 224262.400
    3     2     1      0.1529 224262.400
    4     3     1      0.1470 326352.000
    5     4     1      0.1157 543920.000
    6     3     1      0.1529 224262.400
    7     6     1      0.1522 265265.600
    8     7     1      0.1229 476976.000
    9     7     1      0.1522 265265.600
   10     9     1      0.1522 265265.600
   11    10     1      0.1229 476976.000
   12    10     1      0.1522 265265.600
   13    12     1      0.1529 224262.400
   14    12     1      0.1522 265265.600
   15    14     1      0.1229 476976.000
   16     1     1      0.1090 284512.000
   17     1     1      0.1090 284512.000
   18     1     1      0.1090 284512.000
   19     2     1      0.1090 284512.000
   20     2     1      0.1090 284512.000
   21     3     1      0.1090 284512.000
   22     6     1      0.1090 284512.000
   23     6     1      0.1090 284512.000
   24     9     1      0.1090 284512.000
   25     9     1      0.1090 284512.000
   26    12     1      0.1090 284512.000
   27    13     1      0.1090 284512.000
   28    13     1      0.1090 284512.000
   29    13     1      0.1090 284512.000
   30    14     1      0.1090 284512.000

[ angles ]
;  ai    aj    ak funct            c0            c1            c2            c3 
    1     2     3     1    112.700    488.273
    2     3     4     1    112.700    488.273
    3     4     5     1    180.000   1255.200
    2     3     6     1    112.700    488.273
    3     6     7     1    111.100    527.184
    6     7     8     1    120.400    669.440
    6     7     9     1    116.000    585.760
    7     9    10     1    111.100    527.184
    9    10    11     1    120.400    669.440
    9    10    12     1    116.000    585.760
   10    12    13     1    111.100    527.184
   10    12    14     1    111.100    527.184
   12    14    15     1    120.400    669.440
    2     1    16     1    110.700    313.800
    2     1    17     1    110.700    313.800
    2     1    18     1    110.700    313.800
    1     2    19     1    110.700    313.800
    1     2    20     1    110.700    313.800
    2     3    21     1    110.700    313.800
    3     6    22     1    110.700    313.800
    3     6    23     1    110.700    313.800
    7     9    24     1    109.500    292.880
    7     9    25     1    109.500    292.880
   10    12    26     1    109.500    292.880
   12    13    27     1    110.700    313.800
   12    13    28     1    110.700    313.800
   12    13    29     1    110.700    313.800
   12    14    30     1    115.000    292.880
   16     1    17     1    107.800    276.144
   24     9    25     1    107.800    276.144
    3     2    20     1    110.700    313.800
   14    12    26     1    109.500    292.880
   13    12    14     1    111.100    527.184
   11    10    12     1    120.400    669.440
   27    13    28     1    107.800    276.144
    7     6    22     1    109.500    292.880
   16     1    18     1    107.800    276.144
    7     6    23     1    109.500    292.880
    8     7     9     1    120.400    669.440
   22     6    23     1    107.800    276.144
    6     3    21     1    110.700    313.800
    3     2    19     1    110.700    313.800
   10     9    25     1    109.500    292.880
    4     3     6     1    112.700    488.273
    4     3    21     1    108.500    292.880
   19     2    20     1    107.800    276.144
   28    13    29     1    107.800    276.144
   15    14    30     1    123.000    292.880
   17     1    18     1    107.800    276.144
   10     9    24     1    109.500    292.880
   27    13    29     1    107.800    276.144
   13    12    26     1    110.700    313.800

[ dihedrals ]
; IMPROPER DIHEDRAL ANGLES 
;  ai    aj    ak    al funct            c0            c1            c2            c3            c4            c5
     9     7     6     8    4        180.000     43.932     2  
    12    10     9    11    4        180.000     43.932     2  
    30    14    12    15    4        180.000     43.932     2  

[ dihedrals ]
; PROPER DIHEDRAL ANGLES
;  ai    aj    ak    al funct            c0            c1            c2            c3            c4            c5
   10    9    7    6        3       0.818  -7.906   0.602   6.485  -0.000   0.000
   14   12   10    9        3       0.818  -7.906   0.602   6.485  -0.000   0.000
   14   12   10   11        3       0.000   0.000   0.000  -0.000  -0.000   0.000
   10    9    7    8        3       0.000   0.000   0.000  -0.000  -0.000   0.000
    7    6    3    2        3      -4.960   6.286   1.310  -2.636  -0.000   0.000
    7    6    3    4        3      -4.960   6.286   1.310  -2.636  -0.000   0.000
   12   10    9    7        3       0.818  -7.906   0.602   6.485  -0.000   0.000
    9    7    6    3        3       0.818  -7.906   0.602   6.485  -0.000   0.000
   13   12   10    9        3       0.818  -7.906   0.602   6.485  -0.000   0.000
   13   12   10   11        3       0.000   0.000   0.000  -0.000  -0.000   0.000
    6    3    2    1        3       2.301  -1.464   0.837  -1.674  -0.000   0.000
    6    3    4    5        3       0.000   0.000   0.000  -0.000  -0.000   0.000
    4    3    2    1        3      -2.720   0.000   2.720  -0.000  -0.000   0.000
   30   14   12   10        3       0.000   0.000   0.000  -0.000  -0.000   0.000
   30   14   12   13        3       0.000   0.000   0.000  -0.000  -0.000   0.000
   30   14   12   26        3       0.753   2.259   0.000  -3.012  -0.000   0.000
   26   12   10    9        3       0.575   1.726   0.000  -2.301  -0.000   0.000
   23    6    7    9        3       0.575   1.726   0.000  -2.301  -0.000   0.000
   25    9    7    6        3       0.575   1.726   0.000  -2.301  -0.000   0.000
   24    9   10   12        3       0.575   1.726   0.000  -2.301  -0.000   0.000
   24    9    7    6        3       0.575   1.726   0.000  -2.301  -0.000   0.000
   22    6    7    9        3       0.575   1.726   0.000  -2.301  -0.000   0.000
   25    9   10   12        3       0.575   1.726   0.000  -2.301  -0.000   0.000
   22    6    7    8        3       0.000   0.000   0.000  -0.000  -0.000   0.000
   26   12   14   15        3       0.000   0.000   0.000  -0.000  -0.000   0.000
   26   12   10   11        3       0.000   0.000   0.000  -0.000  -0.000   0.000
   25    9    7    8        3       0.000   0.000   0.000  -0.000  -0.000   0.000
   24    9   10   11        3       0.000   0.000   0.000  -0.000  -0.000   0.000
   25    9   10   11        3       0.000   0.000   0.000  -0.000  -0.000   0.000
   24    9    7    8        3       0.000   0.000   0.000  -0.000  -0.000   0.000
   23    6    7    8        3       0.000   0.000   0.000  -0.000  -0.000   0.000
   27   13   12   14        3      -0.209  -0.628   0.000   0.837  -0.000   0.000
   29   13   12   10        3      -0.209  -0.628   0.000   0.837  -0.000   0.000
   29   13   12   14        3      -0.209  -0.628   0.000   0.837  -0.000   0.000
   28   13   12   10        3      -0.209  -0.628   0.000   0.837  -0.000   0.000
   21    3    6    7        3      -0.209  -0.628   0.000   0.837  -0.000   0.000
   28   13   12   14        3      -0.209  -0.628   0.000   0.837  -0.000   0.000
   27   13   12   10        3      -0.209  -0.628   0.000   0.837  -0.000   0.000
   18    1    2    3        3       0.628   1.883   0.000  -2.510  -0.000   0.000
   21    3    2    1        3       0.628   1.883   0.000  -2.510  -0.000   0.000
   16    1    2    3        3       0.628   1.883   0.000  -2.510  -0.000   0.000
   17    1    2    3        3       0.628   1.883   0.000  -2.510  -0.000   0.000
   20    2    3    6        3       0.628   1.883   0.000  -2.510  -0.000   0.000
   23    6    3    2        3       0.628   1.883   0.000  -2.510  -0.000   0.000
   22    6    3    2        3       0.628   1.883   0.000  -2.510  -0.000   0.000
   19    2    3    6        3       0.628   1.883   0.000  -2.510  -0.000   0.000
   23    6    3    4        3       0.766   2.297   0.000  -3.063  -0.000   0.000
   22    6    3    4        3       0.766   2.297   0.000  -3.063  -0.000   0.000
   19    2    3    4        3       0.766   2.297   0.000  -3.063  -0.000   0.000
   20    2    3    4        3       0.766   2.297   0.000  -3.063  -0.000   0.000
   22    6    3   21        3       0.628   1.883   0.000  -2.510  -0.000   0.000
   20    2    1   16        3       0.628   1.883   0.000  -2.510  -0.000   0.000
   20    2    1   17        3       0.628   1.883   0.000  -2.510  -0.000   0.000
   23    6    3   21        3       0.628   1.883   0.000  -2.510  -0.000   0.000
   28   13   12   26        3       0.628   1.883   0.000  -2.510  -0.000   0.000
   29   13   12   26        3       0.628   1.883   0.000  -2.510  -0.000   0.000
   20    2    1   18        3       0.628   1.883   0.000  -2.510  -0.000   0.000
   27   13   12   26        3       0.628   1.883   0.000  -2.510  -0.000   0.000
   19    2    1   16        3       0.628   1.883   0.000  -2.510  -0.000   0.000
   21    3    2   19        3       0.628   1.883   0.000  -2.510  -0.000   0.000
   21    3    2   20        3       0.628   1.883   0.000  -2.510  -0.000   0.000
   19    2    1   17        3       0.628   1.883   0.000  -2.510  -0.000   0.000
   19    2    1   18        3       0.628   1.883   0.000  -2.510  -0.000   0.000
   21    3    4    5        3       0.000   0.000   0.000  -0.000  -0.000   0.000
    5    4    3    2        3       0.000   0.000   0.000  -0.000  -0.000   0.000
   11   10    9    7        3       0.000   0.000   0.000  -0.000  -0.000   0.000
   15   14   12   10        3       0.000   0.000   0.000  -0.000  -0.000   0.000
    8    7    6    3        3       0.000   0.000   0.000  -0.000  -0.000   0.000
   15   14   12   13        3       0.000   0.000   0.000  -0.000  -0.000   0.000

[ pairs ]
     1     4    1
     2     5    1
     1     6    1
     2     7    1
     5     6    1
     4     7    1
     3     8    1
     3     9    1
     6    10    1
     8    10    1
     7    11    1
     7    12    1
     3    16    1
     3    17    1
     3    18    1
     9    13    1
     1    21    1
     9    14    1
     4    19    1
    11    13    1
     4    20    1
     2    22    1
    11    14    1
    10    15    1
     6    19    1
     2    23    1
     6    20    1
     5    21    1
     4    22    1
     4    23    1
    13    15    1
     7    21    1
     8    22    1
     6    24    1
     9    22    1
     8    23    1
     6    25    1
     9    23    1
     8    24    1
     8    25    1
    16    19    1
    11    24    1
     9    26    1
    17    19    1
    16    20    1
    12    24    1
    11    25    1
    18    19    1
    17    20    1
    12    25    1
    11    26    1
    10    27    1
    18    20    1
    10    28    1
    10    29    1
    19    21    1
    10    30    1
    20    21    1
    15    26    1
    14    27    1
    14    28    1
    21    22    1
    14    29    1
    13    30    1
    21    23    1
    26    27    1
    26    28    1
    26    29    1
    26    30    1

