LIGPARGEN GENERATED GRO FILE
   13
    1UNK    C00    1   0.100   0.100   0.000
    1UNK    S01    2  -0.081   0.100   0.000
    1UNK    C02    3  -0.117   0.100   0.181
    1UNK    Cl0    4  -0.047  -0.046   0.257
    1UNK    Cl1    5  -0.048   0.247   0.256
    1UNK    S05    6  -0.300   0.099   0.199
    1UNK    C06    7  -0.317   0.099   0.379
    1UNK    H07    8   0.134   0.100  -0.104
    1UNK    H08    9   0.140   0.010   0.048
    1UNK    H09   10   0.140   0.189   0.048
    1UNK    H0A   11  -0.424   0.098   0.404
    1UNK    H0B   12  -0.274   0.189   0.424
    1UNK    H0C   13  -0.272   0.010   0.424
   1.00000   1.00000   1.00000

