
;
; GENERATED BY LigParGen Server
; Jorgensen Lab @ Yale University 
;
[ atomtypes ]
  opls_810  H810     1.0080     0.000    A    2.50000E-01   1.25520E-01
  opls_802  C802    12.0110     0.000    A    3.50000E-01   2.76144E-01
  opls_800  C800    12.0110     0.000    A    3.50000E-01   2.76144E-01
  opls_806  C806    12.0110     0.000    A    3.50000E-01   2.76144E-01
  opls_808  H808     1.0080     0.000    A    2.50000E-01   1.25520E-01
  opls_812  H812     1.0080     0.000    A    2.50000E-01   1.25520E-01
  opls_803 Cl803    35.4500     0.000    A    3.40000E-01   1.25520E+00
  opls_801  S801    32.0600     0.000    A    3.60000E-01   1.48532E+00
  opls_807  H807     1.0080     0.000    A    2.50000E-01   1.25520E-01
  opls_804 Cl804    35.4500     0.000    A    3.40000E-01   1.25520E+00
  opls_805  S805    32.0600     0.000    A    3.60000E-01   1.48532E+00
  opls_809  H809     1.0080     0.000    A    2.50000E-01   1.25520E-01
  opls_811  H811     1.0080     0.000    A    2.50000E-01   1.25520E-01
[ moleculetype ]
; Name               nrexcl
UNK                   3
[ atoms ]
;   nr       type  resnr residue  atom   cgnr     charge       mass  
     1   opls_800      1    UNK   C00      1    -0.1584    12.0110 
     2   opls_801      1    UNK   S01      1    -0.2644    32.0600 
     3   opls_802      1    UNK   C02      1     0.4628    12.0110 
     4   opls_803      1    UNK   Cl0      1       -0.2    35.4500 
     5   opls_804      1    UNK   Cl1      1       -0.2    35.4500 
     6   opls_805      1    UNK   S05      1    -0.2641    32.0600 
     7   opls_806      1    UNK   C06      1    -0.1584    12.0110 
     8   opls_807      1    UNK   H07      1     0.1304     1.0080 
     9   opls_808      1    UNK   H08      1     0.1304     1.0080 
    10   opls_809      1    UNK   H09      1     0.1304     1.0080 
    11   opls_810      1    UNK   H0A      1     0.1304     1.0080 
    12   opls_811      1    UNK   H0B      1     0.1304     1.0080 
    13   opls_812      1    UNK   H0C      1     0.1304     1.0080 
[ bonds ]
    2     1     1      0.1810 185769.600
    3     2     1      0.1810 185769.600
    4     3     1      0.1781 205016.000
    5     3     1      0.1781 205016.000
    6     3     1      0.1810 185769.600
    7     6     1      0.1810 185769.600
    8     1     1      0.1090 284512.000
    9     1     1      0.1090 284512.000
   10     1     1      0.1090 284512.000
   11     7     1      0.1090 284512.000
   12     7     1      0.1090 284512.000
   13     7     1      0.1090 284512.000

[ angles ]
;  ai    aj    ak funct            c0            c1            c2            c3 
    1     2     3     1     98.900    518.816
    2     3     4     1    110.580    432.207
    2     3     5     1    110.580    432.207
    2     3     6     1    110.580    432.207
    3     6     7     1     98.900    518.816
    2     1     8     1    109.500    292.880
    2     1     9     1    109.500    292.880
    2     1    10     1    109.500    292.880
    6     7    11     1    109.500    292.880
    6     7    12     1    109.500    292.880
    6     7    13     1    109.500    292.880
   11     7    13     1    107.800    276.144
    4     3     6     1    110.580    432.207
   11     7    12     1    107.800    276.144
    8     1     9     1    107.800    276.144
    8     1    10     1    107.800    276.144
    4     3     5     1    111.700    652.704
    5     3     6     1    110.580    432.207
    9     1    10     1    107.800    276.144
   12     7    13     1    107.800    276.144

[ dihedrals ]
; IMPROPER DIHEDRAL ANGLES 
;  ai    aj    ak    al funct            c0            c1            c2            c3            c4            c5

[ dihedrals ]
; PROPER DIHEDRAL ANGLES
;  ai    aj    ak    al funct            c0            c1            c2            c3            c4            c5
    7    6    3    4        3       0.941   2.314   2.410  -5.665  -0.000   0.000
    7    6    3    5        3       0.941   2.314   2.410  -5.665  -0.000   0.000
    7    6    3    2        3       1.354   4.061   0.000  -5.414  -0.000   0.000
    4    3    2    1        3       0.941   2.314   2.410  -5.665  -0.000   0.000
    5    3    2    1        3       0.941   2.314   2.410  -5.665  -0.000   0.000
   10    1    2    3        3       1.354   4.061   0.000  -5.414  -0.000   0.000
   12    7    6    3        3       1.354   4.061   0.000  -5.414  -0.000   0.000
   13    7    6    3        3       1.354   4.061   0.000  -5.414  -0.000   0.000
    9    1    2    3        3       1.354   4.061   0.000  -5.414  -0.000   0.000
   11    7    6    3        3       1.354   4.061   0.000  -5.414  -0.000   0.000
    8    1    2    3        3       1.354   4.061   0.000  -5.414  -0.000   0.000
    6    3    2    1        3       1.354   4.061   0.000  -5.414  -0.000   0.000

[ pairs ]
     1     4    1
     1     5    1
     1     6    1
     2     7    1
     4     7    1
     3     8    1
     5     7    1
     3     9    1
     3    10    1
     3    11    1
     3    12    1
     3    13    1

