
;
; GENERATED BY LigParGen Server
; Jorgensen Lab @ Yale University 
;
[ atomtypes ]
  opls_818  H818     1.0080     0.000    A    2.50000E-01   1.25520E-01
  opls_810  C810    12.0110     0.000    A    3.45000E-01   3.47272E-01
  opls_814  C814    12.0110     0.000    A    3.50000E-01   2.76144E-01
  opls_824  H824     1.0080     0.000    A    2.50000E-01   1.25520E-01
  opls_809  O809    15.9990     0.000    A    2.90000E-01   5.85760E-01
  opls_813  N813    14.0070     0.000    A    3.30000E-01   7.11280E-01
  opls_828  H828     1.0080     0.000    A    2.50000E-01   1.25520E-01
  opls_803  C803    12.0110     0.000    A    3.45000E-01   3.47272E-01
  opls_806  O806    15.9990     0.000    A    2.90000E-01   5.85760E-01
  opls_811  C811    12.0110     0.000    A    3.50000E-01   2.76144E-01
  opls_815  H815     1.0080     0.000    A    2.50000E-01   1.25520E-01
  opls_801  C801    12.0110     0.000    A    3.50000E-01   2.76144E-01
  opls_822  H822     1.0080     0.000    A    2.50000E-01   1.25520E-01
  opls_825  H825     1.0080     0.000    A    2.50000E-01   1.25520E-01
  opls_826  H826     1.0080     0.000    A    2.50000E-01   1.25520E-01
  opls_830  H830     1.0080     0.000    A    2.50000E-01   1.25520E-01
  opls_821  H821     1.0080     0.000    A    2.50000E-01   1.25520E-01
  opls_820  H820     1.0080     0.000    A    2.50000E-01   1.25520E-01
  opls_829  H829     1.0080     0.000    A    2.50000E-01   1.25520E-01
  opls_831  H831     1.0080     0.000    A    2.50000E-01   1.25520E-01
  opls_816  H816     1.0080     0.000    A    2.50000E-01   1.25520E-01
  opls_800  C800    12.0110     0.000    A    3.50000E-01   2.76144E-01
  opls_808  O808    15.9990     0.000    A    2.96000E-01   8.78640E-01
  opls_823  H823     1.0080     0.000    A    2.50000E-01   1.25520E-01
  opls_805  C805    12.0110     0.000    A    3.50000E-01   2.76144E-01
  opls_802  C802    12.0110     0.000    A    3.45000E-01   3.47272E-01
  opls_819  H819     1.0080     0.000    A    2.50000E-01   1.25520E-01
  opls_804  C804    12.0110     0.000    A    3.50000E-01   2.76144E-01
  opls_827  H827     1.0080     0.000    A    2.50000E-01   1.25520E-01
  opls_812  C812    12.0110     0.000    A    3.50000E-01   2.76144E-01
  opls_807  C807    12.0110     0.000    A    3.55000E-01   2.92880E-01
  opls_817  H817     1.0080     0.000    A    2.50000E-01   1.25520E-01
[ moleculetype ]
; Name               nrexcl
UNK                   3
[ atoms ]
;   nr       type  resnr residue  atom   cgnr     charge       mass  
     1   opls_800      1    UNK   C00      1    -0.2766    12.0110 
     2   opls_801      1    UNK   C01      1     0.1319    12.0110 
     3   opls_802      1    UNK   C02      1    -0.2434    12.0110 
     4   opls_803      1    UNK   C03      1    -0.0934    12.0110 
     5   opls_804      1    UNK   C04      1    -0.2078    12.0110 
     6   opls_805      1    UNK   C05      1     0.0611    12.0110 
     7   opls_806      1    UNK   O06      1    -0.3796    15.9990 
     8   opls_807      1    UNK   C07      1      0.607    12.0110 
     9   opls_808      1    UNK   O08      1    -0.3821    15.9990 
    10   opls_809      1    UNK   O09      1    -0.3489    15.9990 
    11   opls_810      1    UNK   C0A      1     0.0687    12.0110 
    12   opls_811      1    UNK   C0B      1     0.1356    12.0110 
    13   opls_812      1    UNK   C0C      1    -0.2288    12.0110 
    14   opls_813      1    UNK   N0D      1    -0.6085    14.0070 
    15   opls_814      1    UNK   C0E      1    -0.0353    12.0110 
    16   opls_815      1    UNK   H0F      1     0.0973     1.0080 
    17   opls_816      1    UNK   H0G      1     0.0973     1.0080 
    18   opls_817      1    UNK   H0H      1     0.0973     1.0080 
    19   opls_818      1    UNK   H0I      1     0.1306     1.0080 
    20   opls_819      1    UNK   H0J      1     0.1452     1.0080 
    21   opls_820      1    UNK   H0K      1     0.1028     1.0080 
    22   opls_821      1    UNK   H0M      1     0.1028     1.0080 
    23   opls_822      1    UNK   H0N      1     0.1028     1.0080 
    24   opls_823      1    UNK   H0O      1      0.128     1.0080 
    25   opls_824      1    UNK   H0P      1      0.128     1.0080 
    26   opls_825      1    UNK   H0Q      1      0.122     1.0080 
    27   opls_826      1    UNK   H0R      1     0.0947     1.0080 
    28   opls_827      1    UNK   H0S      1     0.0947     1.0080 
    29   opls_828      1    UNK   H0T      1     0.0947     1.0080 
    30   opls_829      1    UNK   H0U      1     0.0873     1.0080 
    31   opls_830      1    UNK   H0V      1     0.0873     1.0080 
    32   opls_831      1    UNK   H0W      1     0.0873     1.0080 
[ bonds ]
    2     1     1      0.1529 224262.400
    3     2     1      0.1510 234304.000
    4     3     1      0.1520 217568.000
    5     4     1      0.1510 234304.000
    6     4     1      0.1510 234304.000
    7     6     1      0.1410 267776.000
    8     7     1      0.1327 179075.200
    9     8     1      0.1229 476976.000
   10     8     1      0.1327 179075.200
   11     3     1      0.1520 217568.000
   12    11     1      0.1510 234304.000
   13    12     1      0.1529 224262.400
   14     2     1      0.1448 319657.600
   15    14     1      0.1448 319657.600
   16     1     1      0.1090 284512.000
   17     1     1      0.1090 284512.000
   18     1     1      0.1090 284512.000
   19     2     1      0.1090 284512.000
   20     3     1      0.1088 284512.000
   21     5     1      0.1090 284512.000
   22     5     1      0.1090 284512.000
   23     5     1      0.1090 284512.000
   24     6     1      0.1090 284512.000
   25     6     1      0.1090 284512.000
   26    12     1      0.1090 284512.000
   27    13     1      0.1090 284512.000
   28    13     1      0.1090 284512.000
   29    13     1      0.1090 284512.000
   30    15     1      0.1090 284512.000
   31    15     1      0.1090 284512.000
   32    15     1      0.1090 284512.000
   11     4     1      0.1520 217568.000
   11    10     1      0.1410 267776.000
   14    12     1      0.1448 319657.600

[ angles ]
;  ai    aj    ak funct            c0            c1            c2            c3 
    1     2     3     1    112.700    488.273
    2     3     4     1    117.200    313.800
    3     4     5     1    117.200    313.800
    3     4     6     1    117.200    313.800
    4     6     7     1    109.500    418.400
    6     7     8     1    116.900    694.544
    7     8     9     1    123.400    694.544
    7     8    10     1    118.180    584.923
    2     3    11     1    117.200    313.800
    3    11    12     1    117.200    313.800
   11    12    13     1    112.700    488.273
    1     2    14     1    109.470    470.282
    2    14    15     1    107.200    433.462
    2     1    16     1    110.700    313.800
    2     1    17     1    110.700    313.800
    2     1    18     1    110.700    313.800
    1     2    19     1    110.700    313.800
    2     3    20     1    114.300    292.880
    4     5    21     1    110.700    313.800
    4     5    22     1    110.700    313.800
    4     5    23     1    110.700    313.800
    4     6    24     1    110.700    313.800
    4     6    25     1    110.700    313.800
   11    12    26     1    110.700    313.800
   12    13    27     1    110.700    313.800
   12    13    28     1    110.700    313.800
   12    13    29     1    110.700    313.800
   14    15    30     1    109.500    292.880
   14    15    31     1    109.500    292.880
   14    15    32     1    109.500    292.880
   16     1    17     1    107.800    276.144
   28    13    29     1    107.800    276.144
    5     4     6     1    114.300    292.880
    4     3    11     1     83.000    251.040
   11    12    14     1    109.470    470.282
    3     2    14     1    109.470    470.282
    7     6    24     1    109.500    292.880
   13    12    14     1    109.470    470.282
   22     5    23     1    107.800    276.144
   30    15    32     1    107.800    276.144
   16     1    18     1    107.800    276.144
   30    15    31     1    107.800    276.144
   21     5    22     1    107.800    276.144
    7     6    25     1    109.500    292.880
    9     8    10     1    123.400    694.544
   12    14    15     1    107.200    433.462
   21     5    23     1    107.800    276.144
    3     4    11     1     83.000    251.040
   14     2    19     1    109.500    292.880
    8    10    11     1    116.900    694.544
    3     2    19     1    110.700    313.800
   10    11    12     1    109.500    418.400
   27    13    28     1    107.800    276.144
    4    11    12     1    117.200    313.800
    5     4    11     1    117.200    313.800
   17     1    18     1    107.800    276.144
    6     4    11     1    117.200    313.800
   24     6    25     1    107.800    276.144
   14    12    26     1    109.500    292.880
    4    11    10     1    109.500    418.400
    3    11     4     1     83.000    251.040
    4     3    20     1    117.200    313.800
   27    13    29     1    107.800    276.144
    2    14    12     1    107.200    433.462
    3    11    10     1    109.500    418.400
   13    12    26     1    110.700    313.800
   31    15    32     1    107.800    276.144
   11     3    20     1    117.200    313.800

[ dihedrals ]
; IMPROPER DIHEDRAL ANGLES 
;  ai    aj    ak    al funct            c0            c1            c2            c3            c4            c5
    10     8     7     9    4        180.000     43.932     2  

[ dihedrals ]
; PROPER DIHEDRAL ANGLES
;  ai    aj    ak    al funct            c0            c1            c2            c3            c4            c5
    8    7    6    4        3      -2.197   5.201   0.527  -3.531  -0.000   0.000
    8   10   11    4        3      -2.197   5.201   0.527  -3.531  -0.000   0.000
    8   10   11    3        3      -2.197   5.201   0.527  -3.531  -0.000   0.000
   13   12   11    4        3       0.000   0.000   0.000  -0.000  -0.000   0.000
   13   12   11    3        3       0.000   0.000   0.000  -0.000  -0.000   0.000
   13   12   11   10        3      -1.157  -3.471   0.000   4.628  -0.000   0.000
   13   12   14    2        3       1.789   3.492   0.536  -5.816  -0.000   0.000
    6    4    3    2        3       0.000   0.000   0.000  -0.000  -0.000   0.000
   12   11    4    5        3       0.000   0.000   0.000  -0.000  -0.000   0.000
   12   11    4    6        3       0.000   0.000   0.000  -0.000  -0.000   0.000
   12   11    3    2        3       0.000   0.000   0.000  -0.000  -0.000   0.000
    5    4    3    2        3       0.000   0.000   0.000  -0.000  -0.000   0.000
    6    4   11    3        3       0.000   0.000   0.000  -0.000  -0.000   0.000
   12   11    4    3        3       0.000   0.000   0.000  -0.000  -0.000   0.000
    5    4   11    3        3       0.000   0.000   0.000  -0.000  -0.000   0.000
   12   11    3    4        3       0.000   0.000   0.000  -0.000  -0.000   0.000
   12   11   10    8        3      -2.197   5.201   0.527  -3.531  -0.000   0.000
   15   14   12   13        3       1.789   3.492   0.536  -5.816  -0.000   0.000
   15   14    2    1        3       1.789   3.492   0.536  -5.816  -0.000   0.000
   12   14    2    1        3       1.789   3.492   0.536  -5.816  -0.000   0.000
   12   14    2    3        3       1.789   3.492   0.536  -5.816  -0.000   0.000
   15   14   12   11        3       1.789   3.492   0.536  -5.816  -0.000   0.000
   15   14    2    3        3       1.789   3.492   0.536  -5.816  -0.000   0.000
   11   12   14    2        3       1.789   3.492   0.536  -5.816  -0.000   0.000
   11    3    2    1        3       0.000   0.000   0.000  -0.000  -0.000   0.000
    4    3    2    1        3       0.000   0.000   0.000  -0.000  -0.000   0.000
   11    3    2    4        3       0.000   0.000   0.000  -0.000  -0.000   0.000
   11    4    6    7        3       0.000   0.000   0.000  -0.000  -0.000   0.000
   11   10    8    9        3      21.439   0.000  -21.439  -0.000  -0.000   0.000
   11   10    8    7        3      31.206  -9.768  -21.439  -0.000  -0.000   0.000
   27   13   12   11        3       0.628   1.883   0.000  -2.510  -0.000   0.000
   29   13   12   11        3       0.628   1.883   0.000  -2.510  -0.000   0.000
   17    1    2    3        3       0.628   1.883   0.000  -2.510  -0.000   0.000
   18    1    2    3        3       0.628   1.883   0.000  -2.510  -0.000   0.000
   16    1    2    3        3       0.628   1.883   0.000  -2.510  -0.000   0.000
   28   13   12   11        3       0.628   1.883   0.000  -2.510  -0.000   0.000
   19    2    1   17        3       0.628   1.883   0.000  -2.510  -0.000   0.000
   19    2    1   18        3       0.628   1.883   0.000  -2.510  -0.000   0.000
   28   13   12   26        3       0.628   1.883   0.000  -2.510  -0.000   0.000
   27   13   12   26        3       0.628   1.883   0.000  -2.510  -0.000   0.000
   29   13   12   26        3       0.628   1.883   0.000  -2.510  -0.000   0.000
   19    2    1   16        3       0.628   1.883   0.000  -2.510  -0.000   0.000
   18    1    2   14        3      -4.096   5.088   2.966  -3.958  -0.000   0.000
   16    1    2   14        3      -4.096   5.088   2.966  -3.958  -0.000   0.000
   17    1    2   14        3      -4.096   5.088   2.966  -3.958  -0.000   0.000
   29   13   12   14        3      -4.096   5.088   2.966  -3.958  -0.000   0.000
   27   13   12   14        3      -4.096   5.088   2.966  -3.958  -0.000   0.000
   28   13   12   14        3      -4.096   5.088   2.966  -3.958  -0.000   0.000
   23    5    4    6        3       0.628   1.883   0.000  -2.510  -0.000   0.000
   21    5    4    6        3       0.628   1.883   0.000  -2.510  -0.000   0.000
   24    6    4    5        3       0.628   1.883   0.000  -2.510  -0.000   0.000
   25    6    4    5        3       0.628   1.883   0.000  -2.510  -0.000   0.000
   22    5    4    6        3       0.628   1.883   0.000  -2.510  -0.000   0.000
   24    6    4   11        3       0.628   1.883   0.000  -2.510  -0.000   0.000
   25    6    4    3        3       0.628   1.883   0.000  -2.510  -0.000   0.000
   21    5    4   11        3       0.628   1.883   0.000  -2.510  -0.000   0.000
   22    5    4   11        3       0.628   1.883   0.000  -2.510  -0.000   0.000
   19    2    3    4        3       0.628   1.883   0.000  -2.510  -0.000   0.000
   23    5    4    3        3       0.628   1.883   0.000  -2.510  -0.000   0.000
   19    2    3   11        3       0.628   1.883   0.000  -2.510  -0.000   0.000
   22    5    4    3        3       0.628   1.883   0.000  -2.510  -0.000   0.000
   23    5    4   11        3       0.628   1.883   0.000  -2.510  -0.000   0.000
   25    6    4   11        3       0.628   1.883   0.000  -2.510  -0.000   0.000
   26   12   11    4        3       0.628   1.883   0.000  -2.510  -0.000   0.000
   24    6    4    3        3       0.628   1.883   0.000  -2.510  -0.000   0.000
   26   12   11    3        3       0.628   1.883   0.000  -2.510  -0.000   0.000
   21    5    4    3        3       0.628   1.883   0.000  -2.510  -0.000   0.000
   26   12   11   10        3       0.979   2.937   0.000  -3.916  -0.000   0.000
   26   12   14   15        3       1.172   3.515   0.000  -4.686  -0.000   0.000
   26   12   14    2        3       1.172   3.515   0.000  -4.686  -0.000   0.000
   32   15   14    2        3       1.172   3.515   0.000  -4.686  -0.000   0.000
   30   15   14   12        3       1.172   3.515   0.000  -4.686  -0.000   0.000
   19    2   14   15        3       1.172   3.515   0.000  -4.686  -0.000   0.000
   30   15   14    2        3       1.172   3.515   0.000  -4.686  -0.000   0.000
   32   15   14   12        3       1.172   3.515   0.000  -4.686  -0.000   0.000
   19    2   14   12        3       1.172   3.515   0.000  -4.686  -0.000   0.000
   31   15   14    2        3       1.172   3.515   0.000  -4.686  -0.000   0.000
   31   15   14   12        3       1.172   3.515   0.000  -4.686  -0.000   0.000
   25    6    7    8        3       0.414   1.243   0.000  -1.657  -0.000   0.000
   24    6    7    8        3       0.414   1.243   0.000  -1.657  -0.000   0.000
   20    3    2    1        3       0.628   1.883   0.000  -2.510  -0.000   0.000
   20    3    2   19        3       0.628   1.883   0.000  -2.510  -0.000   0.000
   20    3    2   14        3      -4.096   5.088   2.966  -3.958  -0.000   0.000
   20    3   11   12        3       0.000   0.000   0.000  -0.000  -0.000   0.000
   20    3    4    6        3       0.000   0.000   0.000  -0.000  -0.000   0.000
   20    3    4    5        3       0.000   0.000   0.000  -0.000  -0.000   0.000
   20    3    4   11        3       0.000   0.000   0.000  -0.000  -0.000   0.000
   20    3   11    4        3       0.000   0.000   0.000  -0.000  -0.000   0.000
   20    3   11   10        3       0.000   0.000   0.000  -0.000  -0.000   0.000
   14    2    3   11        3       3.335  -1.552   2.820  -4.602  -0.000   0.000
   14    2    3    4        3       3.335  -1.552   2.820  -4.602  -0.000   0.000
   14   12   11    3        3       3.335  -1.552   2.820  -4.602  -0.000   0.000
   14   12   11    4        3       3.335  -1.552   2.820  -4.602  -0.000   0.000
   14   12   11   10        3      16.736  -16.736   0.000  -0.000  -0.000   0.000
    9    8    7    6        3      21.439   0.000  -21.439  -0.000  -0.000   0.000
   10    8    7    6        3      31.206  -9.768  -21.439  -0.000  -0.000   0.000
    7    6    4    5        3       2.874   0.582   2.092  -5.548  -0.000   0.000
    7    6    4    3        3       0.000   0.000   0.000  -0.000  -0.000   0.000
   10   11    4    6        3       0.000   0.000   0.000  -0.000  -0.000   0.000
   10   11    3    2        3       0.000   0.000   0.000  -0.000  -0.000   0.000
   10   11    4    5        3       0.000   0.000   0.000  -0.000  -0.000   0.000
   10   11    4    3        3       0.000   0.000   0.000  -0.000  -0.000   0.000
   10   11    3    4        3       0.000   0.000   0.000  -0.000  -0.000   0.000

[ pairs ]
     1     4    1
     2     5    1
     2     6    1
     3     7    1
     3     8    1
     5     7    1
     4     8    1
     2    10    1
     1    11    1
     1    12    1
     6     9    1
     5    10    1
     2    13    1
     6    10    1
     3    13    1
     1    15    1
     5    12    1
     4    13    1
     7    11    1
     6    12    1
     4    14    1
     3    15    1
     3    16    1
     9    11    1
     8    12    1
     3    17    1
     3    18    1
     1    20    1
    10    13    1
     4    19    1
    10    14    1
     3    21    1
     5    20    1
     3    22    1
    11    15    1
     6    20    1
     3    23    1
     6    21    1
     3    24    1
    13    15    1
     6    22    1
     3    25    1
     2    26    1
     6    23    1
     5    24    1
     3    26    1
    14    16    1
    11    19    1
    10    20    1
     5    25    1
     4    26    1
    14    17    1
    12    19    1
    14    18    1
    12    20    1
    11    21    1
     8    24    1
     2    30    1
    11    22    1
     8    25    1
     2    31    1
    15    19    1
    14    20    1
    11    23    1
     2    32    1
    16    19    1
    11    24    1
    17    19    1
    11    25    1
    10    26    1
    18    19    1
    11    27    1
    19    20    1
    11    28    1
    11    29    1
    15    26    1
    14    27    1
    14    28    1
    12    30    1
    14    29    1
    12    31    1
    12    32    1
    26    27    1
    26    28    1
    26    29    1

