LIGPARGEN GENERATED GRO FILE
   32
    1UNK    C00    1   0.100   0.100   0.000
    1UNK    C01    2  -0.056   0.100   0.000
    1UNK    C02    3  -0.100   0.100   0.143
    1UNK    C03    4  -0.214   0.049   0.235
    1UNK    C04    5  -0.358   0.024   0.201
    1UNK    C05    6  -0.194   0.087   0.379
    1UNK    O06    7  -0.105  -0.000   0.451
    1UNK    C07    8   0.005  -0.056   0.394
    1UNK    O08    9   0.105  -0.080   0.459
    1UNK    O09   10  -0.006  -0.091   0.263
    1UNK    C0A   11  -0.113  -0.046   0.179
    1UNK    C0B   12  -0.123  -0.123   0.047
    1UNK    C0C   13  -0.252  -0.200   0.020
    1UNK    N0D   14  -0.114  -0.020  -0.059
    1UNK    C0E   15  -0.045  -0.069  -0.178
    1UNK    H0F   16   0.139   0.185   0.056
    1UNK    H0G   17   0.142   0.105  -0.101
    1UNK    H0H   18   0.141   0.010   0.048
    1UNK    H0I   19  -0.090   0.190  -0.052
    1UNK    H0J   20  -0.035   0.169   0.197
    1UNK    H0K   21  -0.425   0.083   0.265
    1UNK    H0M   22  -0.383  -0.081   0.223
    1UNK    H0N   23  -0.383   0.047   0.098
    1UNK    H0O   24  -0.288   0.088   0.435
    1UNK    H0P   25  -0.154   0.189   0.387
    1UNK    H0Q   26  -0.039  -0.193   0.043
    1UNK    H0R   27  -0.336  -0.135  -0.006
    1UNK    H0S   28  -0.282  -0.261   0.106
    1UNK    H0T   29  -0.240  -0.267  -0.066
    1UNK    H0U   30  -0.105  -0.146  -0.228
    1UNK    H0V   31   0.053  -0.114  -0.156
    1UNK    H0W   32  -0.030   0.011  -0.251
   1.00000   1.00000   1.00000

