LIGPARGEN GENERATED GRO FILE
   41
    1UNK    C00    1   0.100   0.100   0.000
    1UNK    C01    2  -0.053   0.100   0.000
    1UNK    C02    3  -0.113   0.100   0.142
    1UNK    C03    4  -0.070   0.226   0.216
    1UNK    N04    5  -0.035   0.330   0.278
    1UNK    C05    6  -0.265   0.092   0.137
    1UNK    C06    7  -0.325   0.092   0.278
    1UNK    C07    8  -0.477   0.091   0.269
    1UNK    C08    9  -0.547   0.090   0.407
    1UNK    C09   10  -0.512   0.216   0.488
    1UNK    C0A   11  -0.701   0.073   0.392
    1UNK    C0B   12  -0.766   0.187   0.312
    1UNK    C0C   13  -0.735  -0.065   0.333
    1UNK    C0D   14  -0.883  -0.092   0.315
    1UNK    C0E   15  -0.970  -0.096   0.437
    1UNK    O0F   16  -0.930  -0.110   0.202
    1UNK    H0G   17   0.138   0.093  -0.103
    1UNK    H0H   18   0.139   0.015   0.056
    1UNK    H0I   19   0.140   0.192   0.044
    1UNK    H0J   20  -0.087   0.011  -0.054
    1UNK    H0K   21  -0.088   0.187  -0.056
    1UNK    H0M   22  -0.074   0.013   0.197
    1UNK    H0N   23  -0.295   0.001   0.084
    1UNK    H0O   24  -0.305   0.177   0.080
    1UNK    H0P   25  -0.292   0.181   0.332
    1UNK    H0Q   26  -0.289   0.005   0.334
    1UNK    H0R   27  -0.504   0.002   0.212
    1UNK    H0S   28  -0.509   0.178   0.211
    1UNK    H0T   29  -0.509   0.004   0.463
    1UNK    H0U   30  -0.534   0.307   0.433
    1UNK    H0V   31  -0.405   0.218   0.513
    1UNK    H0W   32  -0.567   0.218   0.582
    1UNK    H0X   33  -0.744   0.077   0.493
    1UNK    H0Y   34  -0.726   0.193   0.210
    1UNK    H0Z   35  -0.750   0.284   0.361
    1UNK    H10   36  -0.874   0.173   0.303
    1UNK    H11   37  -0.695  -0.145   0.397
    1UNK    H12   38  -0.690  -0.078   0.234
    1UNK    H13   39  -0.910  -0.097   0.528
    1UNK    H14   40  -1.030  -0.188   0.435
    1UNK    H15   41  -1.035  -0.008   0.438
   1.00000   1.00000   1.00000

