LIGPARGEN GENERATED GRO FILE
   35
    1UNK    C00    1   0.100   0.100   0.000
    1UNK    C01    2  -0.049   0.100   0.000
    1UNK    C02    3  -0.124   0.100   0.131
    1UNK    C03    4  -0.126   0.223   0.042
    1UNK    C04    5  -0.252   0.266  -0.032
    1UNK    C05    6  -0.363   0.296   0.070
    1UNK    C06    7  -0.497   0.333   0.013
    1UNK    C07    8  -0.576   0.244  -0.079
    1UNK    C08    9  -0.619   0.260   0.064
    1UNK    C09   10  -0.218   0.390  -0.116
    1UNK    C0A   11  -0.109   0.369  -0.226
    1UNK    C0B   12  -0.181   0.480  -0.305
    1UNK    C0C   13  -0.310   0.436  -0.233
    1UNK    H0D   14   0.137  -0.003   0.006
    1UNK    H0E   15   0.141   0.156   0.085
    1UNK    H0F   16   0.138   0.145  -0.092
    1UNK    H0G   17  -0.089   0.039  -0.080
    1UNK    H0H   18  -0.068   0.107   0.223
    1UNK    H0I   19  -0.213   0.038   0.137
    1UNK    H0J   20  -0.070   0.308   0.080
    1UNK    H0K   21  -0.285   0.184  -0.098
    1UNK    H0M   22  -0.330   0.377   0.137
    1UNK    H0N   23  -0.375   0.209   0.136
    1UNK    H0O   24  -0.505   0.440  -0.002
    1UNK    H0P   25  -0.534   0.149  -0.109
    1UNK    H0Q   26  -0.638   0.291  -0.155
    1UNK    H0R   27  -0.606   0.175   0.130
    1UNK    H0S   28  -0.708   0.319   0.085
    1UNK    H0T   29  -0.193   0.474  -0.050
    1UNK    H0U   30  -0.112   0.271  -0.275
    1UNK    H0V   31  -0.006   0.391  -0.196
    1UNK    H0W   32  -0.180   0.469  -0.414
    1UNK    H0X   33  -0.147   0.581  -0.279
    1UNK    H0Y   34  -0.363   0.355  -0.284
    1UNK    H0Z   35  -0.380   0.516  -0.210
   1.00000   1.00000   1.00000

