LIGPARGEN GENERATED GRO FILE
   36
    1UNK    C00    1   0.100   0.100   0.000
    1UNK    C01    2  -0.052   0.100   0.000
    1UNK    C02    3  -0.112   0.100   0.141
    1UNK    C03    4  -0.264   0.100   0.132
    1UNK    C04    5  -0.339   0.100   0.266
    1UNK    C05    6  -0.314   0.219   0.361
    1UNK    C06    7  -0.339   0.356   0.293
    1UNK    C07    8  -0.316   0.479   0.382
    1UNK    C08    9  -0.172   0.485   0.430
    1UNK    N09   10  -0.053   0.490   0.470
    1UNK    C0A   11  -0.397   0.201   0.490
    1UNK    C0B   12  -0.547   0.202   0.466
    1UNK    O0C   13  -0.612   0.304   0.450
    1UNK    O0D   14  -0.594   0.075   0.459
    1UNK    C0E   15  -0.733   0.066   0.425
    1UNK    H0F   16   0.137   0.105  -0.103
    1UNK    H0G   17   0.139   0.009   0.046
    1UNK    H0H   18   0.140   0.186   0.054
    1UNK    H0I   19  -0.087   0.012  -0.055
    1UNK    H0J   20  -0.087   0.189  -0.054
    1UNK    H0K   21  -0.076   0.188   0.196
    1UNK    H0M   22  -0.077   0.012   0.196
    1UNK    H0N   23  -0.295   0.010   0.078
    1UNK    H0O   24  -0.298   0.184   0.071
    1UNK    H0P   25  -0.315   0.007   0.319
    1UNK    H0Q   26  -0.446   0.095   0.241
    1UNK    H0R   27  -0.209   0.215   0.391
    1UNK    H0S   28  -0.442   0.360   0.254
    1UNK    H0T   29  -0.273   0.365   0.206
    1UNK    H0U   30  -0.384   0.479   0.468
    1UNK    H0V   31  -0.337   0.570   0.325
    1UNK    H0W   32  -0.375   0.278   0.564
    1UNK    H0X   33  -0.370   0.106   0.539
    1UNK    H0Y   34  -0.761  -0.040   0.429
    1UNK    H0Z   35  -0.749   0.102   0.323
    1UNK    H10   36  -0.794   0.121   0.497
   1.00000   1.00000   1.00000

