LIGPARGEN GENERATED GRO FILE
   39
    1UNK    C00    1   0.100   0.100   0.000
    1UNK    C01    2  -0.052   0.100   0.000
    1UNK    C02    3  -0.107   0.100   0.143
    1UNK    C03    4  -0.260   0.100   0.145
    1UNK    C04    5  -0.317   0.100   0.288
    1UNK    C05    6  -0.270   0.225   0.362
    1UNK    N06    7  -0.231   0.329   0.422
    1UNK    C07    8  -0.471   0.100   0.292
    1UNK    C08    9  -0.542  -0.022   0.229
    1UNK    C09   10  -0.494  -0.153   0.293
    1UNK    C0A   11  -0.696  -0.012   0.243
    1UNK    C0B   12  -0.764   0.109   0.177
    1UNK    C0C   13  -0.734   0.118   0.027
    1UNK    C0D   14  -0.915   0.102   0.200
    1UNK    H0E   15   0.138   0.100  -0.103
    1UNK    H0F   16   0.139   0.011   0.051
    1UNK    H0G   17   0.139   0.189   0.050
    1UNK    H0H   18  -0.088   0.012  -0.054
    1UNK    H0I   19  -0.088   0.189  -0.054
    1UNK    H0J   20  -0.068   0.188   0.195
    1UNK    H0K   21  -0.070   0.012   0.196
    1UNK    H0M   22  -0.296   0.012   0.091
    1UNK    H0N   23  -0.297   0.188   0.091
    1UNK    H0O   24  -0.278   0.013   0.343
    1UNK    H0P   25  -0.506   0.191   0.243
    1UNK    H0Q   26  -0.503   0.108   0.397
    1UNK    H0R   27  -0.518  -0.027   0.122
    1UNK    H0S   28  -0.498  -0.147   0.402
    1UNK    H0T   29  -0.392  -0.176   0.263
    1UNK    H0U   30  -0.557  -0.237   0.261
    1UNK    H0V   31  -0.721  -0.012   0.350
    1UNK    H0W   32  -0.740  -0.103   0.202
    1UNK    H0X   33  -0.728   0.202   0.224
    1UNK    H0Y   34  -0.748   0.021  -0.022
    1UNK    H0Z   35  -0.631   0.150   0.009
    1UNK    H10   36  -0.800   0.191  -0.022
    1UNK    H11   37  -0.958   0.013   0.153
    1UNK    H12   38  -0.965   0.190   0.157
    1UNK    H13   39  -0.938   0.100   0.307
   1.00000   1.00000   1.00000

