
;
; GENERATED BY LigParGen Server
; Jorgensen Lab @ Yale University 
;
[ atomtypes ]
  opls_818  H818     1.0080     0.000    A    2.50000E-01   1.25520E-01
  opls_803  O803    15.9990     0.000    A    2.90000E-01   5.85760E-01
  opls_824  H824     1.0080     0.000    A    2.50000E-01   1.25520E-01
  opls_805  C805    12.0110     0.000    A    3.50000E-01   2.76144E-01
  opls_809  C809    12.0110     0.000    A    3.55000E-01   2.92880E-01
  opls_813  H813     1.0080     0.000    A    2.50000E-01   1.25520E-01
  opls_806  C806    12.0110     0.000    A    3.50000E-01   2.76144E-01
  opls_815  H815     1.0080     0.000    A    2.50000E-01   1.25520E-01
  opls_812  C812    12.0110     0.000    A    3.50000E-01   2.76144E-01
  opls_802  O802    15.9990     0.000    A    2.96000E-01   8.78640E-01
  opls_822  H822     1.0080     0.000    A    2.50000E-01   1.25520E-01
  opls_807  C807    12.0110     0.000    A    3.50000E-01   2.76144E-01
  opls_825  H825     1.0080     0.000    A    2.50000E-01   1.25520E-01
  opls_814  H814     1.0080     0.000    A    2.50000E-01   1.25520E-01
  opls_810  C810    12.0110     0.000    A    3.50000E-01   2.76144E-01
  opls_820  H820     1.0080     0.000    A    2.50000E-01   1.25520E-01
  opls_801  C801    12.0110     0.000    A    3.55000E-01   2.92880E-01
  opls_821  H821     1.0080     0.000    A    2.50000E-01   1.25520E-01
  opls_816  H816     1.0080     0.000    A    2.50000E-01   1.25520E-01
  opls_800  C800    12.0110     0.000    A    3.50000E-01   2.76144E-01
  opls_823  H823     1.0080     0.000    A    2.50000E-01   1.25520E-01
  opls_808  O808    15.9990     0.000    A    2.90000E-01   5.85760E-01
  opls_826  H826     1.0080     0.000    A    2.50000E-01   1.25520E-01
  opls_819  H819     1.0080     0.000    A    2.50000E-01   1.25520E-01
  opls_804  C804    12.0110     0.000    A    3.50000E-01   2.76144E-01
  opls_817  H817     1.0080     0.000    A    2.50000E-01   1.25520E-01
  opls_811  O811    15.9990     0.000    A    2.96000E-01   8.78640E-01
[ moleculetype ]
; Name               nrexcl
UNK                   3
[ atoms ]
;   nr       type  resnr residue  atom   cgnr     charge       mass  
     1   opls_800      1    UNK   C00      1     -0.261    12.0110 
     2   opls_801      1    UNK   C01      1     0.4449    12.0110 
     3   opls_802      1    UNK   O02      1    -0.4505    15.9990 
     4   opls_803      1    UNK   O03      1    -0.3603    15.9990 
     5   opls_804      1    UNK   C04      1     0.0728    12.0110 
     6   opls_805      1    UNK   C05      1    -0.2117    12.0110 
     7   opls_806      1    UNK   C06      1    -0.2089    12.0110 
     8   opls_807      1    UNK   C07      1     0.0621    12.0110 
     9   opls_808      1    UNK   O08      1    -0.3599    15.9990 
    10   opls_809      1    UNK   C09      1     0.4423    12.0110 
    11   opls_810      1    UNK   C0A      1    -0.2606    12.0110 
    12   opls_811      1    UNK   O0B      1    -0.4496    15.9990 
    13   opls_812      1    UNK   C0C      1    -0.2105    12.0110 
    14   opls_813      1    UNK   H0D      1     0.1276     1.0080 
    15   opls_814      1    UNK   H0E      1     0.1276     1.0080 
    16   opls_815      1    UNK   H0F      1     0.1276     1.0080 
    17   opls_816      1    UNK   H0G      1     0.1335     1.0080 
    18   opls_817      1    UNK   H0H      1     0.1181     1.0080 
    19   opls_818      1    UNK   H0I      1     0.1181     1.0080 
    20   opls_819      1    UNK   H0J      1     0.1149     1.0080 
    21   opls_820      1    UNK   H0K      1     0.1149     1.0080 
    22   opls_821      1    UNK   H0M      1      0.143     1.0080 
    23   opls_822      1    UNK   H0N      1     0.1271     1.0080 
    24   opls_823      1    UNK   H0O      1     0.1271     1.0080 
    25   opls_824      1    UNK   H0P      1     0.1271     1.0080 
    26   opls_825      1    UNK   H0Q      1     0.1221     1.0080 
    27   opls_826      1    UNK   H0R      1     0.1221     1.0080 
[ bonds ]
    2     1     1      0.1522 265265.600
    3     2     1      0.1229 476976.000
    4     2     1      0.1327 179075.200
    5     4     1      0.1410 267776.000
    6     5     1      0.1529 224262.400
    7     6     1      0.1529 224262.400
    8     7     1      0.1529 224262.400
    9     8     1      0.1410 267776.000
   10     9     1      0.1327 179075.200
   11    10     1      0.1522 265265.600
   12    10     1      0.1229 476976.000
   13     5     1      0.1529 224262.400
   14     1     1      0.1090 284512.000
   15     1     1      0.1090 284512.000
   16     1     1      0.1090 284512.000
   17     5     1      0.1090 284512.000
   18     6     1      0.1090 284512.000
   19     6     1      0.1090 284512.000
   20     7     1      0.1090 284512.000
   21     7     1      0.1090 284512.000
   22     8     1      0.1090 284512.000
   23    11     1      0.1090 284512.000
   24    11     1      0.1090 284512.000
   25    11     1      0.1090 284512.000
   26    13     1      0.1090 284512.000
   27    13     1      0.1090 284512.000
   13     8     1      0.1529 224262.400

[ angles ]
;  ai    aj    ak funct            c0            c1            c2            c3 
    1     2     3     1    120.400    669.440
    1     2     4     1    111.400    677.808
    2     4     5     1    116.900    694.544
    4     5     6     1    109.500    418.400
    5     6     7     1    112.700    488.273
    6     7     8     1    112.700    488.273
    7     8     9     1    109.500    418.400
    8     9    10     1    116.900    694.544
    9    10    11     1    111.400    677.808
    9    10    12     1    123.400    694.544
    4     5    13     1    109.500    418.400
    2     1    14     1    109.500    292.880
    2     1    15     1    109.500    292.880
    2     1    16     1    109.500    292.880
    4     5    17     1    109.500    292.880
    5     6    18     1    110.700    313.800
    5     6    19     1    110.700    313.800
    6     7    20     1    110.700    313.800
    6     7    21     1    110.700    313.800
    7     8    22     1    110.700    313.800
   10    11    23     1    109.500    292.880
   10    11    24     1    109.500    292.880
   10    11    25     1    109.500    292.880
    5    13    26     1    110.700    313.800
    5    13    27     1    110.700    313.800
   13     8    22     1    110.700    313.800
   13     5    17     1    110.700    313.800
    8    13    26     1    110.700    313.800
    7     6    18     1    110.700    313.800
   14     1    16     1    107.800    276.144
    5    13     8     1    112.700    488.273
   24    11    25     1    107.800    276.144
   18     6    19     1    107.800    276.144
   23    11    24     1    107.800    276.144
    6     5    17     1    110.700    313.800
    9     8    13     1    109.500    418.400
    8    13    27     1    110.700    313.800
    6     5    13     1    112.700    488.273
   14     1    15     1    107.800    276.144
   20     7    21     1    107.800    276.144
   26    13    27     1    107.800    276.144
   15     1    16     1    107.800    276.144
    3     2     4     1    123.400    694.544
    7     6    19     1    110.700    313.800
    8     7    21     1    110.700    313.800
   23    11    25     1    107.800    276.144
   11    10    12     1    120.400    669.440
    7     8    13     1    112.700    488.273
    8     7    20     1    110.700    313.800
    9     8    22     1    109.500    292.880

[ dihedrals ]
; IMPROPER DIHEDRAL ANGLES 
;  ai    aj    ak    al funct            c0            c1            c2            c3            c4            c5
    12    10     9    11    4        180.000     43.932     2  
     4     2     1     3    4        180.000     43.932     2  

[ dihedrals ]
; PROPER DIHEDRAL ANGLES
;  ai    aj    ak    al funct            c0            c1            c2            c3            c4            c5
   10    9    8    7        3      -2.197   5.201   0.527  -3.531  -0.000   0.000
   11   10    9    8        3      31.206  -9.768  -21.439  -0.000  -0.000   0.000
   13    8    7    6        3       2.301  -1.464   0.837  -1.674  -0.000   0.000
    8   13    5    6        3       2.301  -1.464   0.837  -1.674  -0.000   0.000
    7    8   13    5        3       2.301  -1.464   0.837  -1.674  -0.000   0.000
   13    5    6    7        3       2.301  -1.464   0.837  -1.674  -0.000   0.000
    8    7    6    5        3       2.301  -1.464   0.837  -1.674  -0.000   0.000
    8   13    5    4        3       2.874   0.582   2.092  -5.548  -0.000   0.000
    7    6    5    4        3       2.874   0.582   2.092  -5.548  -0.000   0.000
    6    5    4    2        3      -2.197   5.201   0.527  -3.531  -0.000   0.000
   13    8    9   10        3      -2.197   5.201   0.527  -3.531  -0.000   0.000
   13    5    4    2        3      -2.197   5.201   0.527  -3.531  -0.000   0.000
    5    4    2    1        3      31.206  -9.768  -21.439  -0.000  -0.000   0.000
    5    4    2    3        3      21.439   0.000  -21.439  -0.000  -0.000   0.000
   23   11   10   12        3       0.000   0.000   0.000  -0.000  -0.000   0.000
   15    1    2    3        3       0.000   0.000   0.000  -0.000  -0.000   0.000
   24   11   10   12        3       0.000   0.000   0.000  -0.000  -0.000   0.000
   14    1    2    3        3       0.000   0.000   0.000  -0.000  -0.000   0.000
   25   11   10   12        3       0.000   0.000   0.000  -0.000  -0.000   0.000
   16    1    2    3        3       0.000   0.000   0.000  -0.000  -0.000   0.000
   16    1    2    4        3       0.276   0.828   0.000  -1.105  -0.000   0.000
   23   11   10    9        3       0.276   0.828   0.000  -1.105  -0.000   0.000
   24   11   10    9        3       0.276   0.828   0.000  -1.105  -0.000   0.000
   14    1    2    4        3       0.276   0.828   0.000  -1.105  -0.000   0.000
   15    1    2    4        3       0.276   0.828   0.000  -1.105  -0.000   0.000
   25   11   10    9        3       0.276   0.828   0.000  -1.105  -0.000   0.000
   26   13    5    6        3       0.628   1.883   0.000  -2.510  -0.000   0.000
   19    6    7    8        3       0.628   1.883   0.000  -2.510  -0.000   0.000
   21    7    6    5        3       0.628   1.883   0.000  -2.510  -0.000   0.000
   26   13    8    7        3       0.628   1.883   0.000  -2.510  -0.000   0.000
   18    6    5   13        3       0.628   1.883   0.000  -2.510  -0.000   0.000
   27   13    8    7        3       0.628   1.883   0.000  -2.510  -0.000   0.000
   18    6    7    8        3       0.628   1.883   0.000  -2.510  -0.000   0.000
   17    5   13    8        3       0.628   1.883   0.000  -2.510  -0.000   0.000
   20    7    6    5        3       0.628   1.883   0.000  -2.510  -0.000   0.000
   20    7    8   13        3       0.628   1.883   0.000  -2.510  -0.000   0.000
   19    6    5   13        3       0.628   1.883   0.000  -2.510  -0.000   0.000
   22    8   13    5        3       0.628   1.883   0.000  -2.510  -0.000   0.000
   22    8    7    6        3       0.628   1.883   0.000  -2.510  -0.000   0.000
   21    7    8   13        3       0.628   1.883   0.000  -2.510  -0.000   0.000
   27   13    5    6        3       0.628   1.883   0.000  -2.510  -0.000   0.000
   17    5    6    7        3       0.628   1.883   0.000  -2.510  -0.000   0.000
   22    8    7   21        3       0.628   1.883   0.000  -2.510  -0.000   0.000
   27   13    5   17        3       0.628   1.883   0.000  -2.510  -0.000   0.000
   26   13    8   22        3       0.628   1.883   0.000  -2.510  -0.000   0.000
   21    7    6   19        3       0.628   1.883   0.000  -2.510  -0.000   0.000
   20    7    6   18        3       0.628   1.883   0.000  -2.510  -0.000   0.000
   18    6    5   17        3       0.628   1.883   0.000  -2.510  -0.000   0.000
   21    7    6   18        3       0.628   1.883   0.000  -2.510  -0.000   0.000
   27   13    8   22        3       0.628   1.883   0.000  -2.510  -0.000   0.000
   22    8    7   20        3       0.628   1.883   0.000  -2.510  -0.000   0.000
   20    7    6   19        3       0.628   1.883   0.000  -2.510  -0.000   0.000
   26   13    5   17        3       0.628   1.883   0.000  -2.510  -0.000   0.000
   19    6    5   17        3       0.628   1.883   0.000  -2.510  -0.000   0.000
   27   13    5    4        3       0.979   2.937   0.000  -3.916  -0.000   0.000
   26   13    8    9        3       0.979   2.937   0.000  -3.916  -0.000   0.000
   26   13    5    4        3       0.979   2.937   0.000  -3.916  -0.000   0.000
   20    7    8    9        3       0.979   2.937   0.000  -3.916  -0.000   0.000
   21    7    8    9        3       0.979   2.937   0.000  -3.916  -0.000   0.000
   27   13    8    9        3       0.979   2.937   0.000  -3.916  -0.000   0.000
   18    6    5    4        3       0.979   2.937   0.000  -3.916  -0.000   0.000
   19    6    5    4        3       0.979   2.937   0.000  -3.916  -0.000   0.000
   22    8    9   10        3       0.414   1.243   0.000  -1.657  -0.000   0.000
   17    5    4    2        3       0.414   1.243   0.000  -1.657  -0.000   0.000
   12   10    9    8        3      21.439   0.000  -21.439  -0.000  -0.000   0.000
    9    8    7    6        3       2.874   0.582   2.092  -5.548  -0.000   0.000
    9    8   13    5        3       2.874   0.582   2.092  -5.548  -0.000   0.000

[ pairs ]
     1     5    1
     3     5    1
     2     6    1
     4     7    1
     4     8    1
     5     9    1
     6     9    1
     2    13    1
     7    10    1
     3    14    1
     4    14    1
     3    15    1
     8    11    1
     4    15    1
     3    16    1
     2    17    1
     8    12    1
     4    16    1
     4    18    1
    10    13    1
     4    19    1
     7    17    1
     8    17    1
     5    20    1
     8    18    1
     5    21    1
     8    19    1
     5    22    1
     6    22    1
     9    20    1
     9    21    1
     4    26    1
    13    18    1
     4    27    1
    13    19    1
    10    22    1
     9    23    1
     6    26    1
    13    20    1
     9    24    1
     7    26    1
     6    27    1
    13    21    1
     9    25    1
     7    27    1
    17    18    1
    12    23    1
     9    26    1
    17    19    1
    12    24    1
     9    27    1
    12    25    1
    18    20    1
    19    20    1
    18    21    1
    19    21    1
    20    22    1
    21    22    1
    17    26    1
    17    27    1
    22    26    1
    22    27    1

