LIGPARGEN GENERATED GRO FILE
   27
    1UNK    C00    1   0.100   0.100   0.000
    1UNK    C01    2  -0.050   0.100   0.000
    1UNK    O02    3  -0.119   0.100   0.101
    1UNK    O03    4  -0.096   0.100  -0.128
    1UNK    C04    5  -0.237   0.100  -0.153
    1UNK    C05    6  -0.311  -0.024  -0.102
    1UNK    C06    7  -0.455   0.023  -0.096
    1UNK    C07    8  -0.443   0.165  -0.039
    1UNK    O08    9  -0.554   0.246  -0.078
    1UNK    C09   10  -0.669   0.227  -0.006
    1UNK    C0A   11  -0.780   0.312  -0.059
    1UNK    O0B   12  -0.682   0.147   0.085
    1UNK    C0C   13  -0.314   0.221  -0.099
    1UNK    H0D   14   0.136   0.131   0.099
    1UNK    H0E   15   0.137   0.172  -0.073
    1UNK    H0F   16   0.137  -0.000  -0.023
    1UNK    H0G   17  -0.246   0.101  -0.262
    1UNK    H0H   18  -0.277  -0.056  -0.004
    1UNK    H0I   19  -0.298  -0.109  -0.170
    1UNK    H0J   20  -0.517  -0.042  -0.034
    1UNK    H0K   21  -0.500   0.026  -0.196
    1UNK    H0M   22  -0.433   0.162   0.070
    1UNK    H0N   23  -0.740   0.393  -0.121
    1UNK    H0O   24  -0.834   0.357   0.025
    1UNK    H0P   25  -0.847   0.251  -0.120
    1UNK    H0Q   26  -0.258   0.278  -0.025
    1UNK    H0R   27  -0.335   0.291  -0.181
   1.00000   1.00000   1.00000

