LIGPARGEN GENERATED GRO FILE
   28
    1UNK    C00    1   0.100   0.100   0.000
    1UNK    C01    2  -0.052   0.100   0.000
    1UNK    C02    3  -0.119   0.100   0.132
    1UNK    C03    4  -0.269   0.094   0.131
    1UNK    C04    5  -0.325   0.007   0.012
    1UNK    C05    6  -0.334   0.072  -0.128
    1UNK    C06    7  -0.242   0.151  -0.246
    1UNK    C07    8  -0.101   0.214  -0.261
    1UNK    C08    9  -0.076   0.309  -0.137
    1UNK    C09   10  -0.151   0.228  -0.039
    1UNK    C0A   11  -0.280   0.207  -0.117
    1UNK    C0B   12  -0.190   0.224   0.101
    1UNK    H0C   13   0.138   0.026   0.072
    1UNK    H0D   14   0.143   0.197   0.024
    1UNK    H0E   15   0.137   0.069  -0.099
    1UNK    H0F   16  -0.078   0.009  -0.056
    1UNK    H0G   17  -0.057   0.100   0.220
    1UNK    H0H   18  -0.320   0.082   0.225
    1UNK    H0I   19  -0.426  -0.021   0.042
    1UNK    H0J   20  -0.269  -0.087   0.005
    1UNK    H0K   21  -0.436   0.057  -0.164
    1UNK    H0M   22  -0.300   0.173  -0.335
    1UNK    H0N   23  -0.093   0.272  -0.353
    1UNK    H0O   24  -0.025   0.135  -0.265
    1UNK    H0P   25  -0.124   0.407  -0.154
    1UNK    H0Q   26   0.030   0.327  -0.117
    1UNK    H0R   27  -0.347   0.292  -0.113
    1UNK    H0S   28  -0.188   0.312   0.163
   1.00000   1.00000   1.00000

