LIGPARGEN GENERATED GRO FILE
   40
    1UNK    C00    1   0.100   0.100   0.000
    1UNK    C01    2  -0.052   0.100   0.000
    1UNK    C02    3  -0.115   0.100   0.141
    1UNK    C03    4  -0.073   0.224   0.216
    1UNK    O04    5  -0.014   0.220   0.324
    1UNK    C05    6  -0.267   0.097   0.124
    1UNK    C06    7  -0.348   0.097   0.255
    1UNK    C07    8  -0.503   0.094   0.234
    1UNK    C08    9  -0.571   0.094   0.372
    1UNK    C09   10  -0.545   0.224   0.161
    1UNK    C0A   11  -0.543  -0.035   0.154
    1UNK    C0B   12  -0.691  -0.059   0.121
    1UNK    C0C   13  -0.746   0.048   0.029
    1UNK    O0D   14  -0.700   0.070  -0.083
    1UNK    C0E   15  -0.708  -0.194   0.049
    1UNK    C0F   16  -0.849  -0.220   0.017
    1UNK    N0G   17  -0.961  -0.235  -0.007
    1UNK    H0H   18   0.137   0.092  -0.103
    1UNK    H0I   19   0.139   0.015   0.057
    1UNK    H0J   20   0.140   0.193   0.042
    1UNK    H0K   21  -0.086   0.011  -0.055
    1UNK    H0M   22  -0.087   0.187  -0.057
    1UNK    H0N   23  -0.081   0.012   0.197
    1UNK    H0O   24  -0.098   0.321   0.169
    1UNK    H0P   25  -0.292   0.007   0.067
    1UNK    H0Q   26  -0.297   0.184   0.064
    1UNK    H0R   27  -0.322   0.186   0.314
    1UNK    H0S   28  -0.318   0.010   0.316
    1UNK    H0T   29  -0.545   0.184   0.429
    1UNK    H0U   30  -0.540   0.007   0.431
    1UNK    H0V   31  -0.680   0.092   0.364
    1UNK    H0W   32  -0.496   0.311   0.204
    1UNK    H0X   33  -0.653   0.242   0.168
    1UNK    H0Y   34  -0.518   0.220   0.055
    1UNK    H0Z   35  -0.506  -0.121   0.212
    1UNK    H10   36  -0.488  -0.036   0.059
    1UNK    H11   37  -0.751  -0.059   0.213
    1UNK    H12   38  -0.831   0.106   0.068
    1UNK    H13   39  -0.671  -0.275   0.113
    1UNK    H14   40  -0.649  -0.196  -0.043
   1.00000   1.00000   1.00000

