LIGPARGEN GENERATED GRO FILE
   22
    1UNK    C00    1   0.100   0.100   0.000
    1UNK    C01    2  -0.052   0.100   0.000
    1UNK    C02    3  -0.106   0.100   0.143
    1UNK    O03    4  -0.247   0.118   0.147
    1UNK    C04    5  -0.324   0.006   0.147
    1UNK    O05    6  -0.284  -0.109   0.134
    1UNK    O06    7  -0.452   0.044   0.164
    1UNK    C07    8  -0.551  -0.053   0.133
    1UNK    O08    9  -0.621  -0.104   0.246
    1UNK    C09   10  -0.546  -0.203   0.316
    1UNK    H0A   11   0.139   0.100  -0.102
    1UNK    H0B   12   0.139   0.011   0.051
    1UNK    H0C   13   0.139   0.189   0.051
    1UNK    H0D   14  -0.090   0.012  -0.054
    1UNK    H0E   15  -0.089   0.188  -0.054
    1UNK    H0F   16  -0.063   0.185   0.198
    1UNK    H0G   17  -0.076   0.009   0.197
    1UNK    H0H   18  -0.514  -0.135   0.069
    1UNK    H0I   19  -0.626  -0.000   0.073
    1UNK    H0J   20  -0.613  -0.252   0.387
    1UNK    H0K   21  -0.465  -0.155   0.372
    1UNK    H0M   22  -0.506  -0.278   0.248
   1.00000   1.00000   1.00000

