LIGPARGEN GENERATED GRO FILE
   32
    1UNK    C00    1   0.100   0.100   0.000
    1UNK    C01    2  -0.052   0.100   0.000
    1UNK    C02    3  -0.110   0.100   0.141
    1UNK    F03    4  -0.068   0.213   0.205
    1UNK    C04    5  -0.263   0.102   0.136
    1UNK    C05    6  -0.327   0.102   0.276
    1UNK    C06    7  -0.483   0.104   0.277
    1UNK    C07    8  -0.536   0.230   0.206
    1UNK    C08    9  -0.539  -0.021   0.206
    1UNK    C09   10  -0.528   0.104   0.426
    1UNK    C0A   11  -0.679   0.106   0.452
    1UNK    H0B   12   0.138   0.100  -0.103
    1UNK    H0C   13   0.139   0.011   0.051
    1UNK    H0D   14   0.139   0.189   0.050
    1UNK    H0E   15  -0.088   0.012  -0.055
    1UNK    H0F   16  -0.086   0.189  -0.054
    1UNK    H0G   17  -0.074   0.014   0.198
    1UNK    H0H   18  -0.297   0.015   0.079
    1UNK    H0I   19  -0.294   0.192   0.082
    1UNK    H0J   20  -0.290   0.189   0.331
    1UNK    H0K   21  -0.292   0.013   0.330
    1UNK    H0M   22  -0.506   0.233   0.101
    1UNK    H0N   23  -0.497   0.321   0.254
    1UNK    H0O   24  -0.645   0.235   0.207
    1UNK    H0P   25  -0.509  -0.024   0.100
    1UNK    H0Q   26  -0.648  -0.023   0.206
    1UNK    H0R   27  -0.503  -0.113   0.253
    1UNK    H0S   28  -0.484   0.191   0.477
    1UNK    H0T   29  -0.487   0.015   0.477
    1UNK    H0U   30  -0.726   0.196   0.410
    1UNK    H0V   31  -0.698   0.106   0.559
    1UNK    H0W   32  -0.728   0.018   0.410
   1.00000   1.00000   1.00000

