
;
; GENERATED BY LigParGen Server
; Jorgensen Lab @ Yale University 
;
[ atomtypes ]
  opls_818  H818     1.0080     0.000    A    2.50000E-01   1.25520E-01
  opls_814  C814    12.0110     0.000    A    3.50000E-01   2.76144E-01
  opls_824  H824     1.0080     0.000    A    2.50000E-01   1.25520E-01
  opls_811  C811    12.0110     0.000    A    3.50000E-01   2.76144E-01
  opls_809  O809    15.9990     0.000    A    2.90000E-01   5.85760E-01
  opls_813  N813    14.0070     0.000    A    3.30000E-01   7.11280E-01
  opls_804  O804    15.9990     0.000    A    2.96000E-01   8.78640E-01
  opls_828  H828     1.0080     0.000    A    2.50000E-01   1.25520E-01
  opls_812  C812    12.0110     0.000    A    3.50000E-01   2.76144E-01
  opls_806  C806    12.0110     0.000    A    3.50000E-01   2.76144E-01
  opls_827  H827     1.0080     0.000    A    2.50000E-01   1.25520E-01
  opls_801  C801    12.0110     0.000    A    3.50000E-01   2.76144E-01
  opls_822  H822     1.0080     0.000    A    2.50000E-01   1.25520E-01
  opls_825  H825     1.0080     0.000    A    2.50000E-01   1.25520E-01
  opls_830  H830     1.0080     0.000    A    2.50000E-01   1.25520E-01
  opls_821  H821     1.0080     0.000    A    2.50000E-01   1.25520E-01
  opls_820  H820     1.0080     0.000    A    2.50000E-01   1.25520E-01
  opls_829  H829     1.0080     0.000    A    2.50000E-01   1.25520E-01
  opls_831  H831     1.0080     0.000    A    2.50000E-01   1.25520E-01
  opls_832  H832     1.0080     0.000    A    2.50000E-01   1.25520E-01
  opls_816  H816     1.0080     0.000    A    2.50000E-01   1.25520E-01
  opls_800  C800    12.0110     0.000    A    3.50000E-01   2.76144E-01
  opls_808  O808    15.9990     0.000    A    2.96000E-01   8.78640E-01
  opls_815  C815    12.0110     0.000    A    3.50000E-01   2.76144E-01
  opls_823  H823     1.0080     0.000    A    2.50000E-01   1.25520E-01
  opls_805  O805    15.9990     0.000    A    2.90000E-01   5.85760E-01
  opls_826  H826     1.0080     0.000    A    2.50000E-01   1.25520E-01
  opls_819  H819     1.0080     0.000    A    2.50000E-01   1.25520E-01
  opls_810  C810    12.0110     0.000    A    3.50000E-01   2.76144E-01
  opls_802  O802    15.9990     0.000    A    2.90000E-01   5.85760E-01
  opls_807  C807    12.0110     0.000    A    3.55000E-01   2.92880E-01
  opls_803  C803    12.0110     0.000    A    3.55000E-01   2.92880E-01
  opls_817  H817     1.0080     0.000    A    2.50000E-01   1.25520E-01
[ moleculetype ]
; Name               nrexcl
UNK                   3
[ atoms ]
;   nr       type  resnr residue  atom   cgnr     charge       mass  
     1   opls_800      1    UNK   C00      1    -0.2474    12.0110 
     2   opls_801      1    UNK   C01      1     0.0893    12.0110 
     3   opls_802      1    UNK   O02      1    -0.3723    15.9990 
     4   opls_803      1    UNK   C03      1     0.5876    12.0110 
     5   opls_804      1    UNK   O04      1    -0.3863    15.9990 
     6   opls_805      1    UNK   O05      1    -0.3925    15.9990 
     7   opls_806      1    UNK   C06      1     0.1583    12.0110 
     8   opls_807      1    UNK   C07      1     0.3436    12.0110 
     9   opls_808      1    UNK   O08      1    -0.4018    15.9990 
    10   opls_809      1    UNK   O09      1    -0.3688    15.9990 
    11   opls_810      1    UNK   C0A      1     0.0604    12.0110 
    12   opls_811      1    UNK   C0B      1    -0.2529    12.0110 
    13   opls_812      1    UNK   C0C      1     0.0628    12.0110 
    14   opls_813      1    UNK   N0D      1    -0.5114    14.0070 
    15   opls_814      1    UNK   C0E      1     -0.077    12.0110 
    16   opls_815      1    UNK   C0F      1    -0.0799    12.0110 
    17   opls_816      1    UNK   H0G      1     0.1061     1.0080 
    18   opls_817      1    UNK   H0H      1     0.1061     1.0080 
    19   opls_818      1    UNK   H0I      1     0.1061     1.0080 
    20   opls_819      1    UNK   H0J      1     0.1467     1.0080 
    21   opls_820      1    UNK   H0K      1     0.1516     1.0080 
    22   opls_821      1    UNK   H0M      1     0.1434     1.0080 
    23   opls_822      1    UNK   H0N      1     0.0966     1.0080 
    24   opls_823      1    UNK   H0O      1     0.1034     1.0080 
    25   opls_824      1    UNK   H0P      1     0.1034     1.0080 
    26   opls_825      1    UNK   H0Q      1     0.1034     1.0080 
    27   opls_826      1    UNK   H0R      1      0.094     1.0080 
    28   opls_827      1    UNK   H0S      1     0.0881     1.0080 
    29   opls_828      1    UNK   H0T      1     0.0881     1.0080 
    30   opls_829      1    UNK   H0U      1     0.0881     1.0080 
    31   opls_830      1    UNK   H0V      1     0.0877     1.0080 
    32   opls_831      1    UNK   H0W      1     0.0877     1.0080 
    33   opls_832      1    UNK   H0X      2     0.0877     1.0080 
[ bonds ]
    2     1     1      0.1529 224262.400
    3     2     1      0.1410 267776.000
    4     3     1      0.1327 179075.200
    5     4     1      0.1229 476976.000
    6     4     1      0.1327 179075.200
    7     6     1      0.1380 267776.000
    8     7     1      0.1522 265265.600
    9     8     1      0.1229 476976.000
   10     7     1      0.1380 267776.000
   11    10     1      0.1410 267776.000
   12    11     1      0.1529 224262.400
   13     2     1      0.1529 224262.400
   14    13     1      0.1448 319657.600
   15    14     1      0.1448 319657.600
   16    14     1      0.1448 319657.600
   17     1     1      0.1090 284512.000
   18     1     1      0.1090 284512.000
   19     1     1      0.1090 284512.000
   20     2     1      0.1090 284512.000
   21     7     1      0.1090 284512.000
   22     8     1      0.1090 284512.000
   23    11     1      0.1090 284512.000
   24    12     1      0.1090 284512.000
   25    12     1      0.1090 284512.000
   26    12     1      0.1090 284512.000
   27    13     1      0.1090 284512.000
   28    15     1      0.1090 284512.000
   29    15     1      0.1090 284512.000
   30    15     1      0.1090 284512.000
   31    16     1      0.1090 284512.000
   32    16     1      0.1090 284512.000
   33    16     1      0.1090 284512.000
   13    11     1      0.1529 224262.400

[ angles ]
;  ai    aj    ak funct            c0            c1            c2            c3 
    1     2     3     1    109.500    418.400
    2     3     4     1    116.900    694.544
    3     4     5     1    123.400    694.544
    3     4     6     1    118.180    584.923
    4     6     7     1    116.900    694.544
    6     7     8     1    109.500    418.400
    7     8     9     1    120.400    669.440
    6     7    10     1    111.550    774.877
    7    10    11     1    109.500    502.080
   10    11    12     1    109.500    418.400
    1     2    13     1    112.700    488.273
    2    13    14     1    109.470    470.282
   13    14    15     1    107.200    433.462
   13    14    16     1    107.200    433.462
    2     1    17     1    110.700    313.800
    2     1    18     1    110.700    313.800
    2     1    19     1    110.700    313.800
    1     2    20     1    110.700    313.800
    6     7    21     1    109.500    292.880
    7     8    22     1    115.000    292.880
   10    11    23     1    109.500    292.880
   11    12    24     1    110.700    313.800
   11    12    25     1    110.700    313.800
   11    12    26     1    110.700    313.800
    2    13    27     1    110.700    313.800
   14    15    28     1    109.500    292.880
   14    15    29     1    109.500    292.880
   14    15    30     1    109.500    292.880
   14    16    31     1    109.500    292.880
   14    16    32     1    109.500    292.880
   14    16    33     1    109.500    292.880
   14    13    27     1    109.500    292.880
    5     4     6     1    123.400    694.544
    3     2    20     1    109.500    292.880
   24    12    26     1    107.800    276.144
   15    14    16     1    107.200    433.462
   28    15    30     1    107.800    276.144
   31    16    33     1    107.800    276.144
    8     7    10     1    109.500    418.400
   31    16    32     1    107.800    276.144
    2    13    11     1    112.700    488.273
   32    16    33     1    107.800    276.144
   17     1    18     1    107.800    276.144
   11    13    14     1    109.470    470.282
   24    12    25     1    107.800    276.144
   10     7    21     1    109.500    292.880
   18     1    19     1    107.800    276.144
   25    12    26     1    107.800    276.144
   29    15    30     1    107.800    276.144
   17     1    19     1    107.800    276.144
   28    15    29     1    107.800    276.144
   11    13    27     1    110.700    313.800
   13     2    20     1    110.700    313.800
   13    11    23     1    110.700    313.800
    9     8    22     1    123.000    292.880
    3     2    13     1    109.500    418.400
    8     7    21     1    109.500    292.880
   12    11    13     1    112.700    488.273
   12    11    23     1    110.700    313.800
   10    11    13     1    109.500    418.400

[ dihedrals ]
; IMPROPER DIHEDRAL ANGLES 
;  ai    aj    ak    al funct            c0            c1            c2            c3            c4            c5
    22     8     7     9    4        180.000     43.932     2  
     6     4     3     5    4        180.000     43.932     2  

[ dihedrals ]
; PROPER DIHEDRAL ANGLES
;  ai    aj    ak    al funct            c0            c1            c2            c3            c4            c5
    8    7    6    4        3       1.715   2.845   1.046  -5.607  -0.000   0.000
    4    3    2    1        3      -2.197   5.201   0.527  -3.531  -0.000   0.000
    7    6    4    5        3      21.439   0.000  -21.439  -0.000  -0.000   0.000
    7    6    4    3        3      31.206  -9.768  -21.439  -0.000  -0.000   0.000
   12   11   13    2        3       2.301  -1.464   0.837  -1.674  -0.000   0.000
   11   13    2    1        3       2.301  -1.464   0.837  -1.674  -0.000   0.000
   11   13    2    3        3       2.874   0.582   2.092  -5.548  -0.000   0.000
   13    2    3    4        3      -2.197   5.201   0.527  -3.531  -0.000   0.000
   13   11   10    7        3       1.715   2.845   1.046  -5.607  -0.000   0.000
   12   11   10    7        3       1.715   2.845   1.046  -5.607  -0.000   0.000
   16   14   13   11        3       1.789   3.492   0.536  -5.816  -0.000   0.000
   15   14   13    2        3       1.789   3.492   0.536  -5.816  -0.000   0.000
   15   14   13   11        3       1.789   3.492   0.536  -5.816  -0.000   0.000
   16   14   13    2        3       1.789   3.492   0.536  -5.816  -0.000   0.000
   11   10    7    8        3       1.715   2.845   1.046  -5.607  -0.000   0.000
   11   10    7    6        3      -6.458   0.810   5.682  -0.033  -0.000   0.000
   22    8    7   21        3       0.628   1.883   0.000  -2.510  -0.000   0.000
   22    8    7    6        3       0.979   2.937   0.000  -3.916  -0.000   0.000
   22    8    7   10        3       0.979   2.937   0.000  -3.916  -0.000   0.000
   21    7    8    9        3       0.000   0.000   0.000  -0.000  -0.000   0.000
   21    7    6    4        3       1.590   4.770   0.000  -6.360  -0.000   0.000
   21    7   10   11        3       1.590   4.770   0.000  -6.360  -0.000   0.000
   25   12   11   13        3       0.628   1.883   0.000  -2.510  -0.000   0.000
   23   11   13    2        3       0.628   1.883   0.000  -2.510  -0.000   0.000
   20    2   13   11        3       0.628   1.883   0.000  -2.510  -0.000   0.000
   27   13    2    1        3       0.628   1.883   0.000  -2.510  -0.000   0.000
   24   12   11   13        3       0.628   1.883   0.000  -2.510  -0.000   0.000
   27   13   11   12        3       0.628   1.883   0.000  -2.510  -0.000   0.000
   18    1    2   13        3       0.628   1.883   0.000  -2.510  -0.000   0.000
   19    1    2   13        3       0.628   1.883   0.000  -2.510  -0.000   0.000
   26   12   11   13        3       0.628   1.883   0.000  -2.510  -0.000   0.000
   17    1    2   13        3       0.628   1.883   0.000  -2.510  -0.000   0.000
   26   12   11   23        3       0.628   1.883   0.000  -2.510  -0.000   0.000
   20    2    1   18        3       0.628   1.883   0.000  -2.510  -0.000   0.000
   24   12   11   23        3       0.628   1.883   0.000  -2.510  -0.000   0.000
   20    2    1   19        3       0.628   1.883   0.000  -2.510  -0.000   0.000
   27   13   11   23        3       0.628   1.883   0.000  -2.510  -0.000   0.000
   25   12   11   23        3       0.628   1.883   0.000  -2.510  -0.000   0.000
   27   13    2   20        3       0.628   1.883   0.000  -2.510  -0.000   0.000
   20    2    1   17        3       0.628   1.883   0.000  -2.510  -0.000   0.000
   23   11   13   14        3      -4.096   5.088   2.966  -3.958  -0.000   0.000
   20    2   13   14        3      -4.096   5.088   2.966  -3.958  -0.000   0.000
   19    1    2    3        3       0.979   2.937   0.000  -3.916  -0.000   0.000
   18    1    2    3        3       0.979   2.937   0.000  -3.916  -0.000   0.000
   17    1    2    3        3       0.979   2.937   0.000  -3.916  -0.000   0.000
   27   13    2    3        3       0.979   2.937   0.000  -3.916  -0.000   0.000
   25   12   11   10        3       0.979   2.937   0.000  -3.916  -0.000   0.000
   24   12   11   10        3       0.979   2.937   0.000  -3.916  -0.000   0.000
   27   13   11   10        3       0.979   2.937   0.000  -3.916  -0.000   0.000
   26   12   11   10        3       0.979   2.937   0.000  -3.916  -0.000   0.000
   30   15   14   13        3       1.172   3.515   0.000  -4.686  -0.000   0.000
   32   16   14   15        3       1.172   3.515   0.000  -4.686  -0.000   0.000
   33   16   14   15        3       1.172   3.515   0.000  -4.686  -0.000   0.000
   32   16   14   13        3       1.172   3.515   0.000  -4.686  -0.000   0.000
   28   15   14   16        3       1.172   3.515   0.000  -4.686  -0.000   0.000
   28   15   14   13        3       1.172   3.515   0.000  -4.686  -0.000   0.000
   31   16   14   13        3       1.172   3.515   0.000  -4.686  -0.000   0.000
   30   15   14   16        3       1.172   3.515   0.000  -4.686  -0.000   0.000
   31   16   14   15        3       1.172   3.515   0.000  -4.686  -0.000   0.000
   33   16   14   13        3       1.172   3.515   0.000  -4.686  -0.000   0.000
   29   15   14   16        3       1.172   3.515   0.000  -4.686  -0.000   0.000
   29   15   14   13        3       1.172   3.515   0.000  -4.686  -0.000   0.000
   27   13   14   15        3       1.172   3.515   0.000  -4.686  -0.000   0.000
   27   13   14   16        3       1.172   3.515   0.000  -4.686  -0.000   0.000
   20    2    3    4        3       0.414   1.243   0.000  -1.657  -0.000   0.000
   23   11   10    7        3       1.590   4.770   0.000  -6.360  -0.000   0.000
   14   13    2    1        3       3.335  -1.552   2.820  -4.602  -0.000   0.000
   14   13   11   12        3       3.335  -1.552   2.820  -4.602  -0.000   0.000
   14   13   11   10        3      16.736  -16.736   0.000  -0.000  -0.000   0.000
   14   13    2    3        3      16.736  -16.736   0.000  -0.000  -0.000   0.000
    9    8    7    6        3       4.707   1.569  -6.276  -0.000  -0.000   0.000
    5    4    3    2        3      21.439   0.000  -21.439  -0.000  -0.000   0.000
    6    4    3    2        3      31.206  -9.768  -21.439  -0.000  -0.000   0.000
   10    7    8    9        3       4.707   1.569  -6.276  -0.000  -0.000   0.000
   10    7    6    4        3      -6.458   0.810   5.682  -0.033  -0.000   0.000
   10   11   13    2        3       2.874   0.582   2.092  -5.548  -0.000   0.000

[ pairs ]
     1     4    1
     2     5    1
     2     6    1
     3     7    1
     5     7    1
     4     8    1
     2    10    1
     1    11    1
     4    10    1
     3    11    1
     2    12    1
     6     9    1
     1    14    1
     6    11    1
     4    13    1
     3    14    1
     2    15    1
     2    16    1
     9    10    1
     8    11    1
     7    12    1
     7    13    1
     3    17    1
     3    18    1
     3    19    1
    10    14    1
     4    20    1
     4    21    1
     2    23    1
    12    14    1
    11    15    1
    11    16    1
     6    22    1
     1    27    1
    13    17    1
     9    21    1
     7    23    1
     3    27    1
    13    18    1
    11    20    1
    13    19    1
    11    21    1
    10    22    1
    14    20    1
    10    24    1
    10    25    1
    10    26    1
    17    20    1
    14    23    1
    13    24    1
    10    27    1
    18    20    1
    13    25    1
    19    20    1
    13    26    1
    12    27    1
    13    28    1
    15    27    1
    13    29    1
    21    22    1
    16    27    1
    13    30    1
    16    28    1
    13    31    1
    16    29    1
    13    32    1
    16    30    1
    15    31    1
    13    33    1
    23    24    1
    20    27    1
    15    32    1
    23    25    1
    15    33    1
    23    26    1
    23    27    1

