LIGPARGEN GENERATED GRO FILE
   33
    1UNK    C00    1   0.100   0.100   0.000
    1UNK    C01    2  -0.052   0.100   0.000
    1UNK    O02    3  -0.085   0.100   0.143
    1UNK    C03    4  -0.181   0.019   0.194
    1UNK    O04    5  -0.229   0.033   0.306
    1UNK    O05    6  -0.223  -0.075   0.106
    1UNK    C06    7  -0.344  -0.035   0.044
    1UNK    C07    8  -0.407  -0.163  -0.006
    1UNK    O08    9  -0.518  -0.204   0.029
    1UNK    O09   10  -0.318   0.046  -0.071
    1UNK    C0A   11  -0.288   0.183  -0.040
    1UNK    C0B   12  -0.401   0.264  -0.103
    1UNK    C0C   13  -0.134   0.220  -0.068
    1UNK    N0D   14  -0.096   0.257  -0.209
    1UNK    C0E   15  -0.170   0.375  -0.259
    1UNK    C0F   16   0.046   0.295  -0.222
    1UNK    H0G   17   0.138   0.032   0.077
    1UNK    H0H   18   0.141   0.199   0.023
    1UNK    H0I   19   0.140   0.063  -0.094
    1UNK    H0J   20  -0.080   0.005  -0.048
    1UNK    H0K   21  -0.415   0.014   0.113
    1UNK    H0M   22  -0.346  -0.221  -0.078
    1UNK    H0N   23  -0.303   0.201   0.068
    1UNK    H0O   24  -0.416   0.237  -0.208
    1UNK    H0P   25  -0.386   0.372  -0.091
    1UNK    H0Q   26  -0.496   0.238  -0.054
    1UNK    H0R   27  -0.115   0.309  -0.006
    1UNK    H0S   28  -0.272   0.351  -0.287
    1UNK    H0T   29  -0.127   0.413  -0.352
    1UNK    H0U   30  -0.169   0.458  -0.187
    1UNK    H0V   31   0.111   0.208  -0.222
    1UNK    H0W   32   0.077   0.366  -0.145
    1UNK    H0X   33   0.067   0.341  -0.320
   1.00000   1.00000   1.00000

