
;
; GENERATED BY LigParGen Server
; Jorgensen Lab @ Yale University 
;
[ atomtypes ]
  opls_807  O807    15.9990     0.000    A    2.96000E-01   8.78640E-01
  opls_818  H818     1.0080     0.000    A    2.50000E-01   1.25520E-01
  opls_824  H824     1.0080     0.000    A    2.50000E-01   1.25520E-01
  opls_805  C805    12.0110     0.000    A    3.50000E-01   2.76144E-01
  opls_813  H813     1.0080     0.000    A    2.50000E-01   1.25520E-01
  opls_801  O801    15.9990     0.000    A    2.90000E-01   5.85760E-01
  opls_803  O803    15.9990     0.000    A    2.96000E-01   8.78640E-01
  opls_811  C811    12.0110     0.000    A    3.50000E-01   2.76144E-01
  opls_815  H815     1.0080     0.000    A    2.50000E-01   1.25520E-01
  opls_812  C812    12.0110     0.000    A    3.50000E-01   2.76144E-01
  opls_822  H822     1.0080     0.000    A    2.50000E-01   1.25520E-01
  opls_814  H814     1.0080     0.000    A    2.50000E-01   1.25520E-01
  opls_809  O809    15.9990     0.000    A    2.96000E-01   8.78640E-01
  opls_821  H821     1.0080     0.000    A    2.50000E-01   1.25520E-01
  opls_820  H820     1.0080     0.000    A    2.50000E-01   1.25520E-01
  opls_816  H816     1.0080     0.000    A    2.50000E-01   1.25520E-01
  opls_800  C800    12.0110     0.000    A    3.50000E-01   2.76144E-01
  opls_823  H823     1.0080     0.000    A    2.50000E-01   1.25520E-01
  opls_802  C802    12.0110     0.000    A    3.55000E-01   2.92880E-01
  opls_806  C806    12.0110     0.000    A    3.55000E-01   2.92880E-01
  opls_819  H819     1.0080     0.000    A    2.50000E-01   1.25520E-01
  opls_810  C810    12.0110     0.000    A    3.50000E-01   2.76144E-01
  opls_817  H817     1.0080     0.000    A    2.50000E-01   1.25520E-01
  opls_804  O804    15.9990     0.000    A    2.90000E-01   5.85760E-01
  opls_808  C808    12.0110     0.000    A    3.55000E-01   2.92880E-01
[ moleculetype ]
; Name               nrexcl
UNK                   3
[ atoms ]
;   nr       type  resnr residue  atom   cgnr     charge       mass  
     1   opls_800      1    UNK   C00      1    -0.0445    12.0110 
     2   opls_801      1    UNK   O01      1    -0.3066    15.9990 
     3   opls_802      1    UNK   C02      1     0.5741    12.0110 
     4   opls_803      1    UNK   O03      1    -0.4984    15.9990 
     5   opls_804      1    UNK   O04      1    -0.2944    15.9990 
     6   opls_805      1    UNK   C05      1    -0.0277    12.0110 
     7   opls_806      1    UNK   C06      1     0.2986    12.0110 
     8   opls_807      1    UNK   O07      1    -0.3826    15.9990 
     9   opls_808      1    UNK   C08      1     0.3348    12.0110 
    10   opls_809      1    UNK   O09      1    -0.4109    15.9990 
    11   opls_810      1    UNK   C0A      1    -0.1548    12.0110 
    12   opls_811      1    UNK   C0B      1    -0.2345    12.0110 
    13   opls_812      1    UNK   C0C      1     -0.242    12.0110 
    14   opls_813      1    UNK   H0D      1       0.11     1.0080 
    15   opls_814      1    UNK   H0E      1       0.11     1.0080 
    16   opls_815      1    UNK   H0F      1       0.11     1.0080 
    17   opls_816      1    UNK   H0G      1     0.1628     1.0080 
    18   opls_817      1    UNK   H0H      1     0.1628     1.0080 
    19   opls_818      1    UNK   H0I      1     0.1471     1.0080 
    20   opls_819      1    UNK   H0J      1     0.0955     1.0080 
    21   opls_820      1    UNK   H0K      1     0.0955     1.0080 
    22   opls_821      1    UNK   H0M      1     0.0955     1.0080 
    23   opls_822      1    UNK   H0N      1     0.0998     1.0080 
    24   opls_823      1    UNK   H0O      1     0.0998     1.0080 
    25   opls_824      1    UNK   H0P      1     0.0998     1.0080 
[ bonds ]
    2     1     1      0.1410 267776.000
    3     2     1      0.1327 179075.200
    4     3     1      0.1229 476976.000
    5     3     1      0.1327 179075.200
    6     5     1      0.1410 267776.000
    7     6     1      0.1522 265265.600
    8     7     1      0.1229 476976.000
    9     7     1      0.1510 292880.000
   10     9     1      0.1229 476976.000
   11     9     1      0.1522 265265.600
   12    11     1      0.1529 224262.400
   13    11     1      0.1529 224262.400
   14     1     1      0.1090 284512.000
   15     1     1      0.1090 284512.000
   16     1     1      0.1090 284512.000
   17     6     1      0.1090 284512.000
   18     6     1      0.1090 284512.000
   19    11     1      0.1090 284512.000
   20    12     1      0.1090 284512.000
   21    12     1      0.1090 284512.000
   22    12     1      0.1090 284512.000
   23    13     1      0.1090 284512.000
   24    13     1      0.1090 284512.000
   25    13     1      0.1090 284512.000

[ angles ]
;  ai    aj    ak funct            c0            c1            c2            c3 
    1     2     3     1    116.900    694.544
    2     3     4     1    123.400    694.544
    2     3     5     1    118.180    584.923
    3     5     6     1    116.900    694.544
    5     6     7     1    109.500    418.400
    6     7     8     1    120.400    669.440
    6     7     9     1    117.200    669.440
    7     9    10     1    121.400    669.440
    7     9    11     1    117.200    669.440
    9    11    12     1    111.100    527.184
    9    11    13     1    111.100    527.184
    2     1    14     1    109.500    292.880
    2     1    15     1    109.500    292.880
    2     1    16     1    109.500    292.880
    5     6    17     1    109.500    292.880
    5     6    18     1    109.500    292.880
    9    11    19     1    109.500    292.880
   11    12    20     1    110.700    313.800
   11    12    21     1    110.700    313.800
   11    12    22     1    110.700    313.800
   11    13    23     1    110.700    313.800
   11    13    24     1    110.700    313.800
   11    13    25     1    110.700    313.800
    7     6    17     1    109.500    292.880
   20    12    22     1    107.800    276.144
    7     6    18     1    109.500    292.880
   20    12    21     1    107.800    276.144
   14     1    16     1    107.800    276.144
   17     6    18     1    107.800    276.144
   12    11    19     1    110.700    313.800
   13    11    19     1    110.700    313.800
   24    13    25     1    107.800    276.144
   23    13    25     1    107.800    276.144
    8     7     9     1    121.400    669.440
   15     1    16     1    107.800    276.144
   14     1    15     1    107.800    276.144
   10     9    11     1    120.400    669.440
   12    11    13     1    112.700    488.273
   23    13    24     1    107.800    276.144
   21    12    22     1    107.800    276.144
    4     3     5     1    123.400    694.544

[ dihedrals ]
; IMPROPER DIHEDRAL ANGLES 
;  ai    aj    ak    al funct            c0            c1            c2            c3            c4            c5
     9     7     6     8    4        180.000     43.932     2  
    11     9     7    10    4        180.000     43.932     2  
     5     3     2     4    4        180.000     43.932     2  

[ dihedrals ]
; PROPER DIHEDRAL ANGLES
;  ai    aj    ak    al funct            c0            c1            c2            c3            c4            c5
    9    7    6    5        3      -12.929  12.929   0.000  -0.000  -0.000   0.000
    7    6    5    3        3      -2.197   5.201   0.527  -3.531  -0.000   0.000
   11    9    7    6        3      -4.812  -1.464   6.276  -0.000  -0.000   0.000
   11    9    7    8        3       2.092   0.000  -2.092  -0.000  -0.000   0.000
   13   11    9    7        3       0.000   0.000   0.000  -0.000  -0.000   0.000
   12   11    9    7        3       0.000   0.000   0.000  -0.000  -0.000   0.000
   12   11    9   10        3       0.000   0.000   0.000  -0.000  -0.000   0.000
   13   11    9   10        3       0.000   0.000   0.000  -0.000  -0.000   0.000
    6    5    3    4        3      21.439   0.000  -21.439  -0.000  -0.000   0.000
    6    5    3    2        3      31.206  -9.768  -21.439  -0.000  -0.000   0.000
   18    6    7    9        3       0.178   0.533   0.000  -0.711  -0.000   0.000
   17    6    7    9        3       0.178   0.533   0.000  -0.711  -0.000   0.000
   19   11    9    7        3       0.178   0.533   0.000  -0.711  -0.000   0.000
   19   11    9   10        3       0.000   0.000   0.000  -0.000  -0.000   0.000
   17    6    7    8        3       0.000   0.000   0.000  -0.000  -0.000   0.000
   18    6    7    8        3       0.000   0.000   0.000  -0.000  -0.000   0.000
   23   13   11    9        3      -0.209  -0.628   0.000   0.837  -0.000   0.000
   21   12   11    9        3      -0.209  -0.628   0.000   0.837  -0.000   0.000
   24   13   11    9        3      -0.209  -0.628   0.000   0.837  -0.000   0.000
   22   12   11    9        3      -0.209  -0.628   0.000   0.837  -0.000   0.000
   20   12   11    9        3      -0.209  -0.628   0.000   0.837  -0.000   0.000
   25   13   11    9        3      -0.209  -0.628   0.000   0.837  -0.000   0.000
   25   13   11   12        3       0.628   1.883   0.000  -2.510  -0.000   0.000
   20   12   11   13        3       0.628   1.883   0.000  -2.510  -0.000   0.000
   24   13   11   12        3       0.628   1.883   0.000  -2.510  -0.000   0.000
   23   13   11   12        3       0.628   1.883   0.000  -2.510  -0.000   0.000
   22   12   11   13        3       0.628   1.883   0.000  -2.510  -0.000   0.000
   21   12   11   13        3       0.628   1.883   0.000  -2.510  -0.000   0.000
   21   12   11   19        3       0.628   1.883   0.000  -2.510  -0.000   0.000
   20   12   11   19        3       0.628   1.883   0.000  -2.510  -0.000   0.000
   25   13   11   19        3       0.628   1.883   0.000  -2.510  -0.000   0.000
   23   13   11   19        3       0.628   1.883   0.000  -2.510  -0.000   0.000
   22   12   11   19        3       0.628   1.883   0.000  -2.510  -0.000   0.000
   24   13   11   19        3       0.628   1.883   0.000  -2.510  -0.000   0.000
   18    6    5    3        3       0.414   1.243   0.000  -1.657  -0.000   0.000
   15    1    2    3        3       0.414   1.243   0.000  -1.657  -0.000   0.000
   14    1    2    3        3       0.414   1.243   0.000  -1.657  -0.000   0.000
   17    6    5    3        3       0.414   1.243   0.000  -1.657  -0.000   0.000
   16    1    2    3        3       0.414   1.243   0.000  -1.657  -0.000   0.000
   10    9    7    6        3       2.092   0.000  -2.092  -0.000  -0.000   0.000
   10    9    7    8        3      16.736  -3.347  -13.389  -0.000  -0.000   0.000
    8    7    6    5        3       0.000   0.000   0.000  -0.000  -0.000   0.000
    4    3    2    1        3      21.439   0.000  -21.439  -0.000  -0.000   0.000
    5    3    2    1        3      31.206  -9.768  -21.439  -0.000  -0.000   0.000

[ pairs ]
     1     4    1
     1     5    1
     2     6    1
     4     6    1
     3     7    1
     5     8    1
     5     9    1
     6    10    1
     6    11    1
     3    14    1
     8    10    1
     3    15    1
     8    11    1
     7    12    1
     3    16    1
     7    13    1
     3    17    1
     3    18    1
    10    12    1
    10    13    1
     8    17    1
     9    17    1
     8    18    1
     7    19    1
     9    18    1
    10    19    1
     9    20    1
     9    21    1
     9    22    1
     9    23    1
    13    20    1
     9    24    1
    13    21    1
     9    25    1
    13    22    1
    12    23    1
    12    24    1
    12    25    1
    19    20    1
    19    21    1
    19    22    1
    19    23    1
    19    24    1
    19    25    1

