LIGPARGEN GENERATED GRO FILE
   40
    1UNK    C00    1   0.100   0.100   0.000
    1UNK    C01    2  -0.052   0.100   0.000
    1UNK    C02    3  -0.120   0.100   0.138
    1UNK    C03    4  -0.229   0.196   0.079
    1UNK    C04    5  -0.357   0.129   0.028
    1UNK    C05    6  -0.435   0.055   0.139
    1UNK    C06    7  -0.445   0.127   0.273
    1UNK    C07    8  -0.575   0.036   0.077
    1UNK    C08    9  -0.582  -0.086  -0.015
    1UNK    C09   10  -0.599   0.167   0.001
    1UNK    C0A   11  -0.461   0.224  -0.040
    1UNK    C0B   12  -0.452   0.372   0.003
    1UNK    C0C   13  -0.447   0.219  -0.194
    1UNK    C0D   14  -0.121   0.236  -0.026
    1UNK    H0E   15   0.138   0.003   0.033
    1UNK    H0F   16   0.140   0.176   0.067
    1UNK    H0G   17   0.139   0.119  -0.101
    1UNK    H0H   18  -0.090   0.020  -0.065
    1UNK    H0I   19  -0.061   0.147   0.218
    1UNK    H0J   20  -0.154   0.002   0.173
    1UNK    H0K   21  -0.251   0.278   0.149
    1UNK    H0M   22  -0.328   0.053  -0.046
    1UNK    H0N   23  -0.388  -0.043   0.158
    1UNK    H0O   24  -0.491   0.226   0.265
    1UNK    H0P   25  -0.346   0.139   0.319
    1UNK    H0Q   26  -0.506   0.069   0.343
    1UNK    H0R   27  -0.651   0.022   0.154
    1UNK    H0S   28  -0.510  -0.080  -0.098
    1UNK    H0T   29  -0.682  -0.095  -0.059
    1UNK    H0U   30  -0.561  -0.177   0.041
    1UNK    H0V   31  -0.651   0.237   0.069
    1UNK    H0W   32  -0.666   0.152  -0.084
    1UNK    H0X   33  -0.460   0.384   0.111
    1UNK    H0Y   34  -0.533   0.430  -0.043
    1UNK    H0Z   35  -0.357   0.417  -0.029
    1UNK    H10   36  -0.457   0.117  -0.231
    1UNK    H11   37  -0.351   0.258  -0.227
    1UNK    H12   38  -0.526   0.279  -0.242
    1UNK    H13   39  -0.062   0.323   0.004
    1UNK    H14   40  -0.154   0.251  -0.129
   1.00000   1.00000   1.00000

