LIGPARGEN GENERATED GRO FILE
   39
    1UNK    C00    1   0.100   0.100   0.000
    1UNK    C01    2  -0.052   0.100   0.000
    1UNK    C02    3  -0.107   0.100   0.142
    1UNK    S03    4  -0.286   0.100   0.144
    1UNK    O04    5  -0.331   0.222   0.079
    1UNK    O05    6  -0.331  -0.030   0.098
    1UNK    C06    7  -0.328   0.115   0.317
    1UNK    C07    8  -0.275  -0.001   0.401
    1UNK    C08    9  -0.311   0.011   0.549
    1UNK    C09   10  -0.251  -0.104   0.631
    1UNK    C0A   11  -0.099  -0.108   0.626
    1UNK    C0B   12  -0.064  -0.180   0.752
    1UNK    O0C   13   0.044  -0.232   0.775
    1UNK    O0D   14  -0.167  -0.173   0.840
    1UNK    C0E   15  -0.279  -0.103   0.782
    1UNK    C0F   16  -0.286   0.036   0.846
    1UNK    C0G   17  -0.404  -0.183   0.817
    1UNK    H0H   18   0.138   0.100  -0.103
    1UNK    H0I   19   0.139   0.011   0.051
    1UNK    H0J   20   0.139   0.189   0.051
    1UNK    H0K   21  -0.088   0.012  -0.054
    1UNK    H0M   22  -0.088   0.188  -0.055
    1UNK    H0N   23  -0.074   0.189   0.197
    1UNK    H0O   24  -0.073   0.011   0.195
    1UNK    H0P   25  -0.438   0.119   0.323
    1UNK    H0Q   26  -0.288   0.210   0.352
    1UNK    H0R   27  -0.166  -0.005   0.391
    1UNK    H0S   28  -0.314  -0.096   0.362
    1UNK    H0T   29  -0.420   0.012   0.561
    1UNK    H0U   30  -0.274   0.108   0.586
    1UNK    H0V   31  -0.287  -0.198   0.589
    1UNK    H0W   32  -0.054  -0.008   0.628
    1UNK    H0X   33  -0.064  -0.164   0.539
    1UNK    H0Y   34  -0.198   0.096   0.820
    1UNK    H0Z   35  -0.286   0.028   0.955
    1UNK    H10   36  -0.376   0.090   0.815
    1UNK    H11   37  -0.394  -0.288   0.784
    1UNK    H12   38  -0.494  -0.141   0.771
    1UNK    H13   39  -0.419  -0.187   0.925
   1.00000   1.00000   1.00000

