LIGPARGEN GENERATED GRO FILE
   33
    1UNK    C00    1   0.100   0.100   0.000
    1UNK    C01    2  -0.055   0.100   0.000
    1UNK    C02    3  -0.115   0.100   0.141
    1UNK    C03    4  -0.268   0.116   0.156
    1UNK    C04    5  -0.353   0.222   0.080
    1UNK    C05    6  -0.414   0.171  -0.056
    1UNK    C06    7  -0.335   0.069  -0.141
    1UNK    C07    8  -0.187   0.102  -0.171
    1UNK    C08    9  -0.097  -0.005  -0.105
    1UNK    C09   10  -0.109   0.212  -0.090
    1UNK    C0A   11  -0.082   0.353  -0.034
    1UNK    O0B   12  -0.160   0.380   0.085
    1UNK    C0C   13  -0.300   0.369   0.069
    1UNK    H0D   14   0.140  -0.000   0.014
    1UNK    H0E   15   0.140   0.163   0.080
    1UNK    H0F   16   0.141   0.138  -0.096
    1UNK    H0G   17  -0.067   0.179   0.200
    1UNK    H0H   18  -0.086   0.006   0.191
    1UNK    H0I   19  -0.284   0.136   0.263
    1UNK    H0J   20  -0.314   0.017   0.139
    1UNK    H0K   21  -0.444   0.233   0.142
    1UNK    H0M   22  -0.441   0.257  -0.119
    1UNK    H0N   23  -0.509   0.123  -0.032
    1UNK    H0O   24  -0.387   0.059  -0.237
    1UNK    H0P   25  -0.345  -0.029  -0.093
    1UNK    H0Q   26  -0.171   0.114  -0.278
    1UNK    H0R   27  -0.018  -0.039  -0.173
    1UNK    H0S   28  -0.145  -0.094  -0.065
    1UNK    H0T   29  -0.209   0.256  -0.089
    1UNK    H0U   30  -0.102   0.432  -0.108
    1UNK    H0V   31   0.024   0.363  -0.003
    1UNK    H0W   32  -0.330   0.418  -0.025
    1UNK    H0X   33  -0.346   0.429   0.149
   1.00000   1.00000   1.00000

