LIGPARGEN GENERATED GRO FILE
   34
    1UNK    C00    1   0.100   0.100   0.000
    1UNK    C01    2  -0.053   0.100   0.000
    1UNK    C02    3  -0.104   0.100   0.144
    1UNK    C03    4  -0.117   0.215  -0.082
    1UNK    C04    5  -0.085   0.358  -0.030
    1UNK    C05    6  -0.152   0.466  -0.118
    1UNK    C06    7  -0.110   0.436  -0.256
    1UNK    C07    8  -0.165   0.435  -0.392
    1UNK    C08    9  -0.272   0.537  -0.419
    1UNK    C09   10  -0.183   0.308  -0.305
    1UNK    C0A   11  -0.329   0.266  -0.301
    1UNK    C0B   12  -0.091   0.201  -0.238
    1UNK    H0C   13   0.138   0.015   0.058
    1UNK    H0D   14   0.141   0.191   0.045
    1UNK    H0E   15   0.140   0.090  -0.102
    1UNK    H0F   16  -0.085   0.005  -0.045
    1UNK    H0G   17  -0.068   0.186   0.201
    1UNK    H0H   18  -0.072   0.009   0.197
    1UNK    H0I   19  -0.214   0.102   0.147
    1UNK    H0J   20  -0.224   0.202  -0.067
    1UNK    H0K   21   0.025   0.374  -0.032
    1UNK    H0M   22  -0.117   0.371   0.074
    1UNK    H0N   23  -0.116   0.566  -0.088
    1UNK    H0O   24  -0.261   0.465  -0.105
    1UNK    H0P   25  -0.001   0.443  -0.260
    1UNK    H0Q   26  -0.098   0.427  -0.476
    1UNK    H0R   27  -0.338   0.554  -0.333
    1UNK    H0S   28  -0.334   0.506  -0.504
    1UNK    H0T   29  -0.226   0.634  -0.444
    1UNK    H0U   30  -0.398   0.336  -0.349
    1UNK    H0V   31  -0.367   0.249  -0.200
    1UNK    H0W   32  -0.339   0.172  -0.357
    1UNK    H0X   33   0.015   0.215  -0.262
    1UNK    H0Y   34  -0.119   0.100  -0.271
   1.00000   1.00000   1.00000

