LIGPARGEN GENERATED GRO FILE
   32
    1UNK    C00    1   0.100   0.100   0.000
    1UNK    C01    2  -0.052   0.100   0.000
    1UNK    C02    3  -0.111   0.100   0.142
    1UNK    C03    4  -0.265   0.106   0.144
    1UNK    C04    5  -0.328  -0.019   0.079
    1UNK    C05    6  -0.480  -0.015   0.069
    1UNK    C06    7  -0.533  -0.136  -0.005
    1UNK    C07    8  -0.319   0.135   0.285
    1UNK    P08    9  -0.285   0.012   0.416
    1UNK    H09   10  -0.155   0.065   0.414
    1UNK    C0A   11  -0.390   0.120   0.536
    1UNK    O0B   12  -0.257  -0.093   0.527
    1UNK    H0C   13   0.137   0.100  -0.103
    1UNK    H0D   14   0.139   0.011   0.050
    1UNK    H0E   15   0.140   0.189   0.050
    1UNK    H0F   16  -0.085   0.012  -0.055
    1UNK    H0G   17  -0.088   0.188  -0.055
    1UNK    H0H   18  -0.071   0.187   0.196
    1UNK    H0I   19  -0.077   0.011   0.196
    1UNK    H0J   20  -0.294   0.193   0.082
    1UNK    H0K   21  -0.297  -0.108   0.134
    1UNK    H0M   22  -0.290  -0.029  -0.023
    1UNK    H0N   23  -0.512   0.076   0.017
    1UNK    H0O   24  -0.526  -0.012   0.169
    1UNK    H0P   25  -0.489  -0.145  -0.104
    1UNK    H0Q   26  -0.642  -0.129  -0.017
    1UNK    H0R   27  -0.511  -0.228   0.051
    1UNK    H0S   28  -0.427   0.150   0.280
    1UNK    H0T   29  -0.276   0.231   0.318
    1UNK    H0U   30  -0.394   0.224   0.505
    1UNK    H0V   31  -0.344   0.114   0.635
    1UNK    H0W   32  -0.490   0.076   0.539
   1.00000   1.00000   1.00000

