
;
; GENERATED BY LigParGen Server
; Jorgensen Lab @ Yale University 
;
[ atomtypes ]
  opls_818  H818     1.0080     0.000    A    2.50000E-01   1.25520E-01
  opls_807  F807    18.9984     0.000    A    2.90000E-01   2.51040E-01
  opls_804  O804    15.9990     0.000    A    2.90000E-01   5.85760E-01
  opls_805  C805    12.0110     0.000    A    3.50000E-01   2.76144E-01
  opls_828  H828     1.0080     0.000    A    2.50000E-01   1.25520E-01
  opls_812  O812    15.9990     0.000    A    2.90000E-01   5.85760E-01
  opls_815  O815    15.9990     0.000    A    2.90000E-01   5.85760E-01
  opls_802  C802    12.0110     0.000    A    3.50000E-01   2.76144E-01
  opls_827  H827     1.0080     0.000    A    2.50000E-01   1.25520E-01
  opls_801  C801    12.0110     0.000    A    3.50000E-01   2.76144E-01
  opls_806  C806    12.0110     0.000    A    3.50000E-01   2.76144E-01
  opls_822  H822     1.0080     0.000    A    2.50000E-01   1.25520E-01
  opls_803  C803    12.0110     0.000    A    3.50000E-01   2.76144E-01
  opls_825  H825     1.0080     0.000    A    2.50000E-01   1.25520E-01
  opls_830  H830     1.0080     0.000    A    2.50000E-01   1.25520E-01
  opls_821  H821     1.0080     0.000    A    2.50000E-01   1.25520E-01
  opls_824  H824     1.0080     0.000    A    2.50000E-01   1.25520E-01
  opls_820  H820     1.0080     0.000    A    2.50000E-01   1.25520E-01
  opls_813  C813    12.0110     0.000    A    3.55000E-01   2.92880E-01
  opls_829  H829     1.0080     0.000    A    2.50000E-01   1.25520E-01
  opls_831  H831     1.0080     0.000    A    2.50000E-01   1.25520E-01
  opls_800  C800    12.0110     0.000    A    3.50000E-01   2.76144E-01
  opls_816  C816    12.0110     0.000    A    3.50000E-01   2.76144E-01
  opls_811  C811    12.0110     0.000    A    3.50000E-01   2.76144E-01
  opls_809  F809    18.9984     0.000    A    2.90000E-01   2.51040E-01
  opls_823  H823     1.0080     0.000    A    2.50000E-01   1.25520E-01
  opls_808  F808    18.9984     0.000    A    2.90000E-01   2.51040E-01
  opls_826  H826     1.0080     0.000    A    2.50000E-01   1.25520E-01
  opls_819  H819     1.0080     0.000    A    2.50000E-01   1.25520E-01
  opls_810  C810    12.0110     0.000    A    3.50000E-01   2.76144E-01
  opls_817  H817     1.0080     0.000    A    2.50000E-01   1.25520E-01
  opls_814  O814    15.9990     0.000    A    2.96000E-01   8.78640E-01
[ moleculetype ]
; Name               nrexcl
UNK                   3
[ atoms ]
;   nr       type  resnr residue  atom   cgnr     charge       mass  
     1   opls_800      1    UNK   C00      1    -0.2425    12.0110 
     2   opls_801      1    UNK   C01      1      -0.18    12.0110 
     3   opls_802      1    UNK   C02      1    -0.2112    12.0110 
     4   opls_803      1    UNK   C03      1     0.1183    12.0110 
     5   opls_804      1    UNK   O04      1    -0.3564    15.9990 
     6   opls_805      1    UNK   C05      1    -0.0648    12.0110 
     7   opls_806      1    UNK   C06      1      0.451    12.0110 
     8   opls_807      1    UNK   F07      1     -0.157    18.9984 
     9   opls_808      1    UNK   F08      1     -0.157    18.9984 
    10   opls_809      1    UNK   F09      1     -0.157    18.9984 
    11   opls_810      1    UNK   C0A      1    -0.2477    12.0110 
    12   opls_811      1    UNK   C0B      1     0.0282    12.0110 
    13   opls_812      1    UNK   O0C      1    -0.3875    15.9990 
    14   opls_813      1    UNK   C0D      1     0.5829    12.0110 
    15   opls_814      1    UNK   O0E      1    -0.3633    15.9990 
    16   opls_815      1    UNK   O0F      1    -0.3605    15.9990 
    17   opls_816      1    UNK   C0G      1     0.0471    12.0110 
    18   opls_817      1    UNK   H0H      1     0.0863     1.0080 
    19   opls_818      1    UNK   H0I      1     0.0863     1.0080 
    20   opls_819      1    UNK   H0J      1     0.0863     1.0080 
    21   opls_820      1    UNK   H0K      1     0.1006     1.0080 
    22   opls_821      1    UNK   H0M      1     0.1006     1.0080 
    23   opls_822      1    UNK   H0N      1     0.1031     1.0080 
    24   opls_823      1    UNK   H0O      1     0.1031     1.0080 
    25   opls_824      1    UNK   H0P      1     0.1153     1.0080 
    26   opls_825      1    UNK   H0Q      1     0.1153     1.0080 
    27   opls_826      1    UNK   H0R      1     0.1193     1.0080 
    28   opls_827      1    UNK   H0S      1     0.1193     1.0080 
    29   opls_828      1    UNK   H0T      1     0.1259     1.0080 
    30   opls_829      1    UNK   H0U      1     0.1259     1.0080 
    31   opls_830      1    UNK   H0V      1      0.135     1.0080 
    32   opls_831      1    UNK   H0W      1      0.135     1.0080 
[ bonds ]
    2     1     1      0.1529 224262.400
    3     2     1      0.1529 224262.400
    4     3     1      0.1529 224262.400
    5     4     1      0.1410 267776.000
    6     5     1      0.1410 267776.000
    7     6     1      0.1529 224262.400
    8     7     1      0.1360 307105.600
    9     7     1      0.1360 307105.600
   10     7     1      0.1360 307105.600
   11     4     1      0.1529 224262.400
   12    11     1      0.1529 224262.400
   13    12     1      0.1410 267776.000
   14    13     1      0.1327 179075.200
   15    14     1      0.1229 476976.000
   16    14     1      0.1327 179075.200
   17     4     1      0.1529 224262.400
   18     1     1      0.1090 284512.000
   19     1     1      0.1090 284512.000
   20     1     1      0.1090 284512.000
   21     2     1      0.1090 284512.000
   22     2     1      0.1090 284512.000
   23     3     1      0.1090 284512.000
   24     3     1      0.1090 284512.000
   25     6     1      0.1090 284512.000
   26     6     1      0.1090 284512.000
   27    11     1      0.1090 284512.000
   28    11     1      0.1090 284512.000
   29    12     1      0.1090 284512.000
   30    12     1      0.1090 284512.000
   31    17     1      0.1090 284512.000
   32    17     1      0.1090 284512.000
   17    16     1      0.1410 267776.000

[ angles ]
;  ai    aj    ak funct            c0            c1            c2            c3 
    1     2     3     1    112.700    488.273
    2     3     4     1    112.700    488.273
    3     4     5     1    109.500    418.400
    4     5     6     1    109.500    502.080
    5     6     7     1    109.500    418.400
    6     7     8     1    109.500    418.400
    6     7     9     1    109.500    418.400
    6     7    10     1    109.500    418.400
    3     4    11     1    112.700    488.273
    4    11    12     1    112.700    488.273
   11    12    13     1    109.500    418.400
   12    13    14     1    116.900    694.544
   13    14    15     1    123.400    694.544
   13    14    16     1    118.180    584.923
    3     4    17     1    112.700    488.273
    2     1    18     1    110.700    313.800
    2     1    19     1    110.700    313.800
    2     1    20     1    110.700    313.800
    1     2    21     1    110.700    313.800
    1     2    22     1    110.700    313.800
    2     3    23     1    110.700    313.800
    2     3    24     1    110.700    313.800
    5     6    25     1    109.500    292.880
    5     6    26     1    109.500    292.880
    4    11    27     1    110.700    313.800
    4    11    28     1    110.700    313.800
   11    12    29     1    110.700    313.800
   11    12    30     1    110.700    313.800
    4    17    31     1    110.700    313.800
    4    17    32     1    110.700    313.800
    9     7    10     1    109.100    644.336
   12    11    28     1    110.700    313.800
   15    14    16     1    123.400    694.544
    3     2    21     1    110.700    313.800
   29    12    30     1    107.800    276.144
   27    11    28     1    107.800    276.144
    5     4    11     1    109.500    418.400
    7     6    25     1    110.700    313.800
    8     7    10     1    109.100    644.336
    8     7     9     1    109.100    644.336
    4     3    23     1    110.700    313.800
    3     2    22     1    110.700    313.800
   23     3    24     1    107.800    276.144
    7     6    26     1    110.700    313.800
   18     1    19     1    107.800    276.144
   11     4    17     1    112.700    488.273
   13    12    30     1    109.500    292.880
   16    17    31     1    109.500    292.880
    4     3    24     1    110.700    313.800
   14    16    17     1    116.900    694.544
   31    17    32     1    107.800    276.144
   25     6    26     1    107.800    276.144
   18     1    20     1    107.800    276.144
   21     2    22     1    107.800    276.144
   12    11    27     1    110.700    313.800
   19     1    20     1    107.800    276.144
   13    12    29     1    109.500    292.880
    4    17    16     1    109.500    418.400
   16    17    32     1    109.500    292.880
    5     4    17     1    109.500    418.400

[ dihedrals ]
; IMPROPER DIHEDRAL ANGLES 
;  ai    aj    ak    al funct            c0            c1            c2            c3            c4            c5
    16    14    13    15    4        180.000     43.932     2  

[ dihedrals ]
; PROPER DIHEDRAL ANGLES
;  ai    aj    ak    al funct            c0            c1            c2            c3            c4            c5
   14   16   17    4        3      -2.197   5.201   0.527  -3.531  -0.000   0.000
   14   13   12   11        3      -2.197   5.201   0.527  -3.531  -0.000   0.000
    7    6    5    4        3       1.715   2.845   1.046  -5.607  -0.000   0.000
   17    4   11   12        3       2.301  -1.464   0.837  -1.674  -0.000   0.000
   11    4    3    2        3       2.301  -1.464   0.837  -1.674  -0.000   0.000
   12   11    4    3        3       2.301  -1.464   0.837  -1.674  -0.000   0.000
    4    3    2    1        3       2.301  -1.464   0.837  -1.674  -0.000   0.000
   17    4    3    2        3       2.301  -1.464   0.837  -1.674  -0.000   0.000
   12   11    4    5        3       2.874   0.582   2.092  -5.548  -0.000   0.000
   11    4    5    6        3       1.715   2.845   1.046  -5.607  -0.000   0.000
   17    4    5    6        3       1.715   2.845   1.046  -5.607  -0.000   0.000
   17   16   14   15        3      21.439   0.000  -21.439  -0.000  -0.000   0.000
   17   16   14   13        3      31.206  -9.768  -21.439  -0.000  -0.000   0.000
    6    5    4    3        3       1.715   2.845   1.046  -5.607  -0.000   0.000
   10    7    6    5        3       1.130   3.389   0.000  -4.519  -0.000   0.000
    9    7    6    5        3       1.130   3.389   0.000  -4.519  -0.000   0.000
    8    7    6    5        3       1.130   3.389   0.000  -4.519  -0.000   0.000
   25    6    7    8        3       0.753   2.259   0.000  -3.012  -0.000   0.000
   26    6    7   10        3       0.753   2.259   0.000  -3.012  -0.000   0.000
   26    6    7    9        3       0.753   2.259   0.000  -3.012  -0.000   0.000
   25    6    7    9        3       0.753   2.259   0.000  -3.012  -0.000   0.000
   25    6    7   10        3       0.753   2.259   0.000  -3.012  -0.000   0.000
   26    6    7    8        3       0.753   2.259   0.000  -3.012  -0.000   0.000
   20    1    2    3        3       0.628   1.883   0.000  -2.510  -0.000   0.000
   22    2    3    4        3       0.628   1.883   0.000  -2.510  -0.000   0.000
   24    3    2    1        3       0.628   1.883   0.000  -2.510  -0.000   0.000
   32   17    4   11        3       0.628   1.883   0.000  -2.510  -0.000   0.000
   28   11    4   17        3       0.628   1.883   0.000  -2.510  -0.000   0.000
   29   12   11    4        3       0.628   1.883   0.000  -2.510  -0.000   0.000
   30   12   11    4        3       0.628   1.883   0.000  -2.510  -0.000   0.000
   28   11    4    3        3       0.628   1.883   0.000  -2.510  -0.000   0.000
   19    1    2    3        3       0.628   1.883   0.000  -2.510  -0.000   0.000
   24    3    4   11        3       0.628   1.883   0.000  -2.510  -0.000   0.000
   27   11    4   17        3       0.628   1.883   0.000  -2.510  -0.000   0.000
   21    2    3    4        3       0.628   1.883   0.000  -2.510  -0.000   0.000
   24    3    4   17        3       0.628   1.883   0.000  -2.510  -0.000   0.000
   23    3    2    1        3       0.628   1.883   0.000  -2.510  -0.000   0.000
   18    1    2    3        3       0.628   1.883   0.000  -2.510  -0.000   0.000
   27   11    4    3        3       0.628   1.883   0.000  -2.510  -0.000   0.000
   31   17    4   11        3       0.628   1.883   0.000  -2.510  -0.000   0.000
   23    3    4   17        3       0.628   1.883   0.000  -2.510  -0.000   0.000
   32   17    4    3        3       0.628   1.883   0.000  -2.510  -0.000   0.000
   31   17    4    3        3       0.628   1.883   0.000  -2.510  -0.000   0.000
   23    3    4   11        3       0.628   1.883   0.000  -2.510  -0.000   0.000
   23    3    2   22        3       0.628   1.883   0.000  -2.510  -0.000   0.000
   21    2    1   20        3       0.628   1.883   0.000  -2.510  -0.000   0.000
   22    2    1   20        3       0.628   1.883   0.000  -2.510  -0.000   0.000
   30   12   11   28        3       0.628   1.883   0.000  -2.510  -0.000   0.000
   21    2    1   19        3       0.628   1.883   0.000  -2.510  -0.000   0.000
   29   12   11   27        3       0.628   1.883   0.000  -2.510  -0.000   0.000
   21    2    1   18        3       0.628   1.883   0.000  -2.510  -0.000   0.000
   30   12   11   27        3       0.628   1.883   0.000  -2.510  -0.000   0.000
   22    2    1   18        3       0.628   1.883   0.000  -2.510  -0.000   0.000
   22    2    1   19        3       0.628   1.883   0.000  -2.510  -0.000   0.000
   24    3    2   22        3       0.628   1.883   0.000  -2.510  -0.000   0.000
   24    3    2   21        3       0.628   1.883   0.000  -2.510  -0.000   0.000
   29   12   11   28        3       0.628   1.883   0.000  -2.510  -0.000   0.000
   23    3    2   21        3       0.628   1.883   0.000  -2.510  -0.000   0.000
   23    3    4    5        3       0.979   2.937   0.000  -3.916  -0.000   0.000
   24    3    4    5        3       0.979   2.937   0.000  -3.916  -0.000   0.000
   27   11    4    5        3       0.979   2.937   0.000  -3.916  -0.000   0.000
   28   11    4    5        3       0.979   2.937   0.000  -3.916  -0.000   0.000
   28   11   12   13        3       0.979   2.937   0.000  -3.916  -0.000   0.000
   32   17    4    5        3       0.979   2.937   0.000  -3.916  -0.000   0.000
   27   11   12   13        3       0.979   2.937   0.000  -3.916  -0.000   0.000
   31   17    4    5        3       0.979   2.937   0.000  -3.916  -0.000   0.000
   31   17   16   14        3       0.414   1.243   0.000  -1.657  -0.000   0.000
   29   12   13   14        3       0.414   1.243   0.000  -1.657  -0.000   0.000
   32   17   16   14        3       0.414   1.243   0.000  -1.657  -0.000   0.000
   30   12   13   14        3       0.414   1.243   0.000  -1.657  -0.000   0.000
   25    6    5    4        3       1.590   4.770   0.000  -6.360  -0.000   0.000
   26    6    5    4        3       1.590   4.770   0.000  -6.360  -0.000   0.000
   15   14   13   12        3      21.439   0.000  -21.439  -0.000  -0.000   0.000
   16   14   13   12        3      31.206  -9.768  -21.439  -0.000  -0.000   0.000
   16   17    4   11        3       2.874   0.582   2.092  -5.548  -0.000   0.000
   13   12   11    4        3       2.874   0.582   2.092  -5.548  -0.000   0.000
    5    4    3    2        3       2.874   0.582   2.092  -5.548  -0.000   0.000
   16   17    4    3        3       2.874   0.582   2.092  -5.548  -0.000   0.000
   16   17    4    5        3      -1.151   1.151   0.000  -0.000  -0.000   0.000

[ pairs ]
     1     4    1
     2     5    1
     3     6    1
     4     7    1
     5     8    1
     2    11    1
     5     9    1
     5    10    1
     3    12    1
     6    11    1
     5    12    1
     4    13    1
     4    14    1
     3    16    1
     2    17    1
     5    16    1
     3    18    1
     3    19    1
     6    17    1
     3    20    1
     1    23    1
    11    14    1
     4    21    1
     1    24    1
     4    22    1
    12    15    1
    11    16    1
    12    16    1
     5    23    1
    12    17    1
     5    24    1
     4    25    1
    13    17    1
     4    26    1
     3    27    1
     3    28    1
    15    17    1
     5    27    1
     8    25    1
     5    28    1
     4    29    1
    11    23    1
     9    25    1
     8    26    1
     4    30    1
     3    31    1
    11    24    1
    10    25    1
     9    26    1
     3    32    1
    10    26    1
     5    31    1
     5    32    1
    18    21    1
    19    21    1
    18    22    1
    17    23    1
    13    27    1
    20    21    1
    19    22    1
    17    24    1
    13    28    1
    20    22    1
    11    31    1
    14    29    1
    11    32    1
    21    23    1
    17    27    1
    14    30    1
    22    23    1
    21    24    1
    17    28    1
    14    31    1
    22    24    1
    14    32    1
    27    29    1
    28    29    1
    27    30    1
    28    30    1

