LIGPARGEN GENERATED GRO FILE
   32
    1UNK    C00    1   0.100   0.100   0.000
    1UNK    C01    2  -0.052   0.100   0.000
    1UNK    C02    3  -0.107   0.100   0.143
    1UNK    C03    4  -0.262   0.087   0.156
    1UNK    O04    5  -0.312  -0.031   0.090
    1UNK    C05    6  -0.258  -0.158   0.128
    1UNK    C06    7  -0.308  -0.276   0.043
    1UNK    F07    8  -0.383  -0.237  -0.063
    1UNK    F08    9  -0.204  -0.347  -0.006
    1UNK    F09   10  -0.383  -0.360   0.117
    1UNK    C0A   11  -0.297   0.087   0.307
    1UNK    C0B   12  -0.443   0.111   0.338
    1UNK    O0C   13  -0.479   0.246   0.304
    1UNK    C0D   14  -0.541   0.258   0.185
    1UNK    O0E   15  -0.648   0.315   0.170
    1UNK    O0F   16  -0.472   0.199   0.083
    1UNK    C0G   17  -0.329   0.209   0.086
    1UNK    H0H   18   0.138   0.107  -0.102
    1UNK    H0I   19   0.139   0.008   0.045
    1UNK    H0J   20   0.139   0.185   0.056
    1UNK    H0K   21  -0.088   0.013  -0.056
    1UNK    H0M   22  -0.086   0.189  -0.053
    1UNK    H0N   23  -0.074   0.193   0.192
    1UNK    H0O   24  -0.059   0.018   0.199
    1UNK    H0P   25  -0.283  -0.179   0.232
    1UNK    H0Q   26  -0.149  -0.156   0.119
    1UNK    H0R   27  -0.238   0.165   0.357
    1UNK    H0S   28  -0.268  -0.008   0.353
    1UNK    H0T   29  -0.459   0.102   0.446
    1UNK    H0U   30  -0.509   0.039   0.289
    1UNK    H0V   31  -0.297   0.304   0.131
    1UNK    H0W   32  -0.300   0.212  -0.020
   1.00000   1.00000   1.00000

