
;
; GENERATED BY LigParGen Server
; Jorgensen Lab @ Yale University 
;
[ atomtypes ]
  opls_818  H818     1.0080     0.000    A    2.50000E-01   1.25520E-01
  opls_814  C814    12.0110     0.000    A    3.50000E-01   2.76144E-01
  opls_806  C806    12.0110     0.000    A    3.30000E-01   2.76144E-01
  opls_824  H824     1.0080     0.000    A    2.50000E-01   1.25520E-01
  opls_805  C805    12.0110     0.000    A    3.50000E-01   2.76144E-01
  opls_828  H828     1.0080     0.000    A    2.50000E-01   1.25520E-01
  opls_832  H832     1.0080     0.000    A    2.50000E-01   1.25520E-01
  opls_802  C802    12.0110     0.000    A    3.50000E-01   2.76144E-01
  opls_827  H827     1.0080     0.000    A    2.50000E-01   1.25520E-01
  opls_801  C801    12.0110     0.000    A    3.50000E-01   2.76144E-01
  opls_822  H822     1.0080     0.000    A    2.50000E-01   1.25520E-01
  opls_803  C803    12.0110     0.000    A    3.50000E-01   2.76144E-01
  opls_807  N807    14.0070     0.000    A    3.20000E-01   7.11280E-01
  opls_825  H825     1.0080     0.000    A    2.50000E-01   1.25520E-01
  opls_830  H830     1.0080     0.000    A    2.50000E-01   1.25520E-01
  opls_810  O810    15.9990     0.000    A    2.96000E-01   8.78640E-01
  opls_821  H821     1.0080     0.000    A    2.50000E-01   1.25520E-01
  opls_820  H820     1.0080     0.000    A    2.50000E-01   1.25520E-01
  opls_809  C809    12.0110     0.000    A    3.55000E-01   2.92880E-01
  opls_813  C813    12.0110     0.000    A    3.55000E-01   2.92880E-01
  opls_829  H829     1.0080     0.000    A    2.50000E-01   1.25520E-01
  opls_831  H831     1.0080     0.000    A    2.50000E-01   1.25520E-01
  opls_812  O812    15.9990     0.000    A    2.96000E-01   8.78640E-01
  opls_816  H816     1.0080     0.000    A    2.50000E-01   1.25520E-01
  opls_800  C800    12.0110     0.000    A    3.50000E-01   2.76144E-01
  opls_823  H823     1.0080     0.000    A    2.50000E-01   1.25520E-01
  opls_811  C811    12.0110     0.000    A    3.55000E-01   2.92880E-01
  opls_826  H826     1.0080     0.000    A    2.50000E-01   1.25520E-01
  opls_819  H819     1.0080     0.000    A    2.50000E-01   1.25520E-01
  opls_804  C804    12.0110     0.000    A    3.50000E-01   2.76144E-01
  opls_808  C808    12.0110     0.000    A    3.50000E-01   2.76144E-01
  opls_815  O815    15.9990     0.000    A    2.96000E-01   8.78640E-01
  opls_817  H817     1.0080     0.000    A    2.50000E-01   1.25520E-01
[ moleculetype ]
; Name               nrexcl
UNK                   3
[ atoms ]
;   nr       type  resnr residue  atom   cgnr     charge       mass  
     1   opls_800      1    UNK   C00      1    -0.2391    12.0110 
     2   opls_801      1    UNK   C01      1    -0.1788    12.0110 
     3   opls_802      1    UNK   C02      1    -0.1772    12.0110 
     4   opls_803      1    UNK   C03      1     -0.182    12.0110 
     5   opls_804      1    UNK   C04      1    -0.1786    12.0110 
     6   opls_805      1    UNK   C05      1     0.0416    12.0110 
     7   opls_806      1    UNK   C06      1     0.1323    12.0110 
     8   opls_807      1    UNK   N07      1    -0.3771    14.0070 
     9   opls_808      1    UNK   C08      1     -0.233    12.0110 
    10   opls_809      1    UNK   C09      1     0.3352    12.0110 
    11   opls_810      1    UNK   O0A      1     -0.424    15.9990 
    12   opls_811      1    UNK   C0B      1     0.3287    12.0110 
    13   opls_812      1    UNK   O0C      1    -0.3697    15.9990 
    14   opls_813      1    UNK   C0D      1     0.3322    12.0110 
    15   opls_814      1    UNK   C0E      1    -0.2908    12.0110 
    16   opls_815      1    UNK   O0F      1    -0.4207    15.9990 
    17   opls_816      1    UNK   H0G      1     0.0825     1.0080 
    18   opls_817      1    UNK   H0H      1     0.0825     1.0080 
    19   opls_818      1    UNK   H0I      1     0.0825     1.0080 
    20   opls_819      1    UNK   H0J      1     0.0919     1.0080 
    21   opls_820      1    UNK   H0K      1     0.0919     1.0080 
    22   opls_821      1    UNK   H0M      1     0.0909     1.0080 
    23   opls_822      1    UNK   H0N      1     0.0909     1.0080 
    24   opls_823      1    UNK   H0O      1     0.1015     1.0080 
    25   opls_824      1    UNK   H0P      1     0.1015     1.0080 
    26   opls_825      1    UNK   H0Q      1     0.1039     1.0080 
    27   opls_826      1    UNK   H0R      1     0.1039     1.0080 
    28   opls_827      1    UNK   H0S      1     0.1619     1.0080 
    29   opls_828      1    UNK   H0T      1     0.1662     1.0080 
    30   opls_829      1    UNK   H0U      1     0.1432     1.0080 
    31   opls_830      1    UNK   H0V      1     0.1352     1.0080 
    32   opls_831      1    UNK   H0W      1     0.1352     1.0080 
    33   opls_832      1    UNK   H0X      2     0.1352     1.0080 
[ bonds ]
    2     1     1      0.1529 224262.400
    3     2     1      0.1529 224262.400
    4     3     1      0.1529 224262.400
    5     4     1      0.1529 224262.400
    6     5     1      0.1529 224262.400
    7     6     1      0.1470 326352.000
    8     7     1      0.1157 543920.000
    9     6     1      0.1529 224262.400
   10     9     1      0.1522 265265.600
   11    10     1      0.1229 476976.000
   12     9     1      0.1522 265265.600
   13    12     1      0.1229 476976.000
   14    12     1      0.1510 292880.000
   15    14     1      0.1522 265265.600
   16    14     1      0.1229 476976.000
   17     1     1      0.1090 284512.000
   18     1     1      0.1090 284512.000
   19     1     1      0.1090 284512.000
   20     2     1      0.1090 284512.000
   21     2     1      0.1090 284512.000
   22     3     1      0.1090 284512.000
   23     3     1      0.1090 284512.000
   24     4     1      0.1090 284512.000
   25     4     1      0.1090 284512.000
   26     5     1      0.1090 284512.000
   27     5     1      0.1090 284512.000
   28     6     1      0.1090 284512.000
   29     9     1      0.1090 284512.000
   30    10     1      0.1090 284512.000
   31    15     1      0.1090 284512.000
   32    15     1      0.1090 284512.000
   33    15     1      0.1090 284512.000

[ angles ]
;  ai    aj    ak funct            c0            c1            c2            c3 
    1     2     3     1    112.700    488.273
    2     3     4     1    112.700    488.273
    3     4     5     1    112.700    488.273
    4     5     6     1    112.700    488.273
    5     6     7     1    112.700    488.273
    6     7     8     1    180.000   1255.200
    5     6     9     1    112.700    488.273
    6     9    10     1    111.100    527.184
    9    10    11     1    120.400    669.440
    6     9    12     1    111.100    527.184
    9    12    13     1    120.400    669.440
    9    12    14     1    117.200    669.440
   12    14    15     1    117.200    669.440
   12    14    16     1    121.400    669.440
    2     1    17     1    110.700    313.800
    2     1    18     1    110.700    313.800
    2     1    19     1    110.700    313.800
    1     2    20     1    110.700    313.800
    1     2    21     1    110.700    313.800
    2     3    22     1    110.700    313.800
    2     3    23     1    110.700    313.800
    3     4    24     1    110.700    313.800
    3     4    25     1    110.700    313.800
    4     5    26     1    110.700    313.800
    4     5    27     1    110.700    313.800
    5     6    28     1    110.700    313.800
    6     9    29     1    110.700    313.800
    9    10    30     1    115.000    292.880
   14    15    31     1    109.500    292.880
   14    15    32     1    109.500    292.880
   14    15    33     1    109.500    292.880
   17     1    19     1    107.800    276.144
    3     2    20     1    110.700    313.800
   10     9    29     1    109.500    292.880
    7     6     9     1    112.700    488.273
   13    12    14     1    121.400    669.440
    3     2    21     1    110.700    313.800
   32    15    33     1    107.800    276.144
    5     4    24     1    110.700    313.800
   24     4    25     1    107.800    276.144
    4     3    22     1    110.700    313.800
    7     6    28     1    108.500    292.880
   10     9    12     1    111.100    527.184
    4     3    23     1    110.700    313.800
    6     5    27     1    110.700    313.800
   15    14    16     1    120.400    669.440
   26     5    27     1    107.800    276.144
    5     4    25     1    110.700    313.800
   31    15    33     1    107.800    276.144
   12     9    29     1    109.500    292.880
   20     2    21     1    107.800    276.144
   22     3    23     1    107.800    276.144
   17     1    18     1    107.800    276.144
    9     6    28     1    110.700    313.800
   18     1    19     1    107.800    276.144
   31    15    32     1    107.800    276.144
   11    10    30     1    123.000    292.880
    6     5    26     1    110.700    313.800

[ dihedrals ]
; IMPROPER DIHEDRAL ANGLES 
;  ai    aj    ak    al funct            c0            c1            c2            c3            c4            c5
    14    12     9    13    4        180.000     43.932     2  
    30    10     9    11    4        180.000     43.932     2  
    16    14    12    15    4        180.000     43.932     2  

[ dihedrals ]
; PROPER DIHEDRAL ANGLES
;  ai    aj    ak    al funct            c0            c1            c2            c3            c4            c5
   14   12    9   10        3       0.941   7.427   0.000  -8.368  -0.000   0.000
   14   12    9    6        3       0.000   0.000   0.000  -0.000  -0.000   0.000
   12    9   10   11        3       0.000   0.000   0.000  -0.000  -0.000   0.000
   12    9    6    5        3      -4.960   6.286   1.310  -2.636  -0.000   0.000
   10    9    6    5        3      -4.960   6.286   1.310  -2.636  -0.000   0.000
   10    9    6    7        3      -4.960   6.286   1.310  -2.636  -0.000   0.000
   12    9    6    7        3      -4.960   6.286   1.310  -2.636  -0.000   0.000
   15   14   12    9        3      -4.812  -1.464   6.276  -0.000  -0.000   0.000
   15   14   12   13        3       2.092   0.000  -2.092  -0.000  -0.000   0.000
    9    6    5    4        3       2.301  -1.464   0.837  -1.674  -0.000   0.000
    4    3    2    1        3       2.301  -1.464   0.837  -1.674  -0.000   0.000
    6    5    4    3        3       2.301  -1.464   0.837  -1.674  -0.000   0.000
    5    4    3    2        3       2.301  -1.464   0.837  -1.674  -0.000   0.000
    9    6    7    8        3       0.000   0.000   0.000  -0.000  -0.000   0.000
    7    6    5    4        3      -2.720   0.000   2.720  -0.000  -0.000   0.000
   30   10    9   12        3       0.000   0.000   0.000  -0.000  -0.000   0.000
   30   10    9    6        3       0.000   0.000   0.000  -0.000  -0.000   0.000
   30   10    9   29        3       0.753   2.259   0.000  -3.012  -0.000   0.000
   31   15   14   12        3       0.178   0.533   0.000  -0.711  -0.000   0.000
   33   15   14   12        3       0.178   0.533   0.000  -0.711  -0.000   0.000
   32   15   14   12        3       0.178   0.533   0.000  -0.711  -0.000   0.000
   29    9   12   14        3       0.178   0.533   0.000  -0.711  -0.000   0.000
   32   15   14   16        3       0.000   0.000   0.000  -0.000  -0.000   0.000
   29    9   10   11        3       0.000   0.000   0.000  -0.000  -0.000   0.000
   29    9   12   13        3       0.000   0.000   0.000  -0.000  -0.000   0.000
   31   15   14   16        3       0.000   0.000   0.000  -0.000  -0.000   0.000
   33   15   14   16        3       0.000   0.000   0.000  -0.000  -0.000   0.000
   28    6    9   12        3      -0.209  -0.628   0.000   0.837  -0.000   0.000
   28    6    9   10        3      -0.209  -0.628   0.000   0.837  -0.000   0.000
   24    4    3    2        3       0.628   1.883   0.000  -2.510  -0.000   0.000
   27    5    4    3        3       0.628   1.883   0.000  -2.510  -0.000   0.000
   28    6    5    4        3       0.628   1.883   0.000  -2.510  -0.000   0.000
   17    1    2    3        3       0.628   1.883   0.000  -2.510  -0.000   0.000
   22    3    4    5        3       0.628   1.883   0.000  -2.510  -0.000   0.000
   27    5    6    9        3       0.628   1.883   0.000  -2.510  -0.000   0.000
   25    4    5    6        3       0.628   1.883   0.000  -2.510  -0.000   0.000
   25    4    3    2        3       0.628   1.883   0.000  -2.510  -0.000   0.000
   23    3    4    5        3       0.628   1.883   0.000  -2.510  -0.000   0.000
   26    5    4    3        3       0.628   1.883   0.000  -2.510  -0.000   0.000
   23    3    2    1        3       0.628   1.883   0.000  -2.510  -0.000   0.000
   18    1    2    3        3       0.628   1.883   0.000  -2.510  -0.000   0.000
   24    4    5    6        3       0.628   1.883   0.000  -2.510  -0.000   0.000
   19    1    2    3        3       0.628   1.883   0.000  -2.510  -0.000   0.000
   20    2    3    4        3       0.628   1.883   0.000  -2.510  -0.000   0.000
   26    5    6    9        3       0.628   1.883   0.000  -2.510  -0.000   0.000
   22    3    2    1        3       0.628   1.883   0.000  -2.510  -0.000   0.000
   29    9    6    5        3       0.628   1.883   0.000  -2.510  -0.000   0.000
   21    2    3    4        3       0.628   1.883   0.000  -2.510  -0.000   0.000
   27    5    6    7        3       0.766   2.297   0.000  -3.063  -0.000   0.000
   29    9    6    7        3       0.766   2.297   0.000  -3.063  -0.000   0.000
   26    5    6    7        3       0.766   2.297   0.000  -3.063  -0.000   0.000
   27    5    4   25        3       0.628   1.883   0.000  -2.510  -0.000   0.000
   21    2    1   19        3       0.628   1.883   0.000  -2.510  -0.000   0.000
   22    3    2   21        3       0.628   1.883   0.000  -2.510  -0.000   0.000
   29    9    6   28        3       0.628   1.883   0.000  -2.510  -0.000   0.000
   25    4    3   23        3       0.628   1.883   0.000  -2.510  -0.000   0.000
   27    5    4   24        3       0.628   1.883   0.000  -2.510  -0.000   0.000
   22    3    2   20        3       0.628   1.883   0.000  -2.510  -0.000   0.000
   25    4    3   22        3       0.628   1.883   0.000  -2.510  -0.000   0.000
   26    5    4   25        3       0.628   1.883   0.000  -2.510  -0.000   0.000
   28    6    5   26        3       0.628   1.883   0.000  -2.510  -0.000   0.000
   24    4    3   23        3       0.628   1.883   0.000  -2.510  -0.000   0.000
   20    2    1   18        3       0.628   1.883   0.000  -2.510  -0.000   0.000
   21    2    1   17        3       0.628   1.883   0.000  -2.510  -0.000   0.000
   20    2    1   19        3       0.628   1.883   0.000  -2.510  -0.000   0.000
   20    2    1   17        3       0.628   1.883   0.000  -2.510  -0.000   0.000
   23    3    2   20        3       0.628   1.883   0.000  -2.510  -0.000   0.000
   23    3    2   21        3       0.628   1.883   0.000  -2.510  -0.000   0.000
   26    5    4   24        3       0.628   1.883   0.000  -2.510  -0.000   0.000
   21    2    1   18        3       0.628   1.883   0.000  -2.510  -0.000   0.000
   24    4    3   22        3       0.628   1.883   0.000  -2.510  -0.000   0.000
   28    6    5   27        3       0.628   1.883   0.000  -2.510  -0.000   0.000
   28    6    7    8        3       0.000   0.000   0.000  -0.000  -0.000   0.000
    8    7    6    5        3       0.000   0.000   0.000  -0.000  -0.000   0.000
   16   14   12    9        3       2.092   0.000  -2.092  -0.000  -0.000   0.000
   16   14   12   13        3      16.736  -3.347  -13.389  -0.000  -0.000   0.000
   13   12    9   10        3       0.000   0.000   0.000  -0.000  -0.000   0.000
   13   12    9    6        3       0.000   0.000   0.000  -0.000  -0.000   0.000
   11   10    9    6        3       0.000   0.000   0.000  -0.000  -0.000   0.000

[ pairs ]
     1     4    1
     2     5    1
     3     6    1
     4     7    1
     5     8    1
     4     9    1
     5    10    1
     8     9    1
     7    10    1
     6    11    1
     5    12    1
     7    12    1
     6    13    1
     6    14    1
     3    17    1
     3    18    1
     3    19    1
    11    12    1
    10    13    1
     1    22    1
    10    14    1
     9    15    1
     4    20    1
     1    23    1
     9    16    1
     4    21    1
     2    24    1
     5    22    1
     2    25    1
    13    15    1
     5    23    1
    13    16    1
     3    26    1
     6    24    1
     3    27    1
     6    25    1
     4    28    1
     7    26    1
     7    27    1
     5    29    1
     9    26    1
     9    27    1
     8    28    1
     7    29    1
     6    30    1
    17    20    1
    18    20    1
    17    21    1
    10    28    1
    19    20    1
    18    21    1
    19    21    1
    12    28    1
    11    29    1
    20    22    1
    13    29    1
    12    30    1
    21    22    1
    20    23    1
    14    29    1
    12    31    1
    21    23    1
    12    32    1
    12    33    1
    22    24    1
    23    24    1
    22    25    1
    16    31    1
    23    25    1
    16    32    1
    16    33    1
    24    26    1
    25    26    1
    24    27    1
    25    27    1
    26    28    1
    27    28    1
    28    29    1
    29    30    1

