LIGPARGEN GENERATED GRO FILE
   33
    1UNK    C00    1   0.100   0.100   0.000
    1UNK    C01    2  -0.052   0.100   0.000
    1UNK    C02    3  -0.108   0.100   0.142
    1UNK    C03    4  -0.261   0.100   0.142
    1UNK    C04    5  -0.318   0.100   0.284
    1UNK    C05    6  -0.472   0.100   0.286
    1UNK    C06    7  -0.521  -0.026   0.216
    1UNK    N07    8  -0.561  -0.131   0.158
    1UNK    C08    9  -0.532   0.108   0.428
    1UNK    C09   10  -0.480   0.232   0.497
    1UNK    O0A   11  -0.499   0.345   0.454
    1UNK    C0B   12  -0.684   0.113   0.426
    1UNK    O0C   13  -0.752   0.106   0.325
    1UNK    C0D   14  -0.752   0.128   0.561
    1UNK    C0E   15  -0.902   0.134   0.564
    1UNK    O0F   16  -0.682   0.129   0.662
    1UNK    H0G   17   0.138   0.100  -0.103
    1UNK    H0H   18   0.139   0.011   0.051
    1UNK    H0I   19   0.139   0.189   0.051
    1UNK    H0J   20  -0.088   0.012  -0.054
    1UNK    H0K   21  -0.088   0.188  -0.054
    1UNK    H0M   22  -0.071   0.188   0.196
    1UNK    H0N   23  -0.071   0.011   0.196
    1UNK    H0O   24  -0.295   0.012   0.087
    1UNK    H0P   25  -0.297   0.188   0.088
    1UNK    H0Q   26  -0.280   0.188   0.336
    1UNK    H0R   27  -0.280   0.012   0.339
    1UNK    H0S   28  -0.507   0.185   0.227
    1UNK    H0T   29  -0.502   0.020   0.486
    1UNK    H0U   30  -0.422   0.215   0.589
    1UNK    H0V   31  -0.944   0.154   0.465
    1UNK    H0W   32  -0.933   0.214   0.631
    1UNK    H0X   33  -0.941   0.038   0.601
   1.00000   1.00000   1.00000

