LIGPARGEN GENERATED GRO FILE
   31
    1UNK    C00    1   0.100   0.100   0.000
    1UNK    C01    2  -0.052   0.100   0.000
    1UNK    P02    3  -0.121   0.100   0.171
    1UNK    C03    4  -0.301   0.100   0.131
    1UNK    C04    5  -0.099  -0.078   0.217
    1UNK    C05    6  -0.150  -0.104   0.359
    1UNK    C06    7  -0.134  -0.251   0.401
    1UNK    C07    8  -0.185  -0.278   0.544
    1UNK    C08    9  -0.335  -0.248   0.559
    1UNK    C09   10  -0.157  -0.423   0.583
    1UNK    H0A   11   0.138   0.100  -0.103
    1UNK    H0B   12   0.141   0.012   0.051
    1UNK    H0C   13   0.140   0.189   0.050
    1UNK    H0D   14  -0.089   0.014  -0.056
    1UNK    H0E   15  -0.087   0.190  -0.052
    1UNK    H0F   16  -0.329   0.196   0.086
    1UNK    H0G   17  -0.361   0.087   0.222
    1UNK    H0H   18  -0.327   0.021   0.061
    1UNK    H0I   19   0.008  -0.103   0.213
    1UNK    H0J   20  -0.151  -0.143   0.146
    1UNK    H0K   21  -0.256  -0.077   0.364
    1UNK    H0M   22  -0.097  -0.040   0.430
    1UNK    H0N   23  -0.027  -0.277   0.396
    1UNK    H0O   24  -0.186  -0.316   0.330
    1UNK    H0P   25  -0.131  -0.213   0.614
    1UNK    H0Q   26  -0.393  -0.304   0.484
    1UNK    H0R   27  -0.356  -0.142   0.546
    1UNK    H0S   28  -0.370  -0.277   0.658
    1UNK    H0T   29  -0.210  -0.493   0.517
    1UNK    H0U   30  -0.191  -0.442   0.686
    1UNK    H0V   31  -0.050  -0.445   0.578
   1.00000   1.00000   1.00000

