LIGPARGEN GENERATED GRO FILE
   46
    1UNK    C00    1   0.100   0.100   0.000
    1UNK    C01    2  -0.052   0.100   0.000
    1UNK    C02    3  -0.107   0.100   0.143
    1UNK    C03    4  -0.260   0.100   0.144
    1UNK    C04    5  -0.317   0.107   0.287
    1UNK    C05    6  -0.279   0.234   0.362
    1UNK    C06    7  -0.378   0.239   0.476
    1UNK    C07    8  -0.510   0.187   0.417
    1UNK    C08    9  -0.598   0.107   0.516
    1UNK    C09   10  -0.526  -0.015   0.558
    1UNK    N0A   11  -0.466  -0.110   0.587
    1UNK    C0B   12  -0.642   0.195   0.636
    1UNK    C0C   13  -0.743   0.135   0.740
    1UNK    C0D   14  -0.683   0.019   0.820
    1UNK    C0E   15  -0.780   0.246   0.841
    1UNK    C0F   16  -0.872   0.088   0.671
    1UNK    C0G   17  -0.470   0.107   0.290
    1UNK    H0H   18   0.138   0.100  -0.103
    1UNK    H0I   19   0.139   0.011   0.051
    1UNK    H0J   20   0.139   0.189   0.051
    1UNK    H0K   21  -0.088   0.012  -0.054
    1UNK    H0M   22  -0.088   0.189  -0.054
    1UNK    H0N   23  -0.069   0.188   0.195
    1UNK    H0O   24  -0.070   0.012   0.196
    1UNK    H0P   25  -0.297   0.010   0.095
    1UNK    H0Q   26  -0.297   0.185   0.086
    1UNK    H0R   27  -0.281   0.020   0.343
    1UNK    H0S   28  -0.290   0.322   0.298
    1UNK    H0T   29  -0.176   0.231   0.399
    1UNK    H0U   30  -0.389   0.340   0.516
    1UNK    H0V   31  -0.342   0.175   0.558
    1UNK    H0W   32  -0.568   0.274   0.383
    1UNK    H0X   33  -0.688   0.076   0.461
    1UNK    H0Y   34  -0.689   0.285   0.594
    1UNK    H0Z   35  -0.553   0.230   0.691
    1UNK    H10   36  -0.585   0.046   0.862
    1UNK    H11   37  -0.672  -0.071   0.760
    1UNK    H12   38  -0.747  -0.008   0.905
    1UNK    H13   39  -0.693   0.276   0.901
    1UNK    H14   40  -0.857   0.211   0.912
    1UNK    H15   41  -0.819   0.335   0.792
    1UNK    H16   42  -0.853   0.007   0.600
    1UNK    H17   43  -0.920   0.170   0.617
    1UNK    H18   44  -0.944   0.050   0.744
    1UNK    H19   45  -0.511   0.157   0.201
    1UNK    H1A   46  -0.509   0.005   0.289
   1.00000   1.00000   1.00000

