LIGPARGEN GENERATED GRO FILE
   27
    1UNK    C00    1   0.100   0.100   0.000
    1UNK    C01    2  -0.052   0.100   0.000
    1UNK    C02    3  -0.107   0.100   0.143
    1UNK    C03    4  -0.259   0.100   0.142
    1UNK    C04    5  -0.323   0.094   0.283
    1UNK    C05    6  -0.289   0.216   0.368
    1UNK    C06    7  -0.472   0.080   0.262
    1UNK    O07    8  -0.551   0.173   0.251
    1UNK    O08    9  -0.502  -0.053   0.243
    1UNK    O09   10  -0.595  -0.058   0.129
    1UNK    C0A   11  -0.720  -0.101   0.180
    1UNK    F0B   12  -0.702  -0.218   0.245
    1UNK    H0C   13   0.138   0.100  -0.103
    1UNK    H0D   14   0.139   0.011   0.051
    1UNK    H0E   15   0.139   0.189   0.051
    1UNK    H0F   16  -0.088   0.012  -0.054
    1UNK    H0G   17  -0.088   0.189  -0.054
    1UNK    H0H   18  -0.069   0.189   0.195
    1UNK    H0I   19  -0.070   0.012   0.196
    1UNK    H0J   20  -0.294   0.014   0.083
    1UNK    H0K   21  -0.296   0.189   0.090
    1UNK    H0M   22  -0.287   0.005   0.336
    1UNK    H0N   23  -0.317   0.309   0.318
    1UNK    H0O   24  -0.183   0.220   0.392
    1UNK    H0P   25  -0.344   0.212   0.464
    1UNK    H0Q   26  -0.787  -0.118   0.096
    1UNK    H0R   27  -0.763  -0.027   0.248
   1.00000   1.00000   1.00000

