LIGPARGEN GENERATED GRO FILE
   41
    1UNK    C00    1   0.100   0.100   0.000
    1UNK    C01    2  -0.052   0.100   0.000
    1UNK    C02    3  -0.115   0.100   0.141
    1UNK    O03    4  -0.259   0.106   0.131
    1UNK    C04    5  -0.322  -0.012   0.081
    1UNK    C05    6  -0.282  -0.140   0.155
    1UNK    O06    7  -0.345  -0.147   0.285
    1UNK    C07    8  -0.475  -0.184   0.286
    1UNK    O08    9  -0.541  -0.216   0.188
    1UNK    O09   10  -0.517  -0.185   0.415
    1UNK    C0A   11  -0.650  -0.233   0.433
    1UNK    C0B   12  -0.128  -0.148   0.172
    1UNK    C0C   13  -0.083  -0.284   0.227
    1UNK    C0D   14   0.063  -0.292   0.243
    1UNK    N0E   15   0.178  -0.298   0.255
    1UNK    C0F   16  -0.072  -0.017   0.238
    1UNK    N0G   17  -0.112   0.010   0.380
    1UNK    C0H   18  -0.075  -0.095   0.476
    1UNK    C0I   19  -0.057   0.137   0.431
    1UNK    H0J   20   0.137   0.108  -0.103
    1UNK    H0K   21   0.140   0.007   0.042
    1UNK    H0M   22   0.139   0.184   0.057
    1UNK    H0N   23  -0.087   0.016  -0.061
    1UNK    H0O   24  -0.087   0.190  -0.053
    1UNK    H0P   25  -0.085   0.196   0.183
    1UNK    H0Q   26  -0.298  -0.022  -0.026
    1UNK    H0R   27  -0.429   0.005   0.088
    1UNK    H0S   28  -0.314  -0.227   0.097
    1UNK    H0T   29  -0.683  -0.207   0.534
    1UNK    H0U   30  -0.651  -0.342   0.424
    1UNK    H0V   31  -0.720  -0.188   0.362
    1UNK    H0W   32  -0.088  -0.148   0.070
    1UNK    H0X   33  -0.113  -0.361   0.154
    1UNK    H0Y   34  -0.134  -0.312   0.319
    1UNK    H0Z   35   0.038  -0.022   0.237
    1UNK    H10   36  -0.141  -0.181   0.468
    1UNK    H11   37  -0.089  -0.061   0.580
    1UNK    H12   38   0.030  -0.125   0.466
    1UNK    H13   39  -0.099   0.224   0.380
    1UNK    H14   40   0.052   0.139   0.425
    1UNK    H15   41  -0.085   0.151   0.536
   1.00000   1.00000   1.00000

