
;
; GENERATED BY LigParGen Server
; Jorgensen Lab @ Yale University 
;
[ atomtypes ]
  opls_814  N814    14.0070     0.000    A    3.20000E-01   7.11280E-01
  opls_803  O803    15.9990     0.000    A    2.90000E-01   5.85760E-01
  opls_824  H824     1.0080     0.000    A    2.50000E-01   1.25520E-01
  opls_811  C811    12.0110     0.000    A    3.50000E-01   2.76144E-01
  opls_809  O809    15.9990     0.000    A    2.90000E-01   5.85760E-01
  opls_818  C818    12.0110     0.000    A    3.50000E-01   2.76144E-01
  opls_836  H836     1.0080     0.000    A    2.50000E-01   1.25520E-01
  opls_834  H834     1.0080     0.000    A    2.50000E-01   1.25520E-01
  opls_828  H828     1.0080     0.000    A    2.50000E-01   1.25520E-01
  opls_806  O806    15.9990     0.000    A    2.90000E-01   5.85760E-01
  opls_802  C802    12.0110     0.000    A    3.50000E-01   2.76144E-01
  opls_827  H827     1.0080     0.000    A    2.50000E-01   1.25520E-01
  opls_801  C801    12.0110     0.000    A    3.50000E-01   2.76144E-01
  opls_838  H838     1.0080     0.000    A    2.50000E-01   1.25520E-01
  opls_822  H822     1.0080     0.000    A    2.50000E-01   1.25520E-01
  opls_825  H825     1.0080     0.000    A    2.50000E-01   1.25520E-01
  opls_830  H830     1.0080     0.000    A    2.50000E-01   1.25520E-01
  opls_810  C810    12.0110     0.000    A    3.50000E-01   2.76144E-01
  opls_820  H820     1.0080     0.000    A    2.50000E-01   1.25520E-01
  opls_837  H837     1.0080     0.000    A    2.50000E-01   1.25520E-01
  opls_821  H821     1.0080     0.000    A    2.50000E-01   1.25520E-01
  opls_831  H831     1.0080     0.000    A    2.50000E-01   1.25520E-01
  opls_816  N816    14.0070     0.000    A    3.30000E-01   7.11280E-01
  opls_832  H832     1.0080     0.000    A    2.50000E-01   1.25520E-01
  opls_800  C800    12.0110     0.000    A    3.50000E-01   2.76144E-01
  opls_808  O808    15.9990     0.000    A    2.96000E-01   8.78640E-01
  opls_815  C815    12.0110     0.000    A    3.50000E-01   2.76144E-01
  opls_823  H823     1.0080     0.000    A    2.50000E-01   1.25520E-01
  opls_805  C805    12.0110     0.000    A    3.50000E-01   2.76144E-01
  opls_826  H826     1.0080     0.000    A    2.50000E-01   1.25520E-01
  opls_835  H835     1.0080     0.000    A    2.50000E-01   1.25520E-01
  opls_819  H819     1.0080     0.000    A    2.50000E-01   1.25520E-01
  opls_804  C804    12.0110     0.000    A    3.50000E-01   2.76144E-01
  opls_833  H833     1.0080     0.000    A    2.50000E-01   1.25520E-01
  opls_839  H839     1.0080     0.000    A    2.50000E-01   1.25520E-01
  opls_817  C817    12.0110     0.000    A    3.50000E-01   2.76144E-01
  opls_812  C812    12.0110     0.000    A    3.50000E-01   2.76144E-01
  opls_807  C807    12.0110     0.000    A    3.55000E-01   2.92880E-01
  opls_840  H840     1.0080     0.000    A    2.50000E-01   1.25520E-01
  opls_829  H829     1.0080     0.000    A    2.50000E-01   1.25520E-01
  opls_813  C813    12.0110     0.000    A    3.30000E-01   2.76144E-01
[ moleculetype ]
; Name               nrexcl
UNK                   3
[ atoms ]
;   nr       type  resnr residue  atom   cgnr     charge       mass  
     1   opls_800      1    UNK   C00      1    -0.2398    12.0110 
     2   opls_801      1    UNK   C01      1    -0.2148    12.0110 
     3   opls_802      1    UNK   C02      1     0.0648    12.0110 
     4   opls_803      1    UNK   O03      1    -0.3511    15.9990 
     5   opls_804      1    UNK   C04      1     -0.014    12.0110 
     6   opls_805      1    UNK   C05      1     0.0624    12.0110 
     7   opls_806      1    UNK   O06      1    -0.2961    15.9990 
     8   opls_807      1    UNK   C07      1     0.5713    12.0110 
     9   opls_808      1    UNK   O08      1    -0.5103    15.9990 
    10   opls_809      1    UNK   O09      1     -0.309    15.9990 
    11   opls_810      1    UNK   C0A      1    -0.0452    12.0110 
    12   opls_811      1    UNK   C0B      1    -0.0993    12.0110 
    13   opls_812      1    UNK   C0C      1    -0.0713    12.0110 
    14   opls_813      1    UNK   C0D      1     0.1579    12.0110 
    15   opls_814      1    UNK   N0E      1    -0.3845    14.0070 
    16   opls_815      1    UNK   C0F      1     0.0767    12.0110 
    17   opls_816      1    UNK   N0G      1    -0.5513    14.0070 
    18   opls_817      1    UNK   C0H      1     -0.052    12.0110 
    19   opls_818      1    UNK   C0I      1    -0.0562    12.0110 
    20   opls_819      1    UNK   H0J      1     0.0876     1.0080 
    21   opls_820      1    UNK   H0K      1     0.0876     1.0080 
    22   opls_821      1    UNK   H0M      1     0.0876     1.0080 
    23   opls_822      1    UNK   H0N      1     0.0978     1.0080 
    24   opls_823      1    UNK   H0O      1     0.0978     1.0080 
    25   opls_824      1    UNK   H0P      1     0.1353     1.0080 
    26   opls_825      1    UNK   H0Q      1     0.1174     1.0080 
    27   opls_826      1    UNK   H0R      1     0.1174     1.0080 
    28   opls_827      1    UNK   H0S      1     0.1226     1.0080 
    29   opls_828      1    UNK   H0T      1      0.108     1.0080 
    30   opls_829      1    UNK   H0U      1      0.108     1.0080 
    31   opls_830      1    UNK   H0V      1      0.108     1.0080 
    32   opls_831      1    UNK   H0W      1     0.1211     1.0080 
    33   opls_832      1    UNK   H0X      2     0.1367     1.0080 
    34   opls_833      1    UNK   H0Y      2     0.1367     1.0080 
    35   opls_834      1    UNK   H0Z      2     0.0909     1.0080 
    36   opls_835      1    UNK   H10      2     0.0838     1.0080 
    37   opls_836      1    UNK   H11      2     0.0838     1.0080 
    38   opls_837      1    UNK   H12      2     0.0838     1.0080 
    39   opls_838      1    UNK   H13      2     0.0834     1.0080 
    40   opls_839      1    UNK   H14      2     0.0834     1.0080 
    41   opls_840      1    UNK   H15      2     0.0834     1.0080 
[ bonds ]
    2     1     1      0.1529 224262.400
    3     2     1      0.1529 224262.400
    4     3     1      0.1410 267776.000
    5     4     1      0.1410 267776.000
    6     5     1      0.1529 224262.400
    7     6     1      0.1410 267776.000
    8     7     1      0.1327 179075.200
    9     8     1      0.1229 476976.000
   10     8     1      0.1327 179075.200
   11    10     1      0.1410 267776.000
   12     6     1      0.1529 224262.400
   13    12     1      0.1529 224262.400
   14    13     1      0.1470 326352.000
   15    14     1      0.1157 543920.000
   16     3     1      0.1529 224262.400
   17    16     1      0.1448 319657.600
   18    17     1      0.1448 319657.600
   19    17     1      0.1448 319657.600
   20     1     1      0.1090 284512.000
   21     1     1      0.1090 284512.000
   22     1     1      0.1090 284512.000
   23     2     1      0.1090 284512.000
   24     2     1      0.1090 284512.000
   25     3     1      0.1090 284512.000
   26     5     1      0.1090 284512.000
   27     5     1      0.1090 284512.000
   28     6     1      0.1090 284512.000
   29    11     1      0.1090 284512.000
   30    11     1      0.1090 284512.000
   31    11     1      0.1090 284512.000
   32    12     1      0.1090 284512.000
   33    13     1      0.1090 284512.000
   34    13     1      0.1090 284512.000
   35    16     1      0.1090 284512.000
   36    18     1      0.1090 284512.000
   37    18     1      0.1090 284512.000
   38    18     1      0.1090 284512.000
   39    19     1      0.1090 284512.000
   40    19     1      0.1090 284512.000
   41    19     1      0.1090 284512.000
   16    12     1      0.1529 224262.400

[ angles ]
;  ai    aj    ak funct            c0            c1            c2            c3 
    1     2     3     1    112.700    488.273
    2     3     4     1    109.500    418.400
    3     4     5     1    109.500    502.080
    4     5     6     1    109.500    418.400
    5     6     7     1    109.500    418.400
    6     7     8     1    116.900    694.544
    7     8     9     1    123.400    694.544
    7     8    10     1    118.180    584.923
    8    10    11     1    116.900    694.544
    5     6    12     1    112.700    488.273
    6    12    13     1    112.700    488.273
   12    13    14     1    112.700    488.273
   13    14    15     1    180.000   1255.200
    2     3    16     1    112.700    488.273
    3    16    17     1    109.470    470.282
   16    17    18     1    107.200    433.462
   16    17    19     1    107.200    433.462
    2     1    20     1    110.700    313.800
    2     1    21     1    110.700    313.800
    2     1    22     1    110.700    313.800
    1     2    23     1    110.700    313.800
    1     2    24     1    110.700    313.800
    2     3    25     1    110.700    313.800
    4     5    26     1    109.500    292.880
    4     5    27     1    109.500    292.880
    5     6    28     1    110.700    313.800
   10    11    29     1    109.500    292.880
   10    11    30     1    109.500    292.880
   10    11    31     1    109.500    292.880
    6    12    32     1    110.700    313.800
   12    13    33     1    110.700    313.800
   12    13    34     1    110.700    313.800
    3    16    35     1    110.700    313.800
   17    18    36     1    109.500    292.880
   17    18    37     1    109.500    292.880
   17    18    38     1    109.500    292.880
   17    19    39     1    109.500    292.880
   17    19    40     1    109.500    292.880
   17    19    41     1    109.500    292.880
   33    13    34     1    107.800    276.144
   36    18    37     1    107.800    276.144
   12    16    35     1    110.700    313.800
   14    13    33     1    108.500    292.880
   39    19    41     1    107.800    276.144
    7     6    28     1    109.500    292.880
   13    12    32     1    110.700    313.800
    3    16    12     1    112.700    488.273
    3     2    23     1    110.700    313.800
    6    12    16     1    112.700    488.273
   30    11    31     1    107.800    276.144
   29    11    30     1    107.800    276.144
   29    11    31     1    107.800    276.144
   13    12    16     1    112.700    488.273
   18    17    19     1    107.200    433.462
    4     3    25     1    109.500    292.880
   17    16    35     1    109.500    292.880
   12     6    28     1    110.700    313.800
    6     5    26     1    110.700    313.800
   12    16    17     1    109.470    470.282
    6     5    27     1    110.700    313.800
   16    12    32     1    110.700    313.800
   37    18    38     1    107.800    276.144
   26     5    27     1    107.800    276.144
   14    13    34     1    108.500    292.880
   40    19    41     1    107.800    276.144
   21     1    22     1    107.800    276.144
    3     2    24     1    110.700    313.800
   39    19    40     1    107.800    276.144
    4     3    16     1    109.500    418.400
   20     1    22     1    107.800    276.144
   20     1    21     1    107.800    276.144
   16     3    25     1    110.700    313.800
   36    18    38     1    107.800    276.144
    9     8    10     1    123.400    694.544
   23     2    24     1    107.800    276.144
    7     6    12     1    109.500    418.400

[ dihedrals ]
; IMPROPER DIHEDRAL ANGLES 
;  ai    aj    ak    al funct            c0            c1            c2            c3            c4            c5
    10     8     7     9    4        180.000     43.932     2  

[ dihedrals ]
; PROPER DIHEDRAL ANGLES
;  ai    aj    ak    al funct            c0            c1            c2            c3            c4            c5
    8    7    6    5        3      -2.197   5.201   0.527  -3.531  -0.000   0.000
   16    3    2    1        3       2.301  -1.464   0.837  -1.674  -0.000   0.000
   12   16    3    2        3       2.301  -1.464   0.837  -1.674  -0.000   0.000
   13   12   16    3        3       2.301  -1.464   0.837  -1.674  -0.000   0.000
    6   12   16    3        3       2.301  -1.464   0.837  -1.674  -0.000   0.000
   16   12    6    5        3       2.301  -1.464   0.837  -1.674  -0.000   0.000
   13   12    6    5        3       2.301  -1.464   0.837  -1.674  -0.000   0.000
   16   12   13   14        3      -2.720   0.000   2.720  -0.000  -0.000   0.000
   12   16    3    4        3       2.874   0.582   2.092  -5.548  -0.000   0.000
   13   12    6    7        3       2.874   0.582   2.092  -5.548  -0.000   0.000
   12    6    5    4        3       2.874   0.582   2.092  -5.548  -0.000   0.000
   16   12    6    7        3       2.874   0.582   2.092  -5.548  -0.000   0.000
   12    6    7    8        3      -2.197   5.201   0.527  -3.531  -0.000   0.000
   16    3    4    5        3       1.715   2.845   1.046  -5.607  -0.000   0.000
    6    5    4    3        3       1.715   2.845   1.046  -5.607  -0.000   0.000
   19   17   16    3        3       1.789   3.492   0.536  -5.816  -0.000   0.000
   19   17   16   12        3       1.789   3.492   0.536  -5.816  -0.000   0.000
   18   17   16   12        3       1.789   3.492   0.536  -5.816  -0.000   0.000
   18   17   16    3        3       1.789   3.492   0.536  -5.816  -0.000   0.000
   11   10    8    9        3      21.439   0.000  -21.439  -0.000  -0.000   0.000
   11   10    8    7        3      31.206  -9.768  -21.439  -0.000  -0.000   0.000
    5    4    3    2        3       1.715   2.845   1.046  -5.607  -0.000   0.000
   14   13   12    6        3      -2.720   0.000   2.720  -0.000  -0.000   0.000
   23    2    3   16        3       0.628   1.883   0.000  -2.510  -0.000   0.000
   35   16   12   13        3       0.628   1.883   0.000  -2.510  -0.000   0.000
   35   16   12    6        3       0.628   1.883   0.000  -2.510  -0.000   0.000
   28    6   12   13        3       0.628   1.883   0.000  -2.510  -0.000   0.000
   27    5    6   12        3       0.628   1.883   0.000  -2.510  -0.000   0.000
   32   12    6    5        3       0.628   1.883   0.000  -2.510  -0.000   0.000
   25    3   16   12        3       0.628   1.883   0.000  -2.510  -0.000   0.000
   28    6   12   16        3       0.628   1.883   0.000  -2.510  -0.000   0.000
   21    1    2    3        3       0.628   1.883   0.000  -2.510  -0.000   0.000
   33   13   12   16        3       0.628   1.883   0.000  -2.510  -0.000   0.000
   32   12   16    3        3       0.628   1.883   0.000  -2.510  -0.000   0.000
   24    2    3   16        3       0.628   1.883   0.000  -2.510  -0.000   0.000
   34   13   12    6        3       0.628   1.883   0.000  -2.510  -0.000   0.000
   22    1    2    3        3       0.628   1.883   0.000  -2.510  -0.000   0.000
   34   13   12   16        3       0.628   1.883   0.000  -2.510  -0.000   0.000
   33   13   12    6        3       0.628   1.883   0.000  -2.510  -0.000   0.000
   25    3    2    1        3       0.628   1.883   0.000  -2.510  -0.000   0.000
   26    5    6   12        3       0.628   1.883   0.000  -2.510  -0.000   0.000
   35   16    3    2        3       0.628   1.883   0.000  -2.510  -0.000   0.000
   20    1    2    3        3       0.628   1.883   0.000  -2.510  -0.000   0.000
   32   12   13   14        3       0.766   2.297   0.000  -3.063  -0.000   0.000
   24    2    1   22        3       0.628   1.883   0.000  -2.510  -0.000   0.000
   32   12    6   28        3       0.628   1.883   0.000  -2.510  -0.000   0.000
   24    2    1   21        3       0.628   1.883   0.000  -2.510  -0.000   0.000
   23    2    1   22        3       0.628   1.883   0.000  -2.510  -0.000   0.000
   28    6    5   26        3       0.628   1.883   0.000  -2.510  -0.000   0.000
   34   13   12   32        3       0.628   1.883   0.000  -2.510  -0.000   0.000
   35   16    3   25        3       0.628   1.883   0.000  -2.510  -0.000   0.000
   25    3    2   24        3       0.628   1.883   0.000  -2.510  -0.000   0.000
   35   16   12   32        3       0.628   1.883   0.000  -2.510  -0.000   0.000
   28    6    5   27        3       0.628   1.883   0.000  -2.510  -0.000   0.000
   33   13   12   32        3       0.628   1.883   0.000  -2.510  -0.000   0.000
   24    2    1   20        3       0.628   1.883   0.000  -2.510  -0.000   0.000
   23    2    1   21        3       0.628   1.883   0.000  -2.510  -0.000   0.000
   23    2    1   20        3       0.628   1.883   0.000  -2.510  -0.000   0.000
   25    3    2   23        3       0.628   1.883   0.000  -2.510  -0.000   0.000
   32   12   16   17        3      -4.096   5.088   2.966  -3.958  -0.000   0.000
   25    3   16   17        3      -4.096   5.088   2.966  -3.958  -0.000   0.000
   28    6    5    4        3       0.979   2.937   0.000  -3.916  -0.000   0.000
   24    2    3    4        3       0.979   2.937   0.000  -3.916  -0.000   0.000
   27    5    6    7        3       0.979   2.937   0.000  -3.916  -0.000   0.000
   32   12    6    7        3       0.979   2.937   0.000  -3.916  -0.000   0.000
   23    2    3    4        3       0.979   2.937   0.000  -3.916  -0.000   0.000
   26    5    6    7        3       0.979   2.937   0.000  -3.916  -0.000   0.000
   35   16    3    4        3       0.979   2.937   0.000  -3.916  -0.000   0.000
   34   13   14   15        3       0.000   0.000   0.000  -0.000  -0.000   0.000
   33   13   14   15        3       0.000   0.000   0.000  -0.000  -0.000   0.000
   36   18   17   19        3       1.172   3.515   0.000  -4.686  -0.000   0.000
   37   18   17   19        3       1.172   3.515   0.000  -4.686  -0.000   0.000
   40   19   17   18        3       1.172   3.515   0.000  -4.686  -0.000   0.000
   38   18   17   19        3       1.172   3.515   0.000  -4.686  -0.000   0.000
   36   18   17   16        3       1.172   3.515   0.000  -4.686  -0.000   0.000
   40   19   17   16        3       1.172   3.515   0.000  -4.686  -0.000   0.000
   35   16   17   18        3       1.172   3.515   0.000  -4.686  -0.000   0.000
   41   19   17   16        3       1.172   3.515   0.000  -4.686  -0.000   0.000
   41   19   17   18        3       1.172   3.515   0.000  -4.686  -0.000   0.000
   39   19   17   18        3       1.172   3.515   0.000  -4.686  -0.000   0.000
   39   19   17   16        3       1.172   3.515   0.000  -4.686  -0.000   0.000
   38   18   17   16        3       1.172   3.515   0.000  -4.686  -0.000   0.000
   37   18   17   16        3       1.172   3.515   0.000  -4.686  -0.000   0.000
   35   16   17   19        3       1.172   3.515   0.000  -4.686  -0.000   0.000
   28    6    7    8        3       0.414   1.243   0.000  -1.657  -0.000   0.000
   31   11   10    8        3       0.414   1.243   0.000  -1.657  -0.000   0.000
   30   11   10    8        3       0.414   1.243   0.000  -1.657  -0.000   0.000
   29   11   10    8        3       0.414   1.243   0.000  -1.657  -0.000   0.000
   27    5    4    3        3       1.590   4.770   0.000  -6.360  -0.000   0.000
   26    5    4    3        3       1.590   4.770   0.000  -6.360  -0.000   0.000
   25    3    4    5        3       1.590   4.770   0.000  -6.360  -0.000   0.000
   17   16   12    6        3       3.335  -1.552   2.820  -4.602  -0.000   0.000
   17   16    3    2        3       3.335  -1.552   2.820  -4.602  -0.000   0.000
   17   16   12   13        3       3.335  -1.552   2.820  -4.602  -0.000   0.000
   17   16    3    4        3      16.736  -16.736   0.000  -0.000  -0.000   0.000
   15   14   13   12        3       0.000   0.000   0.000  -0.000  -0.000   0.000
    9    8    7    6        3      21.439   0.000  -21.439  -0.000  -0.000   0.000
   10    8    7    6        3      31.206  -9.768  -21.439  -0.000  -0.000   0.000
    4    3    2    1        3       2.874   0.582   2.092  -5.548  -0.000   0.000
    7    6    5    4        3      -1.151   1.151   0.000  -0.000  -0.000   0.000

[ pairs ]
     1     4    1
     2     5    1
     3     6    1
     4     7    1
     5     8    1
     2    12    1
     6     9    1
     6    10    1
     4    12    1
     3    13    1
     1    16    1
     7    11    1
     5    13    1
     2    17    1
     9    11    1
     8    12    1
     7    13    1
     6    14    1
     5    16    1
     4    17    1
     3    18    1
     3    19    1
     7    16    1
     6    17    1
     3    20    1
     3    21    1
     3    22    1
     1    25    1
    12    15    1
     4    23    1
     4    24    1
     3    26    1
    14    16    1
    13    17    1
    12    18    1
     5    25    1
     3    27    1
    12    19    1
     4    28    1
     7    26    1
     7    27    1
     3    32    1
     8    28    1
    12    25    1
     8    29    1
     5    32    1
     2    35    1
    12    26    1
     8    30    1
    16    23    1
    12    27    1
     8    31    1
     7    32    1
     6    33    1
     4    35    1
    16    24    1
     6    34    1
    13    28    1
     6    35    1
    17    25    1
    20    23    1
    21    23    1
    20    24    1
    16    28    1
    22    23    1
    21    24    1
    22    24    1
    14    32    1
    23    25    1
    15    33    1
    13    35    1
    24    25    1
    17    32    1
    16    33    1
    15    34    1
    16    34    1
    16    36    1
    18    35    1
    16    37    1
    26    28    1
    19    35    1
    16    38    1
    27    28    1
    19    36    1
    16    39    1
    19    37    1
    16    40    1
    19    38    1
    18    39    1
    16    41    1
    18    40    1
    18    41    1
    28    32    1
    25    35    1
    32    33    1
    32    34    1
    32    35    1

