LIGPARGEN GENERATED GRO FILE
   38
    1UNK    C00    1   0.100   0.100   0.000
    1UNK    C01    2  -0.052   0.100   0.000
    1UNK    C02    3  -0.111   0.100   0.141
    1UNK    C03    4  -0.264   0.093   0.131
    1UNK    C04    5  -0.334   0.093   0.267
    1UNK    C05    6  -0.488   0.095   0.254
    1UNK    C06    7  -0.542  -0.028   0.178
    1UNK    C07    8  -0.694  -0.024   0.159
    1UNK    C08    9  -0.742  -0.147   0.084
    1UNK    O09   10  -0.545   0.094   0.387
    1UNK    C0A   11  -0.555   0.214   0.450
    1UNK    O0B   12  -0.520   0.322   0.403
    1UNK    C0C   13  -0.616   0.195   0.586
    1UNK    C0D   14  -0.624   0.325   0.664
    1UNK    H0E   15   0.137   0.100  -0.103
    1UNK    H0F   16   0.139   0.011   0.050
    1UNK    H0G   17   0.140   0.189   0.050
    1UNK    H0H   18  -0.087   0.012  -0.055
    1UNK    H0I   19  -0.087   0.188  -0.055
    1UNK    H0J   20  -0.081   0.191   0.195
    1UNK    H0K   21  -0.074   0.014   0.198
    1UNK    H0M   22  -0.289   0.002   0.076
    1UNK    H0N   23  -0.300   0.178   0.072
    1UNK    H0O   24  -0.302   0.180   0.325
    1UNK    H0P   25  -0.304   0.005   0.325
    1UNK    H0Q   26  -0.520   0.186   0.200
    1UNK    H0R   27  -0.516  -0.119   0.234
    1UNK    H0S   28  -0.497  -0.034   0.079
    1UNK    H0T   29  -0.722   0.066   0.102
    1UNK    H0U   30  -0.745  -0.018   0.256
    1UNK    H0V   31  -0.693  -0.156  -0.013
    1UNK    H0W   32  -0.850  -0.142   0.066
    1UNK    H0X   33  -0.722  -0.238   0.141
    1UNK    H0Y   34  -0.554   0.123   0.642
    1UNK    H0Z   35  -0.717   0.153   0.574
    1UNK    H10   36  -0.525   0.369   0.678
    1UNK    H11   37  -0.667   0.307   0.764
    1UNK    H12   38  -0.687   0.398   0.613
   1.00000   1.00000   1.00000

