
;
; GENERATED BY LigParGen Server
; Jorgensen Lab @ Yale University 
;
[ atomtypes ]
  opls_818  H818     1.0080     0.000    A    2.50000E-01   1.25520E-01
  opls_804  C804    12.0110     0.000    A    3.45000E-01   3.47272E-01
  opls_824  H824     1.0080     0.000    A    2.50000E-01   1.25520E-01
  opls_802  C802    12.0110     0.000    A    3.45000E-01   3.47272E-01
  opls_813  H813     1.0080     0.000    A    2.50000E-01   1.25520E-01
  opls_807  C807    12.0110     0.000    A    3.45000E-01   3.47272E-01
  opls_815  H815     1.0080     0.000    A    2.50000E-01   1.25520E-01
  opls_801  C801    12.0110     0.000    A    3.50000E-01   2.76144E-01
  opls_822  H822     1.0080     0.000    A    2.50000E-01   1.25520E-01
  opls_808  C808    12.0110     0.000    A    3.45000E-01   3.47272E-01
  opls_825  H825     1.0080     0.000    A    2.50000E-01   1.25520E-01
  opls_814  H814     1.0080     0.000    A    2.50000E-01   1.25520E-01
  opls_821  H821     1.0080     0.000    A    2.50000E-01   1.25520E-01
  opls_820  H820     1.0080     0.000    A    2.50000E-01   1.25520E-01
  opls_803  C803    12.0110     0.000    A    3.45000E-01   3.47272E-01
  opls_811  H811     1.0080     0.000    A    2.50000E-01   1.25520E-01
  opls_810  H810     1.0080     0.000    A    2.50000E-01   1.25520E-01
  opls_816  H816     1.0080     0.000    A    2.50000E-01   1.25520E-01
  opls_800  C800    12.0110     0.000    A    3.50000E-01   2.76144E-01
  opls_823  H823     1.0080     0.000    A    2.50000E-01   1.25520E-01
  opls_806  C806    12.0110     0.000    A    3.45000E-01   3.47272E-01
  opls_819  H819     1.0080     0.000    A    2.50000E-01   1.25520E-01
  opls_805  C805    12.0110     0.000    A    3.50000E-01   2.76144E-01
  opls_809  C809    12.0110     0.000    A    3.50000E-01   2.76144E-01
  opls_817  H817     1.0080     0.000    A    2.50000E-01   1.25520E-01
  opls_812  H812     1.0080     0.000    A    2.50000E-01   1.25520E-01
[ moleculetype ]
; Name               nrexcl
UNK                   3
[ atoms ]
;   nr       type  resnr residue  atom   cgnr     charge       mass  
     1   opls_800      1    UNK   C00      1    -0.1729    12.0110 
     2   opls_801      1    UNK   C01      1    -0.1425    12.0110 
     3   opls_802      1    UNK   C02      1    -0.1735    12.0110 
     4   opls_803      1    UNK   C03      1    -0.2448    12.0110 
     5   opls_804      1    UNK   C04      1    -0.1634    12.0110 
     6   opls_805      1    UNK   C05      1    -0.0464    12.0110 
     7   opls_806      1    UNK   C06      1    -0.1772    12.0110 
     8   opls_807      1    UNK   C07      1     -0.245    12.0110 
     9   opls_808      1    UNK   C08      1    -0.2384    12.0110 
    10   opls_809      1    UNK   C09      1    -0.1663    12.0110 
    11   opls_810      1    UNK   H0A      1     0.0865     1.0080 
    12   opls_811      1    UNK   H0B      1     0.0865     1.0080 
    13   opls_812      1    UNK   H0C      1     0.0897     1.0080 
    14   opls_813      1    UNK   H0D      1     0.0897     1.0080 
    15   opls_814      1    UNK   H0E      1     0.1288     1.0080 
    16   opls_815      1    UNK   H0F      1     0.1231     1.0080 
    17   opls_816      1    UNK   H0G      1     0.1231     1.0080 
    18   opls_817      1    UNK   H0H      1     0.1322     1.0080 
    19   opls_818      1    UNK   H0I      1     0.0999     1.0080 
    20   opls_819      1    UNK   H0J      1     0.1363     1.0080 
    21   opls_820      1    UNK   H0K      1     0.1231     1.0080 
    22   opls_821      1    UNK   H0M      1     0.1231     1.0080 
    23   opls_822      1    UNK   H0N      1     0.1231     1.0080 
    24   opls_823      1    UNK   H0O      1     0.1231     1.0080 
    25   opls_824      1    UNK   H0P      1     0.0913     1.0080 
    26   opls_825      1    UNK   H0Q      1     0.0913     1.0080 
[ bonds ]
    2     1     1      0.1529 224262.400
    3     2     1      0.1510 234304.000
    4     3     1      0.1520 217568.000
    5     3     1      0.1520 217568.000
    6     5     1      0.1510 234304.000
    7     6     1      0.1510 234304.000
    8     7     1      0.1520 217568.000
    9     7     1      0.1520 217568.000
   10     1     1      0.1529 224262.400
   11     1     1      0.1090 284512.000
   12     1     1      0.1090 284512.000
   13     2     1      0.1090 284512.000
   14     2     1      0.1090 284512.000
   15     3     1      0.1088 284512.000
   16     4     1      0.1088 284512.000
   17     4     1      0.1088 284512.000
   18     5     1      0.1088 284512.000
   19     6     1      0.1090 284512.000
   20     7     1      0.1088 284512.000
   21     8     1      0.1088 284512.000
   22     8     1      0.1088 284512.000
   23     9     1      0.1088 284512.000
   24     9     1      0.1088 284512.000
   25    10     1      0.1090 284512.000
   26    10     1      0.1090 284512.000
    5     4     1      0.1520 217568.000
   10     6     1      0.1529 224262.400
    9     8     1      0.1520 217568.000

[ angles ]
;  ai    aj    ak funct            c0            c1            c2            c3 
    1     2     3     1    112.700    488.273
    2     3     4     1    117.200    313.800
    2     3     5     1    117.200    313.800
    3     5     6     1    117.200    313.800
    5     6     7     1    112.700    488.273
    6     7     8     1    117.200    313.800
    6     7     9     1    117.200    313.800
    2     1    10     1    112.700    488.273
    2     1    11     1    110.700    313.800
    2     1    12     1    110.700    313.800
    1     2    13     1    110.700    313.800
    1     2    14     1    110.700    313.800
    2     3    15     1    114.300    292.880
    3     4    16     1    117.200    313.800
    3     4    17     1    117.200    313.800
    3     5    18     1    117.200    313.800
    5     6    19     1    110.700    313.800
    6     7    20     1    114.300    292.880
    7     8    21     1    117.200    313.800
    7     8    22     1    117.200    313.800
    7     9    23     1    117.200    313.800
    7     9    24     1    117.200    313.800
    1    10    25     1    110.700    313.800
    1    10    26     1    110.700    313.800
   23     9    24     1    114.300    292.880
    3     2    14     1    110.700    313.800
    3     5     4     1     83.000    251.040
   13     2    14     1    107.800    276.144
    4     5     6     1    117.200    313.800
   25    10    26     1    107.800    276.144
    8     7     9     1     83.000    251.040
   11     1    12     1    107.800    276.144
    9     8    22     1    117.200    313.800
    4     3     5     1     83.000    251.040
   16     4    17     1    114.300    292.880
    5     4    16     1    117.200    313.800
   10     6    19     1    110.700    313.800
    6    10    25     1    110.700    313.800
    1    10     6     1    112.700    488.273
    7     6    19     1    110.700    313.800
    8     7    20     1    117.200    313.800
    5     3    15     1    117.200    313.800
    5     6    10     1    112.700    488.273
    7     6    10     1    112.700    488.273
   10     1    12     1    110.700    313.800
   10     1    11     1    110.700    313.800
    3     2    13     1    110.700    313.800
   21     8    22     1    114.300    292.880
    8     9    24     1    117.200    313.800
    9     7    20     1    117.200    313.800
    7     9     8     1     83.000    251.040
    6    10    26     1    110.700    313.800
    9     8    21     1    117.200    313.800
    4     5    18     1    117.200    313.800
    8     9    23     1    117.200    313.800
    7     8     9     1     83.000    251.040
    4     3    15     1    117.200    313.800
    6     5    18     1    114.300    292.880
    3     4     5     1     83.000    251.040
    5     4    17     1    117.200    313.800

[ dihedrals ]
; IMPROPER DIHEDRAL ANGLES 
;  ai    aj    ak    al funct            c0            c1            c2            c3            c4            c5

[ dihedrals ]
; PROPER DIHEDRAL ANGLES
;  ai    aj    ak    al funct            c0            c1            c2            c3            c4            c5
    6   10    1    2        3       2.301  -1.464   0.837  -1.674  -0.000   0.000
   10    1    2    3        3       2.301  -1.464   0.837  -1.674  -0.000   0.000
   10    6    7    9        3       0.000   0.000   0.000  -0.000  -0.000   0.000
   10    6    7    8        3       0.000   0.000   0.000  -0.000  -0.000   0.000
   10    6    5    3        3       0.000   0.000   0.000  -0.000  -0.000   0.000
   10    6    5    4        3       0.000   0.000   0.000  -0.000  -0.000   0.000
    6    5    3    2        3       0.000   0.000   0.000  -0.000  -0.000   0.000
    6    5    3    4        3       0.000   0.000   0.000  -0.000  -0.000   0.000
    6    5    4    3        3       0.000   0.000   0.000  -0.000  -0.000   0.000
    7    6   10    1        3       2.301  -1.464   0.837  -1.674  -0.000   0.000
    5    6   10    1        3       2.301  -1.464   0.837  -1.674  -0.000   0.000
    7    6    5    3        3       0.000   0.000   0.000  -0.000  -0.000   0.000
    7    6    5    4        3       0.000   0.000   0.000  -0.000  -0.000   0.000
    5    3    2    1        3       0.000   0.000   0.000  -0.000  -0.000   0.000
    4    3    2    1        3       0.000   0.000   0.000  -0.000  -0.000   0.000
    9    7    6    8        3       0.000   0.000   0.000  -0.000  -0.000   0.000
    5    3    2    4        3       0.000   0.000   0.000  -0.000  -0.000   0.000
    8    7    6    5        3       0.000   0.000   0.000  -0.000  -0.000   0.000
    9    7    6    5        3       0.000   0.000   0.000  -0.000  -0.000   0.000
   19    6   10    1        3       0.628   1.883   0.000  -2.510  -0.000   0.000
   26   10    1    2        3       0.628   1.883   0.000  -2.510  -0.000   0.000
   12    1   10    6        3       0.628   1.883   0.000  -2.510  -0.000   0.000
   11    1   10    6        3       0.628   1.883   0.000  -2.510  -0.000   0.000
   25   10    1    2        3       0.628   1.883   0.000  -2.510  -0.000   0.000
   13    2    1   10        3       0.628   1.883   0.000  -2.510  -0.000   0.000
   14    2    1   10        3       0.628   1.883   0.000  -2.510  -0.000   0.000
   26   10    6    5        3       0.628   1.883   0.000  -2.510  -0.000   0.000
   25   10    6    7        3       0.628   1.883   0.000  -2.510  -0.000   0.000
   12    1    2    3        3       0.628   1.883   0.000  -2.510  -0.000   0.000
   26   10    6    7        3       0.628   1.883   0.000  -2.510  -0.000   0.000
   25   10    6    5        3       0.628   1.883   0.000  -2.510  -0.000   0.000
   11    1    2    3        3       0.628   1.883   0.000  -2.510  -0.000   0.000
   14    2    1   11        3       0.628   1.883   0.000  -2.510  -0.000   0.000
   26   10    6   19        3       0.628   1.883   0.000  -2.510  -0.000   0.000
   13    2    1   12        3       0.628   1.883   0.000  -2.510  -0.000   0.000
   14    2    1   12        3       0.628   1.883   0.000  -2.510  -0.000   0.000
   26   10    1   12        3       0.628   1.883   0.000  -2.510  -0.000   0.000
   13    2    1   11        3       0.628   1.883   0.000  -2.510  -0.000   0.000
   25   10    1   12        3       0.628   1.883   0.000  -2.510  -0.000   0.000
   26   10    1   11        3       0.628   1.883   0.000  -2.510  -0.000   0.000
   25   10    1   11        3       0.628   1.883   0.000  -2.510  -0.000   0.000
   25   10    6   19        3       0.628   1.883   0.000  -2.510  -0.000   0.000
   13    2    3    5        3       0.628   1.883   0.000  -2.510  -0.000   0.000
   14    2    3    4        3       0.628   1.883   0.000  -2.510  -0.000   0.000
   19    6    5    4        3       0.628   1.883   0.000  -2.510  -0.000   0.000
   19    6    7    9        3       0.628   1.883   0.000  -2.510  -0.000   0.000
   19    6    5    3        3       0.628   1.883   0.000  -2.510  -0.000   0.000
   13    2    3    4        3       0.628   1.883   0.000  -2.510  -0.000   0.000
   14    2    3    5        3       0.628   1.883   0.000  -2.510  -0.000   0.000
   19    6    7    8        3       0.628   1.883   0.000  -2.510  -0.000   0.000
   19    6    5   18        3       0.628   1.883   0.000  -2.510  -0.000   0.000
   18    5    6   10        3       0.628   1.883   0.000  -2.510  -0.000   0.000
   15    3    2    1        3       0.628   1.883   0.000  -2.510  -0.000   0.000
   20    7    6   10        3       0.628   1.883   0.000  -2.510  -0.000   0.000
   18    5    6    7        3       0.000   0.000   0.000  -0.000  -0.000   0.000
   20    7    6    5        3       0.000   0.000   0.000  -0.000  -0.000   0.000
   15    3    2   13        3       0.628   1.883   0.000  -2.510  -0.000   0.000
   20    7    6   19        3       0.628   1.883   0.000  -2.510  -0.000   0.000
   15    3    2   14        3       0.628   1.883   0.000  -2.510  -0.000   0.000
   16    4    3    2        3       0.000   0.000   0.000  -0.000  -0.000   0.000
   17    4    3    2        3       0.000   0.000   0.000  -0.000  -0.000   0.000
   21    8    7    6        3       0.000   0.000   0.000  -0.000  -0.000   0.000
   17    4    5    6        3       0.000   0.000   0.000  -0.000  -0.000   0.000
   15    3    5    6        3       0.000   0.000   0.000  -0.000  -0.000   0.000
   24    9    7    6        3       0.000   0.000   0.000  -0.000  -0.000   0.000
   22    8    7    6        3       0.000   0.000   0.000  -0.000  -0.000   0.000
   16    4    5    6        3       0.000   0.000   0.000  -0.000  -0.000   0.000
   23    9    7    6        3       0.000   0.000   0.000  -0.000  -0.000   0.000
   18    5    3    2        3       0.000   0.000   0.000  -0.000  -0.000   0.000
   23    9    7    8        3       0.000   0.000   0.000  -0.000  -0.000   0.000
   15    3    5    4        3       0.000   0.000   0.000  -0.000  -0.000   0.000
   22    8    7    9        3       0.000   0.000   0.000  -0.000  -0.000   0.000
   24    9    8    7        3       0.000   0.000   0.000  -0.000  -0.000   0.000
   18    5    3    4        3       0.000   0.000   0.000  -0.000  -0.000   0.000
   16    4    3    5        3       0.000   0.000   0.000  -0.000  -0.000   0.000
   21    8    7    9        3       0.000   0.000   0.000  -0.000  -0.000   0.000
   17    4    3    5        3       0.000   0.000   0.000  -0.000  -0.000   0.000
   17    4    5    3        3       0.000   0.000   0.000  -0.000  -0.000   0.000
   18    5    4    3        3       0.000   0.000   0.000  -0.000  -0.000   0.000
   16    4    5    3        3       0.000   0.000   0.000  -0.000  -0.000   0.000
   15    3    4    5        3       0.000   0.000   0.000  -0.000  -0.000   0.000
   20    7    8    9        3       0.000   0.000   0.000  -0.000  -0.000   0.000
   20    7    9    8        3       0.000   0.000   0.000  -0.000  -0.000   0.000
   21    8    9    7        3       0.000   0.000   0.000  -0.000  -0.000   0.000
   24    9    7    8        3       0.000   0.000   0.000  -0.000  -0.000   0.000
   22    8    9    7        3       0.000   0.000   0.000  -0.000  -0.000   0.000
   23    9    8    7        3       0.000   0.000   0.000  -0.000  -0.000   0.000
   18    5    4   16        3       0.000   0.000   0.000  -0.000  -0.000   0.000
   24    9    8   22        3       0.000   0.000   0.000  -0.000  -0.000   0.000
   21    8    7   20        3       0.000   0.000   0.000  -0.000  -0.000   0.000
   16    4    3   15        3       0.000   0.000   0.000  -0.000  -0.000   0.000
   23    9    7   20        3       0.000   0.000   0.000  -0.000  -0.000   0.000
   22    8    7   20        3       0.000   0.000   0.000  -0.000  -0.000   0.000
   18    5    3   15        3       0.000   0.000   0.000  -0.000  -0.000   0.000
   18    5    4   17        3       0.000   0.000   0.000  -0.000  -0.000   0.000
   23    9    8   21        3       0.000   0.000   0.000  -0.000  -0.000   0.000
   24    9    8   21        3       0.000   0.000   0.000  -0.000  -0.000   0.000
   24    9    7   20        3       0.000   0.000   0.000  -0.000  -0.000   0.000
   17    4    3   15        3       0.000   0.000   0.000  -0.000  -0.000   0.000
   23    9    8   22        3       0.000   0.000   0.000  -0.000  -0.000   0.000

[ pairs ]
     1     4    1
     1     5    1
     2     6    1
     1     7    1
     3     7    1
     4     7    1
     5     8    1
     3    10    1
     5     9    1
     4    10    1
     3    11    1
     3    12    1
     1    15    1
     6    11    1
     4    13    1
     8    10    1
     6    12    1
     5    13    1
     4    14    1
     2    16    1
     9    10    1
     5    14    1
     2    17    1
     2    18    1
     1    19    1
     6    15    1
     6    16    1
     3    19    1
    10    13    1
     6    17    1
     4    19    1
    11    13    1
    10    14    1
    12    13    1
    11    14    1
     7    18    1
     5    20    1
    12    14    1
     8    19    1
     6    21    1
     2    25    1
    13    15    1
    10    18    1
     9    19    1
     6    22    1
     2    26    1
    14    15    1
     6    23    1
    10    20    1
     6    24    1
     5    25    1
    15    16    1
     5    26    1
    15    17    1
     7    25    1
    15    18    1
     7    26    1
    16    18    1
    17    18    1
    11    25    1
    18    19    1
    12    25    1
    11    26    1
    12    26    1
    19    20    1
    20    21    1
    20    22    1
    20    23    1
    21    23    1
    20    24    1
    19    25    1
    22    23    1
    21    24    1
    19    26    1
    22    24    1

