LIGPARGEN GENERATED GRO FILE
   26
    1UNK    C00    1   0.100   0.100   0.000
    1UNK    C01    2  -0.053   0.100   0.000
    1UNK    C02    3  -0.115   0.100   0.136
    1UNK    C03    4  -0.126  -0.032   0.209
    1UNK    C04    5  -0.034   0.076   0.261
    1UNK    C05    6   0.116   0.066   0.253
    1UNK    C06    7   0.180   0.198   0.290
    1UNK    C07    8   0.165   0.255   0.429
    1UNK    C08    9   0.298   0.202   0.384
    1UNK    C09   10   0.162   0.019   0.114
    1UNK    H0A   11   0.136   0.203   0.004
    1UNK    H0B   12   0.135   0.060  -0.096
    1UNK    H0C   13  -0.090   0.013  -0.056
    1UNK    H0D   14  -0.087   0.188  -0.055
    1UNK    H0E   15  -0.199   0.168   0.143
    1UNK    H0F   16  -0.084  -0.121   0.164
    1UNK    H0G   17  -0.218  -0.051   0.265
    1UNK    H0H   18  -0.067   0.123   0.353
    1UNK    H0I   19   0.148  -0.010   0.326
    1UNK    H0J   20   0.177   0.270   0.209
    1UNK    H0K   21   0.111   0.198   0.503
    1UNK    H0M   22   0.153   0.363   0.438
    1UNK    H0N   23   0.333   0.110   0.429
    1UNK    H0O   24   0.377   0.274   0.362
    1UNK    H0P   25   0.137  -0.087   0.100
    1UNK    H0Q   26   0.272   0.026   0.107
   1.00000   1.00000   1.00000

