LIGPARGEN GENERATED GRO FILE
   40
    1UNK    C00    1   0.100   0.100   0.000
    1UNK    O01    2  -0.042   0.100   0.000
    1UNK    C02    3  -0.095   0.100   0.133
    1UNK    C03    4  -0.249   0.100   0.125
    1UNK    C04    5  -0.299  -0.026   0.053
    1UNK    C05    6  -0.315   0.110   0.264
    1UNK    C06    7  -0.280   0.237   0.345
    1UNK    C07    8  -0.326   0.364   0.274
    1UNK    O08    9  -0.348   0.236   0.472
    1UNK    C09   10  -0.302   0.149   0.566
    1UNK    O0A   11  -0.208   0.073   0.553
    1UNK    O0B   12  -0.385   0.154   0.672
    1UNK    C0C   13  -0.413   0.027   0.731
    1UNK    C0D   14  -0.347   0.007   0.867
    1UNK    C0E   15  -0.393  -0.126   0.922
    1UNK    O0F   16  -0.469  -0.203   0.865
    1UNK    O0G   17  -0.337  -0.149   1.044
    1UNK    C0H   18  -0.376  -0.274   1.102
    1UNK    H0I   19   0.134   0.093  -0.104
    1UNK    H0J   20   0.139   0.014   0.055
    1UNK    H0K   21   0.138   0.193   0.043
    1UNK    H0M   22  -0.059   0.190   0.184
    1UNK    H0N   23  -0.060   0.011   0.186
    1UNK    H0O   24  -0.280   0.185   0.063
    1UNK    H0P   25  -0.287  -0.115   0.116
    1UNK    H0Q   26  -0.245  -0.044  -0.041
    1UNK    H0R   27  -0.405  -0.017   0.028
    1UNK    H0S   28  -0.288   0.021   0.322
    1UNK    H0T   29  -0.424   0.105   0.252
    1UNK    H0U   30  -0.172   0.244   0.365
    1UNK    H0V   31  -0.428   0.353   0.236
    1UNK    H0W   32  -0.261   0.387   0.189
    1UNK    H0X   33  -0.326   0.449   0.342
    1UNK    H0Y   34  -0.386  -0.055   0.662
    1UNK    H0Z   35  -0.522   0.023   0.742
    1UNK    H10   36  -0.378   0.087   0.935
    1UNK    H11   37  -0.238   0.008   0.857
    1UNK    H12   38  -0.327  -0.284   1.199
    1UNK    H13   39  -0.345  -0.357   1.038
    1UNK    H14   40  -0.485  -0.276   1.117
   1.00000   1.00000   1.00000

