
;
; GENERATED BY LigParGen Server
; Jorgensen Lab @ Yale University 
;
[ atomtypes ]
  opls_818  H818     1.0080     0.000    A    2.50000E-01   1.25520E-01
  opls_809  N809    14.0070     0.000    A    3.20000E-01   7.11280E-01
  opls_824  H824     1.0080     0.000    A    2.50000E-01   1.25520E-01
  opls_805  C805    12.0110     0.000    A    3.50000E-01   2.76144E-01
  opls_833  H833     1.0080     0.000    A    2.50000E-01   1.25520E-01
  opls_804  O804    15.9990     0.000    A    2.96000E-01   8.78640E-01
  opls_834  H834     1.0080     0.000    A    2.50000E-01   1.25520E-01
  opls_828  H828     1.0080     0.000    A    2.50000E-01   1.25520E-01
  opls_832  H832     1.0080     0.000    A    2.50000E-01   1.25520E-01
  opls_802  C802    12.0110     0.000    A    3.50000E-01   2.76144E-01
  opls_815  H815     1.0080     0.000    A    2.50000E-01   1.25520E-01
  opls_801  C801    12.0110     0.000    A    3.50000E-01   2.76144E-01
  opls_806  C806    12.0110     0.000    A    3.50000E-01   2.76144E-01
  opls_822  H822     1.0080     0.000    A    2.50000E-01   1.25520E-01
  opls_807  C807    12.0110     0.000    A    3.50000E-01   2.76144E-01
  opls_825  H825     1.0080     0.000    A    2.50000E-01   1.25520E-01
  opls_814  H814     1.0080     0.000    A    2.50000E-01   1.25520E-01
  opls_808  C808    12.0110     0.000    A    3.30000E-01   2.76144E-01
  opls_821  H821     1.0080     0.000    A    2.50000E-01   1.25520E-01
  opls_820  H820     1.0080     0.000    A    2.50000E-01   1.25520E-01
  opls_829  H829     1.0080     0.000    A    2.50000E-01   1.25520E-01
  opls_831  H831     1.0080     0.000    A    2.50000E-01   1.25520E-01
  opls_816  H816     1.0080     0.000    A    2.50000E-01   1.25520E-01
  opls_800  C800    12.0110     0.000    A    3.50000E-01   2.76144E-01
  opls_811  C811    12.0110     0.000    A    3.50000E-01   2.76144E-01
  opls_823  H823     1.0080     0.000    A    2.50000E-01   1.25520E-01
  opls_813  C813    12.0110     0.000    A    3.50000E-01   2.76144E-01
  opls_826  H826     1.0080     0.000    A    2.50000E-01   1.25520E-01
  opls_819  H819     1.0080     0.000    A    2.50000E-01   1.25520E-01
  opls_810  C810    12.0110     0.000    A    3.50000E-01   2.76144E-01
  opls_827  H827     1.0080     0.000    A    2.50000E-01   1.25520E-01
  opls_812  C812    12.0110     0.000    A    3.50000E-01   2.76144E-01
  opls_803  C803    12.0110     0.000    A    3.55000E-01   2.92880E-01
  opls_817  H817     1.0080     0.000    A    2.50000E-01   1.25520E-01
  opls_830  H830     1.0080     0.000    A    2.50000E-01   1.25520E-01
[ moleculetype ]
; Name               nrexcl
UNK                   3
[ atoms ]
;   nr       type  resnr residue  atom   cgnr     charge       mass  
     1   opls_800      1    UNK   C00      1    -0.2433    12.0110 
     2   opls_801      1    UNK   C01      1     -0.168    12.0110 
     3   opls_802      1    UNK   C02      1     -0.232    12.0110 
     4   opls_803      1    UNK   C03      1     0.3672    12.0110 
     5   opls_804      1    UNK   O04      1    -0.4606    15.9990 
     6   opls_805      1    UNK   C05      1    -0.2357    12.0110 
     7   opls_806      1    UNK   C06      1    -0.0817    12.0110 
     8   opls_807      1    UNK   C07      1    -0.0418    12.0110 
     9   opls_808      1    UNK   C08      1     0.1363    12.0110 
    10   opls_809      1    UNK   N09      1    -0.4147    14.0070 
    11   opls_810      1    UNK   C0A      1    -0.0471    12.0110 
    12   opls_811      1    UNK   C0B      1    -0.2358    12.0110 
    13   opls_812      1    UNK   C0C      1    -0.2354    12.0110 
    14   opls_813      1    UNK   C0D      1    -0.2371    12.0110 
    15   opls_814      1    UNK   H0E      1     0.0888     1.0080 
    16   opls_815      1    UNK   H0F      1     0.0888     1.0080 
    17   opls_816      1    UNK   H0G      1     0.0888     1.0080 
    18   opls_817      1    UNK   H0H      1     0.0948     1.0080 
    19   opls_818      1    UNK   H0I      1     0.0948     1.0080 
    20   opls_819      1    UNK   H0J      1     0.1199     1.0080 
    21   opls_820      1    UNK   H0K      1     0.1199     1.0080 
    22   opls_821      1    UNK   H0M      1     0.1289     1.0080 
    23   opls_822      1    UNK   H0N      1     0.1289     1.0080 
    24   opls_823      1    UNK   H0O      1     0.1193     1.0080 
    25   opls_824      1    UNK   H0P      1     0.1421     1.0080 
    26   opls_825      1    UNK   H0Q      1     0.1421     1.0080 
    27   opls_826      1    UNK   H0R      1     0.0839     1.0080 
    28   opls_827      1    UNK   H0S      1     0.0839     1.0080 
    29   opls_828      1    UNK   H0T      1     0.0839     1.0080 
    30   opls_829      1    UNK   H0U      1     0.0854     1.0080 
    31   opls_830      1    UNK   H0V      1     0.0854     1.0080 
    32   opls_831      1    UNK   H0W      1     0.0854     1.0080 
    33   opls_832      1    UNK   H0X      2     0.0881     1.0080 
    34   opls_833      1    UNK   H0Y      2     0.0881     1.0080 
    35   opls_834      1    UNK   H0Z      2     0.0881     1.0080 
[ bonds ]
    2     1     1      0.1529 224262.400
    3     2     1      0.1529 224262.400
    4     3     1      0.1522 265265.600
    5     4     1      0.1229 476976.000
    6     4     1      0.1522 265265.600
    7     6     1      0.1529 224262.400
    8     7     1      0.1529 224262.400
    9     8     1      0.1470 326352.000
   10     9     1      0.1157 543920.000
   11     7     1      0.1529 224262.400
   12    11     1      0.1529 224262.400
   13    11     1      0.1529 224262.400
   14    11     1      0.1529 224262.400
   15     1     1      0.1090 284512.000
   16     1     1      0.1090 284512.000
   17     1     1      0.1090 284512.000
   18     2     1      0.1090 284512.000
   19     2     1      0.1090 284512.000
   20     3     1      0.1090 284512.000
   21     3     1      0.1090 284512.000
   22     6     1      0.1090 284512.000
   23     6     1      0.1090 284512.000
   24     7     1      0.1090 284512.000
   25     8     1      0.1090 284512.000
   26     8     1      0.1090 284512.000
   27    12     1      0.1090 284512.000
   28    12     1      0.1090 284512.000
   29    12     1      0.1090 284512.000
   30    13     1      0.1090 284512.000
   31    13     1      0.1090 284512.000
   32    13     1      0.1090 284512.000
   33    14     1      0.1090 284512.000
   34    14     1      0.1090 284512.000
   35    14     1      0.1090 284512.000

[ angles ]
;  ai    aj    ak funct            c0            c1            c2            c3 
    1     2     3     1    112.700    488.273
    2     3     4     1    111.100    527.184
    3     4     5     1    120.400    669.440
    3     4     6     1    116.000    585.760
    4     6     7     1    111.100    527.184
    6     7     8     1    112.700    488.273
    7     8     9     1    112.700    488.273
    8     9    10     1    180.000   1255.200
    6     7    11     1    112.700    488.273
    7    11    12     1    112.700    488.273
    7    11    13     1    112.700    488.273
    7    11    14     1    112.700    488.273
    2     1    15     1    110.700    313.800
    2     1    16     1    110.700    313.800
    2     1    17     1    110.700    313.800
    1     2    18     1    110.700    313.800
    1     2    19     1    110.700    313.800
    2     3    20     1    110.700    313.800
    2     3    21     1    110.700    313.800
    4     6    22     1    109.500    292.880
    4     6    23     1    109.500    292.880
    6     7    24     1    110.700    313.800
    7     8    25     1    110.700    313.800
    7     8    26     1    110.700    313.800
   11    12    27     1    110.700    313.800
   11    12    28     1    110.700    313.800
   11    12    29     1    110.700    313.800
   11    13    30     1    110.700    313.800
   11    13    31     1    110.700    313.800
   11    13    32     1    110.700    313.800
   11    14    33     1    110.700    313.800
   11    14    34     1    110.700    313.800
   11    14    35     1    110.700    313.800
    8     7    11     1    112.700    488.273
    5     4     6     1    120.400    669.440
    9     8    25     1    108.500    292.880
    8     7    24     1    110.700    313.800
   27    12    29     1    107.800    276.144
    3     2    18     1    110.700    313.800
    7     6    22     1    110.700    313.800
   33    14    34     1    107.800    276.144
   25     8    26     1    107.800    276.144
    7     6    23     1    110.700    313.800
   18     2    19     1    107.800    276.144
   34    14    35     1    107.800    276.144
   27    12    28     1    107.800    276.144
   30    13    32     1    107.800    276.144
   31    13    32     1    107.800    276.144
    3     2    19     1    110.700    313.800
   15     1    16     1    107.800    276.144
   22     6    23     1    107.800    276.144
    4     3    21     1    109.500    292.880
   15     1    17     1    107.800    276.144
   16     1    17     1    107.800    276.144
   12    11    13     1    112.700    488.273
   33    14    35     1    107.800    276.144
    9     8    26     1    108.500    292.880
   28    12    29     1    107.800    276.144
   11     7    24     1    110.700    313.800
   13    11    14     1    112.700    488.273
    4     3    20     1    109.500    292.880
   12    11    14     1    112.700    488.273
   30    13    31     1    107.800    276.144
   20     3    21     1    107.800    276.144

[ dihedrals ]
; IMPROPER DIHEDRAL ANGLES 
;  ai    aj    ak    al funct            c0            c1            c2            c3            c4            c5
     6     4     3     5    4        180.000     43.932     2  

[ dihedrals ]
; PROPER DIHEDRAL ANGLES
;  ai    aj    ak    al funct            c0            c1            c2            c3            c4            c5
    4    3    2    1        3      -4.960   6.286   1.310  -2.636  -0.000   0.000
    6    4    3    2        3       0.818  -7.906   0.602   6.485  -0.000   0.000
    7    6    4    3        3       0.818  -7.906   0.602   6.485  -0.000   0.000
    7    6    4    5        3       0.000   0.000   0.000  -0.000  -0.000   0.000
    8    7    6    4        3      -4.960   6.286   1.310  -2.636  -0.000   0.000
   11    7    6    4        3      -4.960   6.286   1.310  -2.636  -0.000   0.000
   13   11    7    6        3       2.301  -1.464   0.837  -1.674  -0.000   0.000
   13   11    7    8        3       2.301  -1.464   0.837  -1.674  -0.000   0.000
   14   11    7    8        3       2.301  -1.464   0.837  -1.674  -0.000   0.000
   14   11    7    6        3       2.301  -1.464   0.837  -1.674  -0.000   0.000
   12   11    7    8        3       2.301  -1.464   0.837  -1.674  -0.000   0.000
   12   11    7    6        3       2.301  -1.464   0.837  -1.674  -0.000   0.000
   11    7    8    9        3      -2.720   0.000   2.720  -0.000  -0.000   0.000
    9    8    7    6        3      -2.720   0.000   2.720  -0.000  -0.000   0.000
   20    3    4    6        3       0.575   1.726   0.000  -2.301  -0.000   0.000
   21    3    4    6        3       0.575   1.726   0.000  -2.301  -0.000   0.000
   22    6    4    3        3       0.575   1.726   0.000  -2.301  -0.000   0.000
   23    6    4    3        3       0.575   1.726   0.000  -2.301  -0.000   0.000
   23    6    4    5        3       0.000   0.000   0.000  -0.000  -0.000   0.000
   22    6    4    5        3       0.000   0.000   0.000  -0.000  -0.000   0.000
   20    3    4    5        3       0.000   0.000   0.000  -0.000  -0.000   0.000
   21    3    4    5        3       0.000   0.000   0.000  -0.000  -0.000   0.000
   18    2    3    4        3      -0.209  -0.628   0.000   0.837  -0.000   0.000
   24    7    6    4        3      -0.209  -0.628   0.000   0.837  -0.000   0.000
   19    2    3    4        3      -0.209  -0.628   0.000   0.837  -0.000   0.000
   17    1    2    3        3       0.628   1.883   0.000  -2.510  -0.000   0.000
   32   13   11    7        3       0.628   1.883   0.000  -2.510  -0.000   0.000
   34   14   11    7        3       0.628   1.883   0.000  -2.510  -0.000   0.000
   29   12   11    7        3       0.628   1.883   0.000  -2.510  -0.000   0.000
   22    6    7    8        3       0.628   1.883   0.000  -2.510  -0.000   0.000
   29   12   11   14        3       0.628   1.883   0.000  -2.510  -0.000   0.000
   20    3    2    1        3       0.628   1.883   0.000  -2.510  -0.000   0.000
   31   13   11   14        3       0.628   1.883   0.000  -2.510  -0.000   0.000
   27   12   11   13        3       0.628   1.883   0.000  -2.510  -0.000   0.000
   26    8    7    6        3       0.628   1.883   0.000  -2.510  -0.000   0.000
   30   13   11   12        3       0.628   1.883   0.000  -2.510  -0.000   0.000
   35   14   11   13        3       0.628   1.883   0.000  -2.510  -0.000   0.000
   29   12   11   13        3       0.628   1.883   0.000  -2.510  -0.000   0.000
   35   14   11    7        3       0.628   1.883   0.000  -2.510  -0.000   0.000
   21    3    2    1        3       0.628   1.883   0.000  -2.510  -0.000   0.000
   28   12   11    7        3       0.628   1.883   0.000  -2.510  -0.000   0.000
   34   14   11   12        3       0.628   1.883   0.000  -2.510  -0.000   0.000
   33   14   11   13        3       0.628   1.883   0.000  -2.510  -0.000   0.000
   30   13   11   14        3       0.628   1.883   0.000  -2.510  -0.000   0.000
   16    1    2    3        3       0.628   1.883   0.000  -2.510  -0.000   0.000
   32   13   11   12        3       0.628   1.883   0.000  -2.510  -0.000   0.000
   24    7   11   13        3       0.628   1.883   0.000  -2.510  -0.000   0.000
   31   13   11    7        3       0.628   1.883   0.000  -2.510  -0.000   0.000
   25    8    7   11        3       0.628   1.883   0.000  -2.510  -0.000   0.000
   26    8    7   11        3       0.628   1.883   0.000  -2.510  -0.000   0.000
   30   13   11    7        3       0.628   1.883   0.000  -2.510  -0.000   0.000
   23    6    7    8        3       0.628   1.883   0.000  -2.510  -0.000   0.000
   27   12   11   14        3       0.628   1.883   0.000  -2.510  -0.000   0.000
   31   13   11   12        3       0.628   1.883   0.000  -2.510  -0.000   0.000
   28   12   11   13        3       0.628   1.883   0.000  -2.510  -0.000   0.000
   32   13   11   14        3       0.628   1.883   0.000  -2.510  -0.000   0.000
   34   14   11   13        3       0.628   1.883   0.000  -2.510  -0.000   0.000
   35   14   11   12        3       0.628   1.883   0.000  -2.510  -0.000   0.000
   27   12   11    7        3       0.628   1.883   0.000  -2.510  -0.000   0.000
   28   12   11   14        3       0.628   1.883   0.000  -2.510  -0.000   0.000
   33   14   11    7        3       0.628   1.883   0.000  -2.510  -0.000   0.000
   24    7   11   12        3       0.628   1.883   0.000  -2.510  -0.000   0.000
   24    7   11   14        3       0.628   1.883   0.000  -2.510  -0.000   0.000
   22    6    7   11        3       0.628   1.883   0.000  -2.510  -0.000   0.000
   25    8    7    6        3       0.628   1.883   0.000  -2.510  -0.000   0.000
   33   14   11   12        3       0.628   1.883   0.000  -2.510  -0.000   0.000
   15    1    2    3        3       0.628   1.883   0.000  -2.510  -0.000   0.000
   23    6    7   11        3       0.628   1.883   0.000  -2.510  -0.000   0.000
   24    7    8    9        3       0.766   2.297   0.000  -3.063  -0.000   0.000
   18    2    1   16        3       0.628   1.883   0.000  -2.510  -0.000   0.000
   18    2    1   15        3       0.628   1.883   0.000  -2.510  -0.000   0.000
   21    3    2   18        3       0.628   1.883   0.000  -2.510  -0.000   0.000
   19    2    1   17        3       0.628   1.883   0.000  -2.510  -0.000   0.000
   20    3    2   18        3       0.628   1.883   0.000  -2.510  -0.000   0.000
   24    7    6   23        3       0.628   1.883   0.000  -2.510  -0.000   0.000
   18    2    1   17        3       0.628   1.883   0.000  -2.510  -0.000   0.000
   24    7    6   22        3       0.628   1.883   0.000  -2.510  -0.000   0.000
   19    2    1   16        3       0.628   1.883   0.000  -2.510  -0.000   0.000
   21    3    2   19        3       0.628   1.883   0.000  -2.510  -0.000   0.000
   20    3    2   19        3       0.628   1.883   0.000  -2.510  -0.000   0.000
   25    8    7   24        3       0.628   1.883   0.000  -2.510  -0.000   0.000
   26    8    7   24        3       0.628   1.883   0.000  -2.510  -0.000   0.000
   19    2    1   15        3       0.628   1.883   0.000  -2.510  -0.000   0.000
   25    8    9   10        3       0.000   0.000   0.000  -0.000  -0.000   0.000
   26    8    9   10        3       0.000   0.000   0.000  -0.000  -0.000   0.000
   10    9    8    7        3       0.000   0.000   0.000  -0.000  -0.000   0.000
    5    4    3    2        3       0.000   0.000   0.000  -0.000  -0.000   0.000

[ pairs ]
     1     4    1
     2     5    1
     2     6    1
     3     7    1
     5     7    1
     4     8    1
     6     9    1
     4    11    1
     7    10    1
     6    12    1
     3    15    1
     6    13    1
     3    16    1
     9    11    1
     8    12    1
     6    14    1
     3    17    1
     8    13    1
     1    20    1
     8    14    1
     4    18    1
     1    21    1
     4    19    1
     5    20    1
     3    22    1
     6    20    1
     5    21    1
     3    23    1
     6    21    1
     5    22    1
     5    23    1
     4    24    1
     8    22    1
     8    23    1
     6    25    1
     6    26    1
    15    18    1
    11    22    1
     9    24    1
    16    18    1
    15    19    1
    11    23    1
     7    27    1
    17    18    1
    16    19    1
    10    25    1
     7    28    1
    17    19    1
    12    24    1
    11    25    1
    10    26    1
     7    29    1
    13    24    1
    11    26    1
     7    30    1
    18    20    1
    14    24    1
     7    31    1
    19    20    1
    18    21    1
     7    32    1
    19    21    1
    13    27    1
     7    33    1
    14    27    1
    13    28    1
     7    34    1
    14    28    1
    13    29    1
    12    30    1
     7    35    1
    14    29    1
    12    31    1
    14    30    1
    12    32    1
    14    31    1
    12    33    1
    22    24    1
    14    32    1
    13    33    1
    12    34    1
    23    24    1
    13    34    1
    12    35    1
    13    35    1
    24    25    1
    24    26    1

