LIGPARGEN GENERATED GRO FILE
   35
    1UNK    C00    1   0.100   0.100   0.000
    1UNK    C01    2  -0.052   0.100   0.000
    1UNK    C02    3  -0.112   0.100   0.140
    1UNK    C03    4  -0.079   0.224   0.223
    1UNK    O04    5  -0.020   0.213   0.330
    1UNK    C05    6  -0.130   0.358   0.172
    1UNK    C06    7  -0.084   0.482   0.254
    1UNK    C07    8   0.072   0.493   0.256
    1UNK    C08    9   0.123   0.513   0.115
    1UNK    N09   10   0.166   0.530  -0.003
    1UNK    C0A   11  -0.160   0.615   0.211
    1UNK    C0B   12  -0.312   0.599   0.233
    1UNK    C0C   13  -0.114   0.734   0.299
    1UNK    C0D   14  -0.141   0.656   0.064
    1UNK    H0E   15   0.138   0.095  -0.103
    1UNK    H0F   16   0.139   0.013   0.054
    1UNK    H0G   17   0.140   0.191   0.046
    1UNK    H0H   18  -0.087   0.010  -0.053
    1UNK    H0I   19  -0.088   0.186  -0.057
    1UNK    H0J   20  -0.077   0.012   0.196
    1UNK    H0K   21  -0.221   0.092   0.135
    1UNK    H0M   22  -0.239   0.349   0.174
    1UNK    H0N   23  -0.100   0.369   0.067
    1UNK    H0O   24  -0.113   0.462   0.359
    1UNK    H0P   25   0.119   0.403   0.298
    1UNK    H0Q   26   0.105   0.576   0.320
    1UNK    H0R   27  -0.335   0.568   0.335
    1UNK    H0S   28  -0.356   0.526   0.164
    1UNK    H0T   29  -0.364   0.694   0.215
    1UNK    H0U   30  -0.133   0.714   0.405
    1UNK    H0V   31  -0.168   0.826   0.272
    1UNK    H0W   32  -0.008   0.756   0.287
    1UNK    H0X   33  -0.164   0.574  -0.005
    1UNK    H0Y   34  -0.039   0.691   0.043
    1UNK    H0Z   35  -0.206   0.739   0.037
   1.00000   1.00000   1.00000

