LIGPARGEN GENERATED GRO FILE
   23
    1UNK    C00    1   0.100   0.100   0.000
    1UNK    C01    2  -0.052   0.100   0.000
    1UNK    C02    3  -0.106   0.100   0.141
    1UNK    O03    4  -0.089   0.009   0.221
    1UNK    C04    5  -0.186   0.225   0.171
    1UNK    C05    6  -0.132   0.301   0.291
    1UNK    C06    7  -0.018   0.385   0.233
    1UNK    C07    8  -0.069   0.427   0.096
    1UNK    C08    9  -0.165   0.317   0.051
    1UNK    C09   10  -0.104   0.230  -0.056
    1UNK    O0A   11  -0.093   0.263  -0.173
    1UNK    H0B   12   0.140   0.013   0.053
    1UNK    H0C   13   0.140   0.189   0.049
    1UNK    H0D   14   0.139   0.099  -0.102
    1UNK    H0E   15  -0.095   0.016  -0.055
    1UNK    H0F   16  -0.291   0.197   0.184
    1UNK    H0G   17  -0.096   0.236   0.372
    1UNK    H0H   18  -0.209   0.367   0.332
    1UNK    H0I   19   0.072   0.324   0.224
    1UNK    H0J   20   0.006   0.471   0.296
    1UNK    H0K   21   0.015   0.442   0.026
    1UNK    H0M   22  -0.123   0.521   0.104
    1UNK    H0N   23  -0.260   0.359   0.014
   1.00000   1.00000   1.00000

