LIGPARGEN GENERATED GRO FILE
   36
    1UNK    C00    1   0.100   0.100   0.000
    1UNK    C01    2  -0.052   0.100   0.000
    1UNK    C02    3  -0.113   0.100   0.141
    1UNK    C03    4  -0.077   0.224   0.223
    1UNK    C04    5  -0.173   0.218   0.343
    1UNK    C05    6  -0.120   0.125   0.452
    1UNK    C06    7  -0.309   0.177   0.278
    1UNK    C07    8  -0.382   0.309   0.240
    1UNK    C08    9  -0.404   0.105   0.377
    1UNK    C09   10  -0.269   0.088   0.150
    1UNK    C0A   11  -0.341   0.134   0.022
    1UNK    C0B   12  -0.303  -0.062   0.166
    1UNK    H0C   13   0.137   0.080  -0.101
    1UNK    H0D   14   0.140   0.023   0.067
    1UNK    H0E   15   0.139   0.197   0.032
    1UNK    H0F   16  -0.086   0.010  -0.053
    1UNK    H0G   17  -0.087   0.187  -0.057
    1UNK    H0H   18  -0.068   0.014   0.194
    1UNK    H0I   19  -0.094   0.315   0.165
    1UNK    H0J   20   0.028   0.224   0.255
    1UNK    H0K   21  -0.179   0.318   0.387
    1UNK    H0M   22  -0.114   0.021   0.419
    1UNK    H0N   23  -0.185   0.129   0.540
    1UNK    H0O   24  -0.021   0.157   0.484
    1UNK    H0P   25  -0.402   0.369   0.329
    1UNK    H0Q   26  -0.479   0.289   0.193
    1UNK    H0R   27  -0.322   0.371   0.172
    1UNK    H0S   28  -0.425   0.170   0.464
    1UNK    H0T   29  -0.362   0.013   0.416
    1UNK    H0U   30  -0.499   0.082   0.330
    1UNK    H0V   31  -0.313   0.237  -0.007
    1UNK    H0W   32  -0.449   0.130   0.033
    1UNK    H0X   33  -0.316   0.070  -0.064
    1UNK    H0Y   34  -0.256  -0.105   0.255
    1UNK    H0Z   35  -0.266  -0.119   0.080
    1UNK    H10   36  -0.411  -0.078   0.172
   1.00000   1.00000   1.00000

