
;
; GENERATED BY LigParGen Server
; Jorgensen Lab @ Yale University 
;
[ atomtypes ]
  opls_818  H818     1.0080     0.000    A    2.50000E-01   1.25520E-01
  opls_824  H824     1.0080     0.000    A    2.50000E-01   1.25520E-01
  opls_815  C815    12.0110     0.000    A    3.50000E-01   2.76144E-01
  opls_804  O804    15.9990     0.000    A    2.96000E-01   8.78640E-01
  opls_836  H836     1.0080     0.000    A    2.50000E-01   1.25520E-01
  opls_834  H834     1.0080     0.000    A    2.50000E-01   1.25520E-01
  opls_810  C810    12.0110     0.000    A    3.50000E-01   2.76144E-01
  opls_828  H828     1.0080     0.000    A    2.50000E-01   1.25520E-01
  opls_806  C806    12.0110     0.000    A    3.50000E-01   2.76144E-01
  opls_827  H827     1.0080     0.000    A    2.50000E-01   1.25520E-01
  opls_801  C801    12.0110     0.000    A    3.50000E-01   2.76144E-01
  opls_822  H822     1.0080     0.000    A    2.50000E-01   1.25520E-01
  opls_807  C807    12.0110     0.000    A    3.50000E-01   2.76144E-01
  opls_825  H825     1.0080     0.000    A    2.50000E-01   1.25520E-01
  opls_830  H830     1.0080     0.000    A    2.50000E-01   1.25520E-01
  opls_809  O809    15.9990     0.000    A    2.96000E-01   8.78640E-01
  opls_821  H821     1.0080     0.000    A    2.50000E-01   1.25520E-01
  opls_820  H820     1.0080     0.000    A    2.50000E-01   1.25520E-01
  opls_813  C813    12.0110     0.000    A    3.55000E-01   2.92880E-01
  opls_829  H829     1.0080     0.000    A    2.50000E-01   1.25520E-01
  opls_831  H831     1.0080     0.000    A    2.50000E-01   1.25520E-01
  opls_832  H832     1.0080     0.000    A    2.50000E-01   1.25520E-01
  opls_800  C800    12.0110     0.000    A    3.50000E-01   2.76144E-01
  opls_811  C811    12.0110     0.000    A    3.50000E-01   2.76144E-01
  opls_823  H823     1.0080     0.000    A    2.50000E-01   1.25520E-01
  opls_805  O805    15.9990     0.000    A    2.90000E-01   5.85760E-01
  opls_826  H826     1.0080     0.000    A    2.50000E-01   1.25520E-01
  opls_835  H835     1.0080     0.000    A    2.50000E-01   1.25520E-01
  opls_819  H819     1.0080     0.000    A    2.50000E-01   1.25520E-01
  opls_816  C816    12.0110     0.000    A    3.50000E-01   2.76144E-01
  opls_833  H833     1.0080     0.000    A    2.50000E-01   1.25520E-01
  opls_802  O802    15.9990     0.000    A    2.90000E-01   5.85760E-01
  opls_812  C812    12.0110     0.000    A    3.50000E-01   2.76144E-01
  opls_803  C803    12.0110     0.000    A    3.55000E-01   2.92880E-01
  opls_817  H817     1.0080     0.000    A    2.50000E-01   1.25520E-01
  opls_814  O814    15.9990     0.000    A    2.96000E-01   8.78640E-01
  opls_808  C808    12.0110     0.000    A    3.55000E-01   2.92880E-01
[ moleculetype ]
; Name               nrexcl
UNK                   3
[ atoms ]
;   nr       type  resnr residue  atom   cgnr     charge       mass  
     1   opls_800      1    UNK   C00      1    -0.2812    12.0110 
     2   opls_801      1    UNK   C01      1     0.0143    12.0110 
     3   opls_802      1    UNK   O02      1    -0.3209    15.9990 
     4   opls_803      1    UNK   C03      1     0.5693    12.0110 
     5   opls_804      1    UNK   O04      1    -0.4957    15.9990 
     6   opls_805      1    UNK   O05      1    -0.3213    15.9990 
     7   opls_806      1    UNK   C06      1     0.0223    12.0110 
     8   opls_807      1    UNK   C07      1    -0.2719    12.0110 
     9   opls_808      1    UNK   C08      1     0.3782    12.0110 
    10   opls_809      1    UNK   O09      1    -0.4554    15.9990 
    11   opls_810      1    UNK   C0A      1    -0.1486    12.0110 
    12   opls_811      1    UNK   C0B      1    -0.2373    12.0110 
    13   opls_812      1    UNK   C0C      1     -0.179    12.0110 
    14   opls_813      1    UNK   C0D      1     0.3277    12.0110 
    15   opls_814      1    UNK   O0E      1    -0.4513    15.9990 
    16   opls_815      1    UNK   C0F      1    -0.1768    12.0110 
    17   opls_816      1    UNK   C0G      1    -0.2426    12.0110 
    18   opls_817      1    UNK   H0H      1     0.1018     1.0080 
    19   opls_818      1    UNK   H0I      1     0.1018     1.0080 
    20   opls_819      1    UNK   H0J      1     0.1018     1.0080 
    21   opls_820      1    UNK   H0K      1     0.1255     1.0080 
    22   opls_821      1    UNK   H0M      1     0.1255     1.0080 
    23   opls_822      1    UNK   H0N      1      0.139     1.0080 
    24   opls_823      1    UNK   H0O      1      0.139     1.0080 
    25   opls_824      1    UNK   H0P      1     0.1419     1.0080 
    26   opls_825      1    UNK   H0Q      1     0.1419     1.0080 
    27   opls_826      1    UNK   H0R      1     0.1196     1.0080 
    28   opls_827      1    UNK   H0S      1     0.1019     1.0080 
    29   opls_828      1    UNK   H0T      1     0.1019     1.0080 
    30   opls_829      1    UNK   H0U      1     0.1019     1.0080 
    31   opls_830      1    UNK   H0V      1     0.1314     1.0080 
    32   opls_831      1    UNK   H0W      1     0.1384     1.0080 
    33   opls_832      1    UNK   H0X      2     0.0961     1.0080 
    34   opls_833      1    UNK   H0Y      2     0.0961     1.0080 
    35   opls_834      1    UNK   H0Z      2     0.0881     1.0080 
    36   opls_835      1    UNK   H10      2     0.0881     1.0080 
    37   opls_836      1    UNK   H11      2     0.0881     1.0080 
[ bonds ]
    2     1     1      0.1529 224262.400
    3     2     1      0.1410 267776.000
    4     3     1      0.1327 179075.200
    5     4     1      0.1229 476976.000
    6     4     1      0.1327 179075.200
    7     6     1      0.1410 267776.000
    8     7     1      0.1529 224262.400
    9     8     1      0.1522 265265.600
   10     9     1      0.1229 476976.000
   11     9     1      0.1522 265265.600
   12    11     1      0.1529 224262.400
   13    11     1      0.1529 224262.400
   14    13     1      0.1522 265265.600
   15    14     1      0.1229 476976.000
   16    13     1      0.1529 224262.400
   17    16     1      0.1529 224262.400
   18     1     1      0.1090 284512.000
   19     1     1      0.1090 284512.000
   20     1     1      0.1090 284512.000
   21     2     1      0.1090 284512.000
   22     2     1      0.1090 284512.000
   23     7     1      0.1090 284512.000
   24     7     1      0.1090 284512.000
   25     8     1      0.1090 284512.000
   26     8     1      0.1090 284512.000
   27    11     1      0.1090 284512.000
   28    12     1      0.1090 284512.000
   29    12     1      0.1090 284512.000
   30    12     1      0.1090 284512.000
   31    13     1      0.1090 284512.000
   32    14     1      0.1090 284512.000
   33    16     1      0.1090 284512.000
   34    16     1      0.1090 284512.000
   35    17     1      0.1090 284512.000
   36    17     1      0.1090 284512.000
   37    17     1      0.1090 284512.000

[ angles ]
;  ai    aj    ak funct            c0            c1            c2            c3 
    1     2     3     1    109.500    418.400
    2     3     4     1    116.900    694.544
    3     4     5     1    123.400    694.544
    3     4     6     1    118.180    584.923
    4     6     7     1    116.900    694.544
    6     7     8     1    109.500    418.400
    7     8     9     1    111.100    527.184
    8     9    10     1    120.400    669.440
    8     9    11     1    116.000    585.760
    9    11    12     1    111.100    527.184
    9    11    13     1    111.100    527.184
   11    13    14     1    111.100    527.184
   13    14    15     1    120.400    669.440
   11    13    16     1    112.700    488.273
   13    16    17     1    112.700    488.273
    2     1    18     1    110.700    313.800
    2     1    19     1    110.700    313.800
    2     1    20     1    110.700    313.800
    1     2    21     1    110.700    313.800
    1     2    22     1    110.700    313.800
    6     7    23     1    109.500    292.880
    6     7    24     1    109.500    292.880
    7     8    25     1    110.700    313.800
    7     8    26     1    110.700    313.800
    9    11    27     1    109.500    292.880
   11    12    28     1    110.700    313.800
   11    12    29     1    110.700    313.800
   11    12    30     1    110.700    313.800
   11    13    31     1    110.700    313.800
   13    14    32     1    115.000    292.880
   13    16    33     1    110.700    313.800
   13    16    34     1    110.700    313.800
   16    17    35     1    110.700    313.800
   16    17    36     1    110.700    313.800
   16    17    37     1    110.700    313.800
    5     4     6     1    123.400    694.544
    9     8    25     1    109.500    292.880
   28    12    29     1    107.800    276.144
    3     2    21     1    109.500    292.880
   29    12    30     1    107.800    276.144
   35    17    37     1    107.800    276.144
   12    11    27     1    110.700    313.800
   28    12    30     1    107.800    276.144
   25     8    26     1    107.800    276.144
   10     9    11     1    120.400    669.440
    3     2    22     1    109.500    292.880
   13    11    27     1    110.700    313.800
   33    16    34     1    107.800    276.144
    8     7    23     1    110.700    313.800
   36    17    37     1    107.800    276.144
   23     7    24     1    107.800    276.144
   17    16    33     1    110.700    313.800
   14    13    31     1    109.500    292.880
   18     1    20     1    107.800    276.144
   35    17    36     1    107.800    276.144
   16    13    31     1    110.700    313.800
   12    11    13     1    112.700    488.273
   14    13    16     1    111.100    527.184
   21     2    22     1    107.800    276.144
    9     8    26     1    109.500    292.880
   18     1    19     1    107.800    276.144
   19     1    20     1    107.800    276.144
    8     7    24     1    110.700    313.800
   17    16    34     1    110.700    313.800
   15    14    32     1    123.000    292.880

[ dihedrals ]
; IMPROPER DIHEDRAL ANGLES 
;  ai    aj    ak    al funct            c0            c1            c2            c3            c4            c5
    11     9     8    10    4        180.000     43.932     2  
    32    14    13    15    4        180.000     43.932     2  
     6     4     3     5    4        180.000     43.932     2  

[ dihedrals ]
; PROPER DIHEDRAL ANGLES
;  ai    aj    ak    al funct            c0            c1            c2            c3            c4            c5
   14   13   11    9        3       0.941   7.427   0.000  -8.368  -0.000   0.000
   14   13   11   12        3      -4.960   6.286   1.310  -2.636  -0.000   0.000
    9    8    7    6        3      -12.929  12.929   0.000  -0.000  -0.000   0.000
    4    3    2    1        3      -2.197   5.201   0.527  -3.531  -0.000   0.000
   11    9    8    7        3       0.818  -7.906   0.602   6.485  -0.000   0.000
   13   11    9    8        3       0.818  -7.906   0.602   6.485  -0.000   0.000
   12   11    9    8        3       0.818  -7.906   0.602   6.485  -0.000   0.000
   13   11    9   10        3       0.000   0.000   0.000  -0.000  -0.000   0.000
   16   13   14   15        3       0.000   0.000   0.000  -0.000  -0.000   0.000
   12   11    9   10        3       0.000   0.000   0.000  -0.000  -0.000   0.000
   16   13   11    9        3      -4.960   6.286   1.310  -2.636  -0.000   0.000
   17   16   13   14        3      -4.960   6.286   1.310  -2.636  -0.000   0.000
   16   13   11   12        3       2.301  -1.464   0.837  -1.674  -0.000   0.000
   17   16   13   11        3       2.301  -1.464   0.837  -1.674  -0.000   0.000
    8    7    6    4        3      -2.197   5.201   0.527  -3.531  -0.000   0.000
    7    6    4    5        3      21.439   0.000  -21.439  -0.000  -0.000   0.000
    7    6    4    3        3      31.206  -9.768  -21.439  -0.000  -0.000   0.000
   32   14   13   16        3       0.000   0.000   0.000  -0.000  -0.000   0.000
   32   14   13   11        3       0.000   0.000   0.000  -0.000  -0.000   0.000
   32   14   13   31        3       0.753   2.259   0.000  -3.012  -0.000   0.000
   25    8    9   11        3       0.575   1.726   0.000  -2.301  -0.000   0.000
   27   11    9    8        3       0.575   1.726   0.000  -2.301  -0.000   0.000
   26    8    9   11        3       0.575   1.726   0.000  -2.301  -0.000   0.000
   27   11    9   10        3       0.000   0.000   0.000  -0.000  -0.000   0.000
   25    8    9   10        3       0.000   0.000   0.000  -0.000  -0.000   0.000
   26    8    9   10        3       0.000   0.000   0.000  -0.000  -0.000   0.000
   31   13   14   15        3       0.000   0.000   0.000  -0.000  -0.000   0.000
   27   11   13   14        3      -0.209  -0.628   0.000   0.837  -0.000   0.000
   29   12   11    9        3      -0.209  -0.628   0.000   0.837  -0.000   0.000
   34   16   13   14        3      -0.209  -0.628   0.000   0.837  -0.000   0.000
   33   16   13   14        3      -0.209  -0.628   0.000   0.837  -0.000   0.000
   30   12   11    9        3      -0.209  -0.628   0.000   0.837  -0.000   0.000
   31   13   11    9        3      -0.209  -0.628   0.000   0.837  -0.000   0.000
   23    7    8    9        3      -0.209  -0.628   0.000   0.837  -0.000   0.000
   24    7    8    9        3      -0.209  -0.628   0.000   0.837  -0.000   0.000
   28   12   11    9        3      -0.209  -0.628   0.000   0.837  -0.000   0.000
   31   13   11   12        3       0.628   1.883   0.000  -2.510  -0.000   0.000
   34   16   13   11        3       0.628   1.883   0.000  -2.510  -0.000   0.000
   36   17   16   13        3       0.628   1.883   0.000  -2.510  -0.000   0.000
   30   12   11   13        3       0.628   1.883   0.000  -2.510  -0.000   0.000
   37   17   16   13        3       0.628   1.883   0.000  -2.510  -0.000   0.000
   31   13   16   17        3       0.628   1.883   0.000  -2.510  -0.000   0.000
   33   16   13   11        3       0.628   1.883   0.000  -2.510  -0.000   0.000
   35   17   16   13        3       0.628   1.883   0.000  -2.510  -0.000   0.000
   28   12   11   13        3       0.628   1.883   0.000  -2.510  -0.000   0.000
   27   11   13   16        3       0.628   1.883   0.000  -2.510  -0.000   0.000
   29   12   11   13        3       0.628   1.883   0.000  -2.510  -0.000   0.000
   21    2    1   18        3       0.628   1.883   0.000  -2.510  -0.000   0.000
   22    2    1   18        3       0.628   1.883   0.000  -2.510  -0.000   0.000
   35   17   16   34        3       0.628   1.883   0.000  -2.510  -0.000   0.000
   31   13   11   27        3       0.628   1.883   0.000  -2.510  -0.000   0.000
   35   17   16   33        3       0.628   1.883   0.000  -2.510  -0.000   0.000
   28   12   11   27        3       0.628   1.883   0.000  -2.510  -0.000   0.000
   30   12   11   27        3       0.628   1.883   0.000  -2.510  -0.000   0.000
   34   16   13   31        3       0.628   1.883   0.000  -2.510  -0.000   0.000
   33   16   13   31        3       0.628   1.883   0.000  -2.510  -0.000   0.000
   25    8    7   24        3       0.628   1.883   0.000  -2.510  -0.000   0.000
   29   12   11   27        3       0.628   1.883   0.000  -2.510  -0.000   0.000
   21    2    1   20        3       0.628   1.883   0.000  -2.510  -0.000   0.000
   21    2    1   19        3       0.628   1.883   0.000  -2.510  -0.000   0.000
   22    2    1   19        3       0.628   1.883   0.000  -2.510  -0.000   0.000
   26    8    7   23        3       0.628   1.883   0.000  -2.510  -0.000   0.000
   36   17   16   33        3       0.628   1.883   0.000  -2.510  -0.000   0.000
   25    8    7   23        3       0.628   1.883   0.000  -2.510  -0.000   0.000
   37   17   16   34        3       0.628   1.883   0.000  -2.510  -0.000   0.000
   36   17   16   34        3       0.628   1.883   0.000  -2.510  -0.000   0.000
   22    2    1   20        3       0.628   1.883   0.000  -2.510  -0.000   0.000
   37   17   16   33        3       0.628   1.883   0.000  -2.510  -0.000   0.000
   26    8    7   24        3       0.628   1.883   0.000  -2.510  -0.000   0.000
   25    8    7    6        3       0.979   2.937   0.000  -3.916  -0.000   0.000
   20    1    2    3        3       0.979   2.937   0.000  -3.916  -0.000   0.000
   19    1    2    3        3       0.979   2.937   0.000  -3.916  -0.000   0.000
   26    8    7    6        3       0.979   2.937   0.000  -3.916  -0.000   0.000
   18    1    2    3        3       0.979   2.937   0.000  -3.916  -0.000   0.000
   23    7    6    4        3       0.414   1.243   0.000  -1.657  -0.000   0.000
   22    2    3    4        3       0.414   1.243   0.000  -1.657  -0.000   0.000
   24    7    6    4        3       0.414   1.243   0.000  -1.657  -0.000   0.000
   21    2    3    4        3       0.414   1.243   0.000  -1.657  -0.000   0.000
   15   14   13   11        3       0.000   0.000   0.000  -0.000  -0.000   0.000
   10    9    8    7        3       0.000   0.000   0.000  -0.000  -0.000   0.000
    5    4    3    2        3      21.439   0.000  -21.439  -0.000  -0.000   0.000
    6    4    3    2        3      31.206  -9.768  -21.439  -0.000  -0.000   0.000

[ pairs ]
     1     4    1
     2     5    1
     2     6    1
     3     7    1
     5     7    1
     4     8    1
     6     9    1
     7    10    1
     7    11    1
     8    12    1
     8    13    1
     3    18    1
    10    12    1
     3    19    1
    10    13    1
     9    14    1
     3    20    1
     9    16    1
     4    21    1
    12    14    1
    11    15    1
     4    22    1
     4    23    1
    12    16    1
    11    17    1
     4    24    1
    15    16    1
    14    17    1
     6    25    1
     9    23    1
     6    26    1
     9    24    1
    10    25    1
     8    27    1
    11    25    1
    10    26    1
    11    26    1
    10    27    1
     9    28    1
     9    29    1
    18    21    1
     9    30    1
    19    21    1
    18    22    1
     9    31    1
    20    21    1
    19    22    1
    14    27    1
    13    28    1
    20    22    1
    13    29    1
    16    27    1
    13    30    1
    12    31    1
    11    32    1
    11    33    1
    11    34    1
    15    31    1
    14    33    1
    23    25    1
    17    31    1
    16    32    1
    14    34    1
    13    35    1
    24    25    1
    23    26    1
    13    36    1
    24    26    1
    13    37    1
    27    28    1
    27    29    1
    27    30    1
    27    31    1
    31    32    1
    31    33    1
    31    34    1
    33    35    1
    34    35    1
    33    36    1
    34    36    1
    33    37    1
    34    37    1

