LIGPARGEN GENERATED GRO FILE
   37
    1UNK    C00    1   0.100   0.100   0.000
    1UNK    C01    2  -0.052   0.100   0.000
    1UNK    O02    3  -0.096   0.100   0.136
    1UNK    C03    4  -0.105  -0.023   0.192
    1UNK    O04    5  -0.103  -0.130   0.133
    1UNK    O05    6  -0.111  -0.007   0.327
    1UNK    C06    7  -0.103  -0.129   0.401
    1UNK    C07    8  -0.243  -0.185   0.419
    1UNK    C08    9  -0.240  -0.314   0.497
    1UNK    O09   10  -0.136  -0.355   0.549
    1UNK    C0A   11  -0.371  -0.390   0.509
    1UNK    C0B   12  -0.386  -0.481   0.387
    1UNK    C0C   13  -0.385  -0.466   0.643
    1UNK    C0D   14  -0.279  -0.574   0.657
    1UNK    O0E   15  -0.299  -0.691   0.624
    1UNK    C0F   16  -0.382  -0.370   0.763
    1UNK    C0G   17  -0.401  -0.441   0.897
    1UNK    H0H   18   0.139   0.100  -0.102
    1UNK    H0I   19   0.139   0.013   0.053
    1UNK    H0J   20   0.138   0.188   0.053
    1UNK    H0K   21  -0.092   0.015  -0.056
    1UNK    H0M   22  -0.090   0.191  -0.047
    1UNK    H0N   23  -0.058  -0.105   0.498
    1UNK    H0O   24  -0.036  -0.201   0.353
    1UNK    H0P   25  -0.290  -0.203   0.322
    1UNK    H0Q   26  -0.305  -0.113   0.473
    1UNK    H0R   27  -0.452  -0.316   0.505
    1UNK    H0S   28  -0.305  -0.554   0.380
    1UNK    H0T   29  -0.384  -0.423   0.294
    1UNK    H0U   30  -0.481  -0.536   0.390
    1UNK    H0V   31  -0.482  -0.517   0.643
    1UNK    H0W   32  -0.180  -0.542   0.695
    1UNK    H0X   33  -0.461  -0.295   0.752
    1UNK    H0Y   34  -0.287  -0.315   0.767
    1UNK    H0Z   35  -0.497  -0.495   0.899
    1UNK    H10   36  -0.401  -0.368   0.978
    1UNK    H11   37  -0.321  -0.512   0.916
   1.00000   1.00000   1.00000

