
;
; GENERATED BY LigParGen Server
; Jorgensen Lab @ Yale University 
;
[ atomtypes ]
  opls_818  H818     1.0080     0.000    A    2.50000E-01   1.25520E-01
  opls_808  C808    12.0110     0.000    A    3.50000E-01   2.76144E-01
  opls_824  H824     1.0080     0.000    A    2.50000E-01   1.25520E-01
  opls_810  F810    18.9984     0.000    A    2.90000E-01   2.51040E-01
  opls_813  H813     1.0080     0.000    A    2.50000E-01   1.25520E-01
  opls_802  C802    12.0110     0.000    A    3.50000E-01   2.76144E-01
  opls_815  H815     1.0080     0.000    A    2.50000E-01   1.25520E-01
  opls_809  C809    12.0110     0.000    A    3.50000E-01   2.76144E-01
  opls_822  H822     1.0080     0.000    A    2.50000E-01   1.25520E-01
  opls_803  C803    12.0110     0.000    A    3.50000E-01   2.76144E-01
  opls_825  H825     1.0080     0.000    A    2.50000E-01   1.25520E-01
  opls_814  H814     1.0080     0.000    A    2.50000E-01   1.25520E-01
  opls_821  H821     1.0080     0.000    A    2.50000E-01   1.25520E-01
  opls_820  H820     1.0080     0.000    A    2.50000E-01   1.25520E-01
  opls_811  H811     1.0080     0.000    A    2.50000E-01   1.25520E-01
  opls_816  H816     1.0080     0.000    A    2.50000E-01   1.25520E-01
  opls_800  C800    12.0110     0.000    A    3.50000E-01   2.76144E-01
  opls_823  H823     1.0080     0.000    A    2.50000E-01   1.25520E-01
  opls_819  H819     1.0080     0.000    A    2.50000E-01   1.25520E-01
  opls_804  C804    12.0110     0.000    A    3.50000E-01   2.76144E-01
  opls_801  C801    12.0110     0.000    A    3.50000E-01   2.76144E-01
  opls_805  F805    18.9984     0.000    A    2.90000E-01   2.51040E-01
  opls_817  H817     1.0080     0.000    A    2.50000E-01   1.25520E-01
  opls_812  H812     1.0080     0.000    A    2.50000E-01   1.25520E-01
  opls_806  F806    18.9984     0.000    A    2.90000E-01   2.51040E-01
  opls_807  C807    12.0110     0.000    A    3.50000E-01   2.76144E-01
[ moleculetype ]
; Name               nrexcl
UNK                   3
[ atoms ]
;   nr       type  resnr residue  atom   cgnr     charge       mass  
     1   opls_800      1    UNK   C00      1    -0.2412    12.0110 
     2   opls_801      1    UNK   C01      1    -0.1102    12.0110 
     3   opls_802      1    UNK   C02      1    -0.2372    12.0110 
     4   opls_803      1    UNK   C03      1    -0.2333    12.0110 
     5   opls_804      1    UNK   C04      1     0.3001    12.0110 
     6   opls_805      1    UNK   F05      1    -0.1801    18.9984 
     7   opls_806      1    UNK   F06      1    -0.1801    18.9984 
     8   opls_807      1    UNK   C07      1    -0.2161    12.0110 
     9   opls_808      1    UNK   C08      1    -0.2381    12.0110 
    10   opls_809      1    UNK   C09      1     0.0073    12.0110 
    11   opls_810      1    UNK   F0A      1    -0.1831    18.9984 
    12   opls_811      1    UNK   H0B      1     0.0894     1.0080 
    13   opls_812      1    UNK   H0C      1     0.0894     1.0080 
    14   opls_813      1    UNK   H0D      1     0.0894     1.0080 
    15   opls_814      1    UNK   H0E      1     0.0987     1.0080 
    16   opls_815      1    UNK   H0F      1     0.0858     1.0080 
    17   opls_816      1    UNK   H0G      1     0.0858     1.0080 
    18   opls_817      1    UNK   H0H      1     0.0858     1.0080 
    19   opls_818      1    UNK   H0I      1     0.1202     1.0080 
    20   opls_819      1    UNK   H0J      1     0.1202     1.0080 
    21   opls_820      1    UNK   H0K      1     0.1387     1.0080 
    22   opls_821      1    UNK   H0M      1     0.0992     1.0080 
    23   opls_822      1    UNK   H0N      1     0.0992     1.0080 
    24   opls_823      1    UNK   H0O      1     0.0992     1.0080 
    25   opls_824      1    UNK   H0P      1     0.1055     1.0080 
    26   opls_825      1    UNK   H0Q      1     0.1055     1.0080 
[ bonds ]
    2     1     1      0.1529 224262.400
    3     2     1      0.1529 224262.400
    4     2     1      0.1529 224262.400
    5     4     1      0.1529 224262.400
    6     5     1      0.1360 307105.600
    7     5     1      0.1360 307105.600
    8     5     1      0.1529 224262.400
    9     8     1      0.1529 224262.400
   10     8     1      0.1529 224262.400
   11    10     1      0.1360 307105.600
   12     1     1      0.1090 284512.000
   13     1     1      0.1090 284512.000
   14     1     1      0.1090 284512.000
   15     2     1      0.1090 284512.000
   16     3     1      0.1090 284512.000
   17     3     1      0.1090 284512.000
   18     3     1      0.1090 284512.000
   19     4     1      0.1090 284512.000
   20     4     1      0.1090 284512.000
   21     8     1      0.1090 284512.000
   22     9     1      0.1090 284512.000
   23     9     1      0.1090 284512.000
   24     9     1      0.1090 284512.000
   25    10     1      0.1090 284512.000
   26    10     1      0.1090 284512.000

[ angles ]
;  ai    aj    ak funct            c0            c1            c2            c3 
    1     2     3     1    112.700    488.273
    1     2     4     1    112.700    488.273
    2     4     5     1    112.700    488.273
    4     5     6     1    109.500    418.400
    4     5     7     1    109.500    418.400
    4     5     8     1    112.700    488.273
    5     8     9     1    112.700    488.273
    5     8    10     1    112.700    488.273
    8    10    11     1    109.500    418.400
    2     1    12     1    110.700    313.800
    2     1    13     1    110.700    313.800
    2     1    14     1    110.700    313.800
    1     2    15     1    110.700    313.800
    2     3    16     1    110.700    313.800
    2     3    17     1    110.700    313.800
    2     3    18     1    110.700    313.800
    2     4    19     1    110.700    313.800
    2     4    20     1    110.700    313.800
    5     8    21     1    110.700    313.800
    8     9    22     1    110.700    313.800
    8     9    23     1    110.700    313.800
    8     9    24     1    110.700    313.800
    8    10    25     1    110.700    313.800
    8    10    26     1    110.700    313.800
   23     9    24     1    107.800    276.144
   17     3    18     1    107.800    276.144
    3     2    15     1    110.700    313.800
   13     1    14     1    107.800    276.144
   12     1    13     1    107.800    276.144
   25    10    26     1    107.800    276.144
   12     1    14     1    107.800    276.144
   22     9    24     1    107.800    276.144
    9     8    10     1    112.700    488.273
   19     4    20     1    107.800    276.144
   22     9    23     1    107.800    276.144
   16     3    18     1    107.800    276.144
   10     8    21     1    110.700    313.800
    6     5     7     1    109.100    644.336
    4     2    15     1    110.700    313.800
    3     2     4     1    112.700    488.273
    5     4    19     1    110.700    313.800
   11    10    25     1    107.000    334.720
    6     5     8     1    109.500    418.400
   11    10    26     1    107.000    334.720
    5     4    20     1    110.700    313.800
    7     5     8     1    109.500    418.400
   16     3    17     1    107.800    276.144
    9     8    21     1    110.700    313.800

[ dihedrals ]
; IMPROPER DIHEDRAL ANGLES 
;  ai    aj    ak    al funct            c0            c1            c2            c3            c4            c5

[ dihedrals ]
; PROPER DIHEDRAL ANGLES
;  ai    aj    ak    al funct            c0            c1            c2            c3            c4            c5
    5    4    2    1        3       2.301  -1.464   0.837  -1.674  -0.000   0.000
    5    4    2    3        3       2.301  -1.464   0.837  -1.674  -0.000   0.000
    8    5    4    2        3       2.301  -1.464   0.837  -1.674  -0.000   0.000
   10    8    5    4        3       2.301  -1.464   0.837  -1.674  -0.000   0.000
    9    8    5    4        3       2.301  -1.464   0.837  -1.674  -0.000   0.000
    9    8    5    6        3       0.000   0.000   0.000  -0.000  -0.000   0.000
    9    8    5    7        3       0.000   0.000   0.000  -0.000  -0.000   0.000
   10    8    5    6        3       0.000   0.000   0.000  -0.000  -0.000   0.000
   10    8    5    7        3       0.000   0.000   0.000  -0.000  -0.000   0.000
    7    5    4    2        3       0.000   0.000   0.000  -0.000  -0.000   0.000
    6    5    4    2        3       0.000   0.000   0.000  -0.000  -0.000   0.000
   11   10    8    5        3      -0.209   1.883   1.674  -3.347  -0.000   0.000
   11   10    8    9        3      -0.209   1.883   1.674  -3.347  -0.000   0.000
   21    8    5    4        3       0.628   1.883   0.000  -2.510  -0.000   0.000
   19    4    5    8        3       0.628   1.883   0.000  -2.510  -0.000   0.000
   20    4    5    8        3       0.628   1.883   0.000  -2.510  -0.000   0.000
   19    4    5    6        3       0.753   2.259   0.000  -3.012  -0.000   0.000
   20    4    5    7        3       0.753   2.259   0.000  -3.012  -0.000   0.000
   19    4    5    7        3       0.753   2.259   0.000  -3.012  -0.000   0.000
   20    4    5    6        3       0.753   2.259   0.000  -3.012  -0.000   0.000
   21    8    5    7        3       0.753   2.259   0.000  -3.012  -0.000   0.000
   21    8    5    6        3       0.753   2.259   0.000  -3.012  -0.000   0.000
   23    9    8    5        3       0.628   1.883   0.000  -2.510  -0.000   0.000
   15    2    4    5        3       0.628   1.883   0.000  -2.510  -0.000   0.000
   22    9    8    5        3       0.628   1.883   0.000  -2.510  -0.000   0.000
   25   10    8    5        3       0.628   1.883   0.000  -2.510  -0.000   0.000
   26   10    8    5        3       0.628   1.883   0.000  -2.510  -0.000   0.000
   24    9    8    5        3       0.628   1.883   0.000  -2.510  -0.000   0.000
   17    3    2    1        3       0.628   1.883   0.000  -2.510  -0.000   0.000
   18    3    2    4        3       0.628   1.883   0.000  -2.510  -0.000   0.000
   19    4    2    3        3       0.628   1.883   0.000  -2.510  -0.000   0.000
   12    1    2    4        3       0.628   1.883   0.000  -2.510  -0.000   0.000
   20    4    2    1        3       0.628   1.883   0.000  -2.510  -0.000   0.000
   25   10    8    9        3       0.628   1.883   0.000  -2.510  -0.000   0.000
   14    1    2    4        3       0.628   1.883   0.000  -2.510  -0.000   0.000
   12    1    2    3        3       0.628   1.883   0.000  -2.510  -0.000   0.000
   23    9    8   10        3       0.628   1.883   0.000  -2.510  -0.000   0.000
   20    4    2    3        3       0.628   1.883   0.000  -2.510  -0.000   0.000
   17    3    2    4        3       0.628   1.883   0.000  -2.510  -0.000   0.000
   14    1    2    3        3       0.628   1.883   0.000  -2.510  -0.000   0.000
   13    1    2    4        3       0.628   1.883   0.000  -2.510  -0.000   0.000
   16    3    2    1        3       0.628   1.883   0.000  -2.510  -0.000   0.000
   24    9    8   10        3       0.628   1.883   0.000  -2.510  -0.000   0.000
   18    3    2    1        3       0.628   1.883   0.000  -2.510  -0.000   0.000
   13    1    2    3        3       0.628   1.883   0.000  -2.510  -0.000   0.000
   19    4    2    1        3       0.628   1.883   0.000  -2.510  -0.000   0.000
   16    3    2    4        3       0.628   1.883   0.000  -2.510  -0.000   0.000
   26   10    8    9        3       0.628   1.883   0.000  -2.510  -0.000   0.000
   22    9    8   10        3       0.628   1.883   0.000  -2.510  -0.000   0.000
   21    8   10   11        3       0.837   2.510   0.000  -3.347  -0.000   0.000
   24    9    8   21        3       0.628   1.883   0.000  -2.510  -0.000   0.000
   25   10    8   21        3       0.628   1.883   0.000  -2.510  -0.000   0.000
   18    3    2   15        3       0.628   1.883   0.000  -2.510  -0.000   0.000
   16    3    2   15        3       0.628   1.883   0.000  -2.510  -0.000   0.000
   15    2    1   12        3       0.628   1.883   0.000  -2.510  -0.000   0.000
   15    2    1   14        3       0.628   1.883   0.000  -2.510  -0.000   0.000
   15    2    1   13        3       0.628   1.883   0.000  -2.510  -0.000   0.000
   22    9    8   21        3       0.628   1.883   0.000  -2.510  -0.000   0.000
   17    3    2   15        3       0.628   1.883   0.000  -2.510  -0.000   0.000
   20    4    2   15        3       0.628   1.883   0.000  -2.510  -0.000   0.000
   26   10    8   21        3       0.628   1.883   0.000  -2.510  -0.000   0.000
   19    4    2   15        3       0.628   1.883   0.000  -2.510  -0.000   0.000
   23    9    8   21        3       0.628   1.883   0.000  -2.510  -0.000   0.000

[ pairs ]
     1     5    1
     3     5    1
     2     6    1
     2     7    1
     2     8    1
     4     9    1
     4    10    1
     6     9    1
     3    12    1
     7     9    1
     6    10    1
     5    11    1
     4    12    1
     3    13    1
     7    10    1
     4    13    1
     3    14    1
     1    16    1
     4    14    1
     1    17    1
     1    18    1
     9    11    1
     5    15    1
     4    16    1
     1    19    1
     4    17    1
     1    20    1
     4    18    1
     3    19    1
     3    20    1
     6    19    1
     4    21    1
     7    19    1
     6    20    1
    12    15    1
     8    19    1
     7    20    1
     6    21    1
     5    22    1
    13    15    1
     8    20    1
     7    21    1
     5    23    1
    14    15    1
     5    24    1
     5    25    1
    15    16    1
     5    26    1
    15    17    1
    11    21    1
    10    22    1
    15    18    1
    10    23    1
    15    19    1
    10    24    1
     9    25    1
    15    20    1
     9    26    1
    21    22    1
    21    23    1
    21    24    1
    21    25    1
    21    26    1

