
;
; GENERATED BY LigParGen Server
; Jorgensen Lab @ Yale University 
;
[ atomtypes ]
  opls_818  H818     1.0080     0.000    A    2.50000E-01   1.25520E-01
  opls_814  C814    12.0110     0.000    A    3.50000E-01   2.76144E-01
  opls_824  H824     1.0080     0.000    A    2.50000E-01   1.25520E-01
  opls_809  O809    15.9990     0.000    A    2.90000E-01   5.85760E-01
  opls_843  H843     1.0080     0.000    A    2.50000E-01   1.25520E-01
  opls_836  H836     1.0080     0.000    A    2.50000E-01   1.25520E-01
  opls_834  H834     1.0080     0.000    A    2.50000E-01   1.25520E-01
  opls_828  H828     1.0080     0.000    A    2.50000E-01   1.25520E-01
  opls_812  O812    15.9990     0.000    A    2.90000E-01   5.85760E-01
  opls_802  C802    12.0110     0.000    A    3.50000E-01   2.76144E-01
  opls_827  H827     1.0080     0.000    A    2.50000E-01   1.25520E-01
  opls_801  C801    12.0110     0.000    A    3.50000E-01   2.76144E-01
  opls_806  C806    12.0110     0.000    A    3.50000E-01   2.76144E-01
  opls_811  O811    15.9990     0.000    A    2.96000E-01   8.78640E-01
  opls_822  H822     1.0080     0.000    A    2.50000E-01   1.25520E-01
  opls_803  C803    12.0110     0.000    A    3.50000E-01   2.76144E-01
  opls_838  H838     1.0080     0.000    A    2.50000E-01   1.25520E-01
  opls_804  N804    14.0070     0.000    A    3.30000E-01   7.11280E-01
  opls_830  H830     1.0080     0.000    A    2.50000E-01   1.25520E-01
  opls_805  C805    12.0110     0.000    A    3.50000E-01   2.76144E-01
  opls_842  H842     1.0080     0.000    A    2.50000E-01   1.25520E-01
  opls_820  H820     1.0080     0.000    A    2.50000E-01   1.25520E-01
  opls_837  H837     1.0080     0.000    A    2.50000E-01   1.25520E-01
  opls_821  H821     1.0080     0.000    A    2.50000E-01   1.25520E-01
  opls_831  H831     1.0080     0.000    A    2.50000E-01   1.25520E-01
  opls_810  C810    12.0110     0.000    A    3.55000E-01   2.92880E-01
  opls_832  H832     1.0080     0.000    A    2.50000E-01   1.25520E-01
  opls_800  C800    12.0110     0.000    A    3.50000E-01   2.76144E-01
  opls_815  C815    12.0110     0.000    A    3.50000E-01   2.76144E-01
  opls_823  H823     1.0080     0.000    A    2.50000E-01   1.25520E-01
  opls_813  C813    12.0110     0.000    A    3.50000E-01   2.76144E-01
  opls_826  H826     1.0080     0.000    A    2.50000E-01   1.25520E-01
  opls_835  H835     1.0080     0.000    A    2.50000E-01   1.25520E-01
  opls_841  H841     1.0080     0.000    A    2.50000E-01   1.25520E-01
  opls_825  H825     1.0080     0.000    A    2.50000E-01   1.25520E-01
  opls_819  H819     1.0080     0.000    A    2.50000E-01   1.25520E-01
  opls_816  C816    12.0110     0.000    A    3.50000E-01   2.76144E-01
  opls_833  H833     1.0080     0.000    A    2.50000E-01   1.25520E-01
  opls_839  H839     1.0080     0.000    A    2.50000E-01   1.25520E-01
  opls_808  C808    12.0110     0.000    A    3.50000E-01   2.76144E-01
  opls_817  H817     1.0080     0.000    A    2.50000E-01   1.25520E-01
  opls_829  H829     1.0080     0.000    A    2.50000E-01   1.25520E-01
  opls_840  H840     1.0080     0.000    A    2.50000E-01   1.25520E-01
  opls_807  C807    12.0110     0.000    A    3.50000E-01   2.76144E-01
[ moleculetype ]
; Name               nrexcl
UNK                   3
[ atoms ]
;   nr       type  resnr residue  atom   cgnr     charge       mass  
     1   opls_800      1    UNK   C00      1    -0.2716    12.0110 
     2   opls_801      1    UNK   C01      1     0.0772    12.0110 
     3   opls_802      1    UNK   C02      1    -0.1815    12.0110 
     4   opls_803      1    UNK   C03      1      0.009    12.0110 
     5   opls_804      1    UNK   N04      1    -0.5822    14.0070 
     6   opls_805      1    UNK   C05      1     -0.053    12.0110 
     7   opls_806      1    UNK   C06      1     0.0782    12.0110 
     8   opls_807      1    UNK   C07      1     -0.238    12.0110 
     9   opls_808      1    UNK   C08      1    -0.2377    12.0110 
    10   opls_809      1    UNK   O09      1    -0.3285    15.9990 
    11   opls_810      1    UNK   C0A      1      0.583    12.0110 
    12   opls_811      1    UNK   O0B      1    -0.5069    15.9990 
    13   opls_812      1    UNK   O0C      1    -0.3316    15.9990 
    14   opls_813      1    UNK   C0D      1     0.1591    12.0110 
    15   opls_814      1    UNK   C0E      1    -0.2734    12.0110 
    16   opls_815      1    UNK   C0F      1    -0.2395    12.0110 
    17   opls_816      1    UNK   C0G      1    -0.2738    12.0110 
    18   opls_817      1    UNK   H0H      1     0.1007     1.0080 
    19   opls_818      1    UNK   H0I      1     0.1007     1.0080 
    20   opls_819      1    UNK   H0J      1     0.1007     1.0080 
    21   opls_820      1    UNK   H0K      1     0.1271     1.0080 
    22   opls_821      1    UNK   H0M      1     0.1147     1.0080 
    23   opls_822      1    UNK   H0N      1     0.1147     1.0080 
    24   opls_823      1    UNK   H0O      1     0.0917     1.0080 
    25   opls_824      1    UNK   H0P      1     0.0917     1.0080 
    26   opls_825      1    UNK   H0Q      1      0.082     1.0080 
    27   opls_826      1    UNK   H0R      1      0.082     1.0080 
    28   opls_827      1    UNK   H0S      1      0.082     1.0080 
    29   opls_828      1    UNK   H0T      1     0.0726     1.0080 
    30   opls_829      1    UNK   H0U      1     0.0873     1.0080 
    31   opls_830      1    UNK   H0V      1     0.0873     1.0080 
    32   opls_831      1    UNK   H0W      1     0.0873     1.0080 
    33   opls_832      1    UNK   H0X      2     0.0874     1.0080 
    34   opls_833      1    UNK   H0Y      2     0.0874     1.0080 
    35   opls_834      1    UNK   H0Z      2     0.0874     1.0080 
    36   opls_835      1    UNK   H10      2     0.1045     1.0080 
    37   opls_836      1    UNK   H11      2     0.1045     1.0080 
    38   opls_837      1    UNK   H12      2     0.1045     1.0080 
    39   opls_838      1    UNK   H13      2     0.1001     1.0080 
    40   opls_839      1    UNK   H14      2     0.1001     1.0080 
    41   opls_840      1    UNK   H15      2     0.1001     1.0080 
    42   opls_841      1    UNK   H16      2     0.1043     1.0080 
    43   opls_842      1    UNK   H17      2     0.1043     1.0080 
    44   opls_843      1    UNK   H18      2     0.1043     1.0080 
[ bonds ]
    2     1     1      0.1529 224262.400
    3     2     1      0.1529 224262.400
    4     3     1      0.1529 224262.400
    5     4     1      0.1448 319657.600
    6     5     1      0.1448 319657.600
    7     5     1      0.1448 319657.600
    8     7     1      0.1529 224262.400
    9     7     1      0.1529 224262.400
   10     2     1      0.1410 267776.000
   11    10     1      0.1327 179075.200
   12    11     1      0.1229 476976.000
   13    11     1      0.1327 179075.200
   14    13     1      0.1410 267776.000
   15    14     1      0.1529 224262.400
   16    14     1      0.1529 224262.400
   17    14     1      0.1529 224262.400
   18     1     1      0.1090 284512.000
   19     1     1      0.1090 284512.000
   20     1     1      0.1090 284512.000
   21     2     1      0.1090 284512.000
   22     3     1      0.1090 284512.000
   23     3     1      0.1090 284512.000
   24     4     1      0.1090 284512.000
   25     4     1      0.1090 284512.000
   26     6     1      0.1090 284512.000
   27     6     1      0.1090 284512.000
   28     6     1      0.1090 284512.000
   29     7     1      0.1090 284512.000
   30     8     1      0.1090 284512.000
   31     8     1      0.1090 284512.000
   32     8     1      0.1090 284512.000
   33     9     1      0.1090 284512.000
   34     9     1      0.1090 284512.000
   35     9     1      0.1090 284512.000
   36    15     1      0.1090 284512.000
   37    15     1      0.1090 284512.000
   38    15     1      0.1090 284512.000
   39    16     1      0.1090 284512.000
   40    16     1      0.1090 284512.000
   41    16     1      0.1090 284512.000
   42    17     1      0.1090 284512.000
   43    17     1      0.1090 284512.000
   44    17     1      0.1090 284512.000

[ angles ]
;  ai    aj    ak funct            c0            c1            c2            c3 
    1     2     3     1    112.700    488.273
    2     3     4     1    112.700    488.273
    3     4     5     1    109.470    470.282
    4     5     6     1    107.200    433.462
    4     5     7     1    107.200    433.462
    5     7     8     1    109.470    470.282
    5     7     9     1    109.470    470.282
    1     2    10     1    109.500    418.400
    2    10    11     1    116.900    694.544
   10    11    12     1    123.400    694.544
   10    11    13     1    118.180    584.923
   11    13    14     1    116.900    694.544
   13    14    15     1    109.500    418.400
   13    14    16     1    109.500    418.400
   13    14    17     1    109.500    418.400
    2     1    18     1    110.700    313.800
    2     1    19     1    110.700    313.800
    2     1    20     1    110.700    313.800
    1     2    21     1    110.700    313.800
    2     3    22     1    110.700    313.800
    2     3    23     1    110.700    313.800
    3     4    24     1    110.700    313.800
    3     4    25     1    110.700    313.800
    5     6    26     1    109.500    292.880
    5     6    27     1    109.500    292.880
    5     6    28     1    109.500    292.880
    5     7    29     1    109.500    292.880
    7     8    30     1    110.700    313.800
    7     8    31     1    110.700    313.800
    7     8    32     1    110.700    313.800
    7     9    33     1    110.700    313.800
    7     9    34     1    110.700    313.800
    7     9    35     1    110.700    313.800
   14    15    36     1    110.700    313.800
   14    15    37     1    110.700    313.800
   14    15    38     1    110.700    313.800
   14    16    39     1    110.700    313.800
   14    16    40     1    110.700    313.800
   14    16    41     1    110.700    313.800
   14    17    42     1    110.700    313.800
   14    17    43     1    110.700    313.800
   14    17    44     1    110.700    313.800
   42    17    44     1    107.800    276.144
   19     1    20     1    107.800    276.144
   36    15    37     1    107.800    276.144
   15    14    16     1    112.700    488.273
   34     9    35     1    107.800    276.144
    3     2    21     1    110.700    313.800
   39    16    40     1    107.800    276.144
   33     9    34     1    107.800    276.144
    5     4    24     1    109.500    292.880
   31     8    32     1    107.800    276.144
   40    16    41     1    107.800    276.144
   24     4    25     1    107.800    276.144
    4     3    22     1    110.700    313.800
   15    14    17     1    112.700    488.273
    8     7     9     1    112.700    488.273
    4     3    23     1    110.700    313.800
   16    14    17     1    112.700    488.273
   12    11    13     1    123.400    694.544
   26     6    27     1    107.800    276.144
    8     7    29     1    110.700    313.800
   18     1    19     1    107.800    276.144
   27     6    28     1    107.800    276.144
   36    15    38     1    107.800    276.144
    6     5     7     1    107.200    433.462
    5     4    25     1    109.500    292.880
   39    16    41     1    107.800    276.144
   26     6    28     1    107.800    276.144
   43    17    44     1    107.800    276.144
   22     3    23     1    107.800    276.144
   18     1    20     1    107.800    276.144
   30     8    31     1    107.800    276.144
   37    15    38     1    107.800    276.144
   42    17    43     1    107.800    276.144
   10     2    21     1    109.500    292.880
   30     8    32     1    107.800    276.144
    9     7    29     1    110.700    313.800
   33     9    35     1    107.800    276.144
    3     2    10     1    109.500    418.400

[ dihedrals ]
; IMPROPER DIHEDRAL ANGLES 
;  ai    aj    ak    al funct            c0            c1            c2            c3            c4            c5
    13    11    10    12    4        180.000     43.932     2  

[ dihedrals ]
; PROPER DIHEDRAL ANGLES
;  ai    aj    ak    al funct            c0            c1            c2            c3            c4            c5
   11   10    2    3        3      -2.197   5.201   0.527  -3.531  -0.000   0.000
   11   10    2    1        3      -2.197   5.201   0.527  -3.531  -0.000   0.000
    4    3    2    1        3       2.301  -1.464   0.837  -1.674  -0.000   0.000
    9    7    5    6        3       1.789   3.492   0.536  -5.816  -0.000   0.000
    8    7    5    6        3       1.789   3.492   0.536  -5.816  -0.000   0.000
    8    7    5    4        3       1.789   3.492   0.536  -5.816  -0.000   0.000
    9    7    5    4        3       1.789   3.492   0.536  -5.816  -0.000   0.000
   17   14   13   11        3      -2.197   5.201   0.527  -3.531  -0.000   0.000
   15   14   13   11        3      -2.197   5.201   0.527  -3.531  -0.000   0.000
   16   14   13   11        3      -2.197   5.201   0.527  -3.531  -0.000   0.000
    7    5    4    3        3       1.789   3.492   0.536  -5.816  -0.000   0.000
    6    5    4    3        3       1.789   3.492   0.536  -5.816  -0.000   0.000
   14   13   11   12        3      21.439   0.000  -21.439  -0.000  -0.000   0.000
   14   13   11   10        3      31.206  -9.768  -21.439  -0.000  -0.000   0.000
   42   17   14   16        3       0.628   1.883   0.000  -2.510  -0.000   0.000
   39   16   14   17        3       0.628   1.883   0.000  -2.510  -0.000   0.000
   41   16   14   15        3       0.628   1.883   0.000  -2.510  -0.000   0.000
   36   15   14   17        3       0.628   1.883   0.000  -2.510  -0.000   0.000
   44   17   14   15        3       0.628   1.883   0.000  -2.510  -0.000   0.000
   44   17   14   16        3       0.628   1.883   0.000  -2.510  -0.000   0.000
   36   15   14   16        3       0.628   1.883   0.000  -2.510  -0.000   0.000
   40   16   14   15        3       0.628   1.883   0.000  -2.510  -0.000   0.000
   19    1    2    3        3       0.628   1.883   0.000  -2.510  -0.000   0.000
   37   15   14   16        3       0.628   1.883   0.000  -2.510  -0.000   0.000
   41   16   14   17        3       0.628   1.883   0.000  -2.510  -0.000   0.000
   24    4    3    2        3       0.628   1.883   0.000  -2.510  -0.000   0.000
   30    8    7    9        3       0.628   1.883   0.000  -2.510  -0.000   0.000
   39   16   14   15        3       0.628   1.883   0.000  -2.510  -0.000   0.000
   37   15   14   17        3       0.628   1.883   0.000  -2.510  -0.000   0.000
   38   15   14   16        3       0.628   1.883   0.000  -2.510  -0.000   0.000
   43   17   14   15        3       0.628   1.883   0.000  -2.510  -0.000   0.000
   32    8    7    9        3       0.628   1.883   0.000  -2.510  -0.000   0.000
   23    3    2    1        3       0.628   1.883   0.000  -2.510  -0.000   0.000
   33    9    7    8        3       0.628   1.883   0.000  -2.510  -0.000   0.000
   21    2    3    4        3       0.628   1.883   0.000  -2.510  -0.000   0.000
   20    1    2    3        3       0.628   1.883   0.000  -2.510  -0.000   0.000
   22    3    2    1        3       0.628   1.883   0.000  -2.510  -0.000   0.000
   42   17   14   15        3       0.628   1.883   0.000  -2.510  -0.000   0.000
   34    9    7    8        3       0.628   1.883   0.000  -2.510  -0.000   0.000
   25    4    3    2        3       0.628   1.883   0.000  -2.510  -0.000   0.000
   35    9    7    8        3       0.628   1.883   0.000  -2.510  -0.000   0.000
   43   17   14   16        3       0.628   1.883   0.000  -2.510  -0.000   0.000
   40   16   14   17        3       0.628   1.883   0.000  -2.510  -0.000   0.000
   38   15   14   17        3       0.628   1.883   0.000  -2.510  -0.000   0.000
   31    8    7    9        3       0.628   1.883   0.000  -2.510  -0.000   0.000
   18    1    2    3        3       0.628   1.883   0.000  -2.510  -0.000   0.000
   23    3    2   21        3       0.628   1.883   0.000  -2.510  -0.000   0.000
   21    2    1   20        3       0.628   1.883   0.000  -2.510  -0.000   0.000
   21    2    1   18        3       0.628   1.883   0.000  -2.510  -0.000   0.000
   24    4    3   22        3       0.628   1.883   0.000  -2.510  -0.000   0.000
   25    4    3   23        3       0.628   1.883   0.000  -2.510  -0.000   0.000
   31    8    7   29        3       0.628   1.883   0.000  -2.510  -0.000   0.000
   30    8    7   29        3       0.628   1.883   0.000  -2.510  -0.000   0.000
   33    9    7   29        3       0.628   1.883   0.000  -2.510  -0.000   0.000
   25    4    3   22        3       0.628   1.883   0.000  -2.510  -0.000   0.000
   24    4    3   23        3       0.628   1.883   0.000  -2.510  -0.000   0.000
   22    3    2   21        3       0.628   1.883   0.000  -2.510  -0.000   0.000
   21    2    1   19        3       0.628   1.883   0.000  -2.510  -0.000   0.000
   34    9    7   29        3       0.628   1.883   0.000  -2.510  -0.000   0.000
   35    9    7   29        3       0.628   1.883   0.000  -2.510  -0.000   0.000
   32    8    7   29        3       0.628   1.883   0.000  -2.510  -0.000   0.000
   34    9    7    5        3      -4.096   5.088   2.966  -3.958  -0.000   0.000
   22    3    4    5        3      -4.096   5.088   2.966  -3.958  -0.000   0.000
   30    8    7    5        3      -4.096   5.088   2.966  -3.958  -0.000   0.000
   32    8    7    5        3      -4.096   5.088   2.966  -3.958  -0.000   0.000
   35    9    7    5        3      -4.096   5.088   2.966  -3.958  -0.000   0.000
   33    9    7    5        3      -4.096   5.088   2.966  -3.958  -0.000   0.000
   23    3    4    5        3      -4.096   5.088   2.966  -3.958  -0.000   0.000
   31    8    7    5        3      -4.096   5.088   2.966  -3.958  -0.000   0.000
   23    3    2   10        3       0.979   2.937   0.000  -3.916  -0.000   0.000
   44   17   14   13        3       0.979   2.937   0.000  -3.916  -0.000   0.000
   37   15   14   13        3       0.979   2.937   0.000  -3.916  -0.000   0.000
   19    1    2   10        3       0.979   2.937   0.000  -3.916  -0.000   0.000
   40   16   14   13        3       0.979   2.937   0.000  -3.916  -0.000   0.000
   42   17   14   13        3       0.979   2.937   0.000  -3.916  -0.000   0.000
   41   16   14   13        3       0.979   2.937   0.000  -3.916  -0.000   0.000
   39   16   14   13        3       0.979   2.937   0.000  -3.916  -0.000   0.000
   22    3    2   10        3       0.979   2.937   0.000  -3.916  -0.000   0.000
   18    1    2   10        3       0.979   2.937   0.000  -3.916  -0.000   0.000
   38   15   14   13        3       0.979   2.937   0.000  -3.916  -0.000   0.000
   36   15   14   13        3       0.979   2.937   0.000  -3.916  -0.000   0.000
   43   17   14   13        3       0.979   2.937   0.000  -3.916  -0.000   0.000
   20    1    2   10        3       0.979   2.937   0.000  -3.916  -0.000   0.000
   28    6    5    7        3       1.172   3.515   0.000  -4.686  -0.000   0.000
   26    6    5    7        3       1.172   3.515   0.000  -4.686  -0.000   0.000
   27    6    5    7        3       1.172   3.515   0.000  -4.686  -0.000   0.000
   24    4    5    6        3       1.172   3.515   0.000  -4.686  -0.000   0.000
   25    4    5    6        3       1.172   3.515   0.000  -4.686  -0.000   0.000
   25    4    5    7        3       1.172   3.515   0.000  -4.686  -0.000   0.000
   28    6    5    4        3       1.172   3.515   0.000  -4.686  -0.000   0.000
   26    6    5    4        3       1.172   3.515   0.000  -4.686  -0.000   0.000
   29    7    5    4        3       1.172   3.515   0.000  -4.686  -0.000   0.000
   29    7    5    6        3       1.172   3.515   0.000  -4.686  -0.000   0.000
   24    4    5    7        3       1.172   3.515   0.000  -4.686  -0.000   0.000
   27    6    5    4        3       1.172   3.515   0.000  -4.686  -0.000   0.000
   21    2   10   11        3       0.414   1.243   0.000  -1.657  -0.000   0.000
    5    4    3    2        3       3.335  -1.552   2.820  -4.602  -0.000   0.000
   12   11   10    2        3      21.439   0.000  -21.439  -0.000  -0.000   0.000
   13   11   10    2        3      31.206  -9.768  -21.439  -0.000  -0.000   0.000
   10    2    3    4        3       2.874   0.582   2.092  -5.548  -0.000   0.000

[ pairs ]
     1     4    1
     2     5    1
     3     6    1
     3     7    1
     4     8    1
     1    11    1
     4     9    1
     6     8    1
     4    10    1
     3    11    1
     2    12    1
     6     9    1
     2    13    1
     3    18    1
     3    19    1
     3    20    1
     1    22    1
    10    14    1
     1    23    1
     4    21    1
    12    14    1
    11    15    1
     2    24    1
    11    16    1
     5    22    1
     2    25    1
    11    17    1
    10    18    1
     5    23    1
    10    19    1
    10    20    1
     6    24    1
     4    26    1
     7    24    1
     6    25    1
     4    27    1
    11    21    1
    10    22    1
     7    25    1
     4    28    1
    10    23    1
     7    26    1
     4    29    1
     7    27    1
     7    28    1
     6    29    1
     5    30    1
     5    31    1
     5    32    1
     5    33    1
    18    21    1
     9    30    1
     5    34    1
    19    21    1
     9    31    1
     5    35    1
    20    21    1
     9    32    1
     8    33    1
     8    34    1
    21    22    1
     8    35    1
    21    23    1
    22    24    1
    23    24    1
    22    25    1
    23    25    1
    13    36    1
    13    37    1
    13    38    1
    16    36    1
    13    39    1
    17    36    1
    16    37    1
    13    40    1
    17    37    1
    16    38    1
    15    39    1
    13    41    1
    17    38    1
    15    40    1
    13    42    1
    17    39    1
    15    41    1
    13    43    1
    17    40    1
    15    42    1
    13    44    1
    17    41    1
    16    42    1
    15    43    1
    29    30    1
    16    43    1
    15    44    1
    29    31    1
    16    44    1
    29    32    1
    29    33    1
    29    34    1
    29    35    1

