LIGPARGEN GENERATED GRO FILE
   26
    1UNK    C00    1   0.100   0.100   0.000
    1UNK    C01    2  -0.053   0.100   0.000
    1UNK    C02    3  -0.104   0.100   0.144
    1UNK    C03    4  -0.112   0.220  -0.077
    1UNK    C04    5  -0.078   0.227  -0.226
    1UNK    F05    6  -0.139   0.339  -0.277
    1UNK    F06    7   0.055   0.249  -0.239
    1UNK    C07    8  -0.118   0.107  -0.310
    1UNK    C08    9  -0.270   0.083  -0.309
    1UNK    C09   10  -0.069   0.127  -0.453
    1UNK    F0A   11  -0.100   0.017  -0.526
    1UNK    H0B   12   0.139   0.017   0.060
    1UNK    H0C   13   0.140   0.193   0.042
    1UNK    H0D   14   0.140   0.087  -0.101
    1UNK    H0E   15  -0.087   0.007  -0.046
    1UNK    H0F   16  -0.078   0.193   0.196
    1UNK    H0G   17  -0.061   0.017   0.201
    1UNK    H0H   18  -0.213   0.089   0.146
    1UNK    H0I   19  -0.077   0.313  -0.029
    1UNK    H0J   20  -0.221   0.221  -0.065
    1UNK    H0K   21  -0.069   0.016  -0.272
    1UNK    H0M   22  -0.324   0.171  -0.346
    1UNK    H0N   23  -0.306   0.060  -0.209
    1UNK    H0O   24  -0.296  -0.002  -0.373
    1UNK    H0P   25   0.040   0.139  -0.457
    1UNK    H0Q   26  -0.116   0.214  -0.501
   1.00000   1.00000   1.00000

