LIGPARGEN GENERATED GRO FILE
   44
    1UNK    C00    1   0.100   0.100   0.000
    1UNK    C01    2  -0.053   0.100   0.000
    1UNK    C02    3  -0.105   0.100   0.144
    1UNK    C03    4  -0.259   0.100   0.150
    1UNK    N04    5  -0.316   0.091   0.287
    1UNK    C05    6  -0.270   0.205   0.367
    1UNK    C06    7  -0.465   0.084   0.284
    1UNK    C07    8  -0.517  -0.039   0.207
    1UNK    C08    9  -0.526   0.078   0.425
    1UNK    O09   10  -0.100   0.219  -0.067
    1UNK    C0A   11  -0.103   0.209  -0.203
    1UNK    O0B   12  -0.070   0.111  -0.266
    1UNK    O0C   13  -0.149   0.327  -0.254
    1UNK    C0D   14  -0.155   0.342  -0.398
    1UNK    C0E   15  -0.253   0.242  -0.461
    1UNK    C0F   16  -0.209   0.483  -0.423
    1UNK    C0G   17  -0.015   0.332  -0.460
    1UNK    H0H   18   0.139   0.008   0.044
    1UNK    H0I   19   0.139   0.185   0.056
    1UNK    H0J   20   0.140   0.109  -0.102
    1UNK    H0K   21  -0.090   0.010  -0.051
    1UNK    H0M   22  -0.066   0.189   0.194
    1UNK    H0N   23  -0.067   0.012   0.197
    1UNK    H0O   24  -0.291   0.012   0.092
    1UNK    H0P   25  -0.299   0.189   0.099
    1UNK    H0Q   26  -0.161   0.207   0.377
    1UNK    H0R   27  -0.304   0.198   0.471
    1UNK    H0S   28  -0.303   0.301   0.325
    1UNK    H0T   29  -0.504   0.174   0.235
    1UNK    H0U   30  -0.473  -0.131   0.246
    1UNK    H0V   31  -0.496  -0.033   0.100
    1UNK    H0W   32  -0.626  -0.047   0.216
    1UNK    H0X   33  -0.483  -0.004   0.483
    1UNK    H0Y   34  -0.634   0.061   0.420
    1UNK    H0Z   35  -0.512   0.171   0.480
    1UNK    H10   36  -0.353   0.254  -0.417
    1UNK    H11   37  -0.225   0.138  -0.443
    1UNK    H12   38  -0.261   0.255  -0.569
    1UNK    H13   39  -0.307   0.497  -0.377
    1UNK    H14   40  -0.218   0.504  -0.530
    1UNK    H15   41  -0.143   0.559  -0.378
    1UNK    H16   42   0.030   0.233  -0.447
    1UNK    H17   43   0.053   0.404  -0.413
    1UNK    H18   44  -0.018   0.352  -0.568
   1.00000   1.00000   1.00000

