LIGPARGEN GENERATED GRO FILE
   39
    1UNK    C00    1   0.100   0.100   0.000
    1UNK    C01    2  -0.052   0.100   0.000
    1UNK    C02    3  -0.109   0.100   0.142
    1UNK    C03    4  -0.264   0.113   0.145
    1UNK    C04    5  -0.335  -0.009   0.082
    1UNK    C05    6  -0.331  -0.139   0.164
    1UNK    C06    7  -0.384  -0.263   0.091
    1UNK    S07    8  -0.501   0.024   0.018
    1UNK    O08    9  -0.597  -0.002   0.123
    1UNK    O09   10  -0.511  -0.050  -0.107
    1UNK    C0A   11  -0.514   0.196  -0.027
    1UNK    C0B   12  -0.583   0.285   0.075
    1UNK    C0C   13  -0.503   0.327   0.199
    1UNK    C0D   14  -0.482   0.219   0.304
    1UNK    S0E   15  -0.316   0.158   0.313
    1UNK    O0F   16  -0.314   0.041   0.397
    1UNK    O0G   17  -0.235   0.274   0.351
    1UNK    H0H   18   0.137   0.095  -0.103
    1UNK    H0I   19   0.139   0.013   0.054
    1UNK    H0J   20   0.139   0.191   0.046
    1UNK    H0K   21  -0.085   0.012  -0.055
    1UNK    H0M   22  -0.088   0.189  -0.054
    1UNK    H0N   23  -0.065   0.185   0.195
    1UNK    H0O   24  -0.077   0.011   0.197
    1UNK    H0P   25  -0.284   0.203   0.087
    1UNK    H0Q   26  -0.282  -0.030  -0.011
    1UNK    H0R   27  -0.391  -0.129   0.255
    1UNK    H0S   28  -0.228  -0.160   0.194
    1UNK    H0T   29  -0.492  -0.256   0.073
    1UNK    H0U   30  -0.368  -0.352   0.153
    1UNK    H0V   31  -0.333  -0.277  -0.004
    1UNK    H0W   32  -0.577   0.196  -0.117
    1UNK    H0X   33  -0.417   0.234  -0.060
    1UNK    H0Y   34  -0.678   0.240   0.107
    1UNK    H0Z   35  -0.610   0.377   0.023
    1UNK    H10   36  -0.560   0.407   0.246
    1UNK    H11   37  -0.408   0.373   0.168
    1UNK    H12   38  -0.551   0.135   0.297
    1UNK    H13   39  -0.500   0.264   0.403
   1.00000   1.00000   1.00000

