LIGPARGEN GENERATED GRO FILE
   44
    1UNK    C00    1   0.100   0.100   0.000
    1UNK    C01    2  -0.052   0.100   0.000
    1UNK    C02    3  -0.108   0.100   0.142
    1UNK    C03    4  -0.261   0.100   0.138
    1UNK    C04    5  -0.323   0.093   0.278
    1UNK    C05    6  -0.476   0.093   0.274
    1UNK    C06    7  -0.533  -0.029   0.200
    1UNK    C07    8  -0.689  -0.041   0.189
    1UNK    C08    9  -0.748  -0.049   0.332
    1UNK    C09   10  -0.744   0.088   0.124
    1UNK    C0A   11  -0.728  -0.171   0.101
    1UNK    C0B   12  -0.674  -0.302   0.165
    1UNK    C0C   13  -0.881  -0.188   0.087
    1UNK    C0D   14  -0.671  -0.164  -0.043
    1UNK    H0E   15   0.138   0.100  -0.103
    1UNK    H0F   16   0.139   0.011   0.050
    1UNK    H0G   17   0.139   0.189   0.051
    1UNK    H0H   18  -0.087   0.012  -0.054
    1UNK    H0I   19  -0.088   0.188  -0.054
    1UNK    H0J   20  -0.072   0.188   0.197
    1UNK    H0K   21  -0.073   0.011   0.196
    1UNK    H0M   22  -0.292   0.013   0.079
    1UNK    H0N   23  -0.296   0.190   0.086
    1UNK    H0O   24  -0.289   0.180   0.336
    1UNK    H0P   25  -0.287   0.004   0.330
    1UNK    H0Q   26  -0.509   0.186   0.227
    1UNK    H0R   27  -0.512   0.094   0.378
    1UNK    H0S   28  -0.492  -0.118   0.248
    1UNK    H0T   29  -0.493  -0.027   0.098
    1UNK    H0U   30  -0.728   0.042   0.388
    1UNK    H0V   31  -0.705  -0.132   0.389
    1UNK    H0W   32  -0.856  -0.061   0.330
    1UNK    H0X   33  -0.726   0.176   0.188
    1UNK    H0Y   34  -0.852   0.084   0.109
    1UNK    H0Z   35  -0.697   0.109   0.027
    1UNK    H10   36  -0.715  -0.318   0.265
    1UNK    H11   37  -0.565  -0.303   0.170
    1UNK    H12   38  -0.704  -0.389   0.105
    1UNK    H13   39  -0.930  -0.202   0.184
    1UNK    H14   40  -0.905  -0.277   0.028
    1UNK    H15   41  -0.928  -0.103   0.037
    1UNK    H16   42  -0.561  -0.165  -0.044
    1UNK    H17   43  -0.706  -0.076  -0.097
    1UNK    H18   44  -0.702  -0.252  -0.101
   1.00000   1.00000   1.00000

