LIGPARGEN GENERATED GRO FILE
   36
    1UNK    C00    1   0.100   0.100   0.000
    1UNK    C01    2  -0.052   0.100   0.000
    1UNK    C02    3  -0.106   0.100   0.143
    1UNK    S03    4  -0.282   0.064   0.150
    1UNK    O04    5  -0.350   0.171   0.080
    1UNK    O05    6  -0.294  -0.072   0.100
    1UNK    C06    7  -0.341   0.067   0.331
    1UNK    C07    8  -0.289   0.196   0.400
    1UNK    C08    9  -0.335   0.330   0.343
    1UNK    C09   10  -0.500   0.068   0.325
    1UNK    C0A   11  -0.545  -0.061   0.258
    1UNK    N0B   12  -0.582  -0.168   0.203
    1UNK    C0C   13  -0.291  -0.065   0.407
    1UNK    C0D   14  -0.141  -0.088   0.420
    1UNK    C0E   15  -0.350  -0.077   0.549
    1UNK    H0F   16   0.139   0.107  -0.102
    1UNK    H0G   17   0.139   0.008   0.045
    1UNK    H0H   18   0.139   0.185   0.057
    1UNK    H0I   19  -0.087   0.012  -0.055
    1UNK    H0J   20  -0.090   0.188  -0.054
    1UNK    H0K   21  -0.089   0.197   0.191
    1UNK    H0M   22  -0.054   0.023   0.198
    1UNK    H0N   23  -0.179   0.197   0.401
    1UNK    H0O   24  -0.320   0.195   0.505
    1UNK    H0P   25  -0.290   0.351   0.246
    1UNK    H0Q   26  -0.304   0.411   0.410
    1UNK    H0R   27  -0.444   0.336   0.334
    1UNK    H0S   28  -0.537   0.151   0.264
    1UNK    H0T   29  -0.544   0.077   0.425
    1UNK    H0U   30  -0.327  -0.152   0.351
    1UNK    H0V   31  -0.089  -0.002   0.465
    1UNK    H0W   32  -0.096  -0.113   0.324
    1UNK    H0X   33  -0.120  -0.175   0.483
    1UNK    H0Y   34  -0.317   0.005   0.613
    1UNK    H0Z   35  -0.318  -0.171   0.596
    1UNK    H10   36  -0.459  -0.080   0.548
   1.00000   1.00000   1.00000

