LIGPARGEN GENERATED GRO FILE
   50
    1UNK    C00    1   0.100   0.100   0.000
    1UNK    C01    2  -0.052   0.100   0.000
    1UNK    C02    3  -0.114   0.100   0.141
    1UNK    Cl0    4  -0.064   0.248   0.230
    1UNK    C04    5  -0.268   0.099   0.139
    1UNK    C05    6  -0.336  -0.024   0.074
    1UNK    C06    7  -0.294  -0.159   0.139
    1UNK    C07    8  -0.327  -0.174   0.287
    1UNK    C08    9  -0.490  -0.010   0.080
    1UNK    C09   10  -0.546   0.111   0.003
    1UNK    C0A   11  -0.701   0.123   0.010
    1UNK    C0B   12  -0.765   0.003  -0.059
    1UNK    C0C   13  -0.747   0.147   0.156
    1UNK    C0D   14  -0.896   0.177   0.187
    1UNK    C0E   15  -0.986   0.054   0.165
    1UNK    C0F   16  -0.907   0.213   0.337
    1UNK    C0G   17  -0.948   0.295   0.104
    1UNK    H0H   18   0.137   0.100  -0.103
    1UNK    H0I   19   0.139   0.011   0.050
    1UNK    H0J   20   0.141   0.188   0.050
    1UNK    H0K   21  -0.085   0.011  -0.055
    1UNK    H0M   22  -0.088   0.187  -0.057
    1UNK    H0N   23  -0.076   0.016   0.199
    1UNK    H0O   24  -0.300   0.189   0.085
    1UNK    H0P   25  -0.305   0.110   0.241
    1UNK    H0Q   26  -0.307  -0.029  -0.031
    1UNK    H0R   27  -0.186  -0.175   0.125
    1UNK    H0S   28  -0.343  -0.240   0.084
    1UNK    H0T   29  -0.269  -0.105   0.348
    1UNK    H0U   30  -0.304  -0.276   0.320
    1UNK    H0V   31  -0.433  -0.157   0.307
    1UNK    H0W   32  -0.520  -0.003   0.184
    1UNK    H0X   33  -0.534  -0.102   0.039
    1UNK    H0Y   34  -0.514   0.105  -0.102
    1UNK    H0Z   35  -0.504   0.204   0.043
    1UNK    H10   36  -0.726   0.212  -0.050
    1UNK    H11   37  -0.772  -0.083   0.009
    1UNK    H12   38  -0.707  -0.028  -0.147
    1UNK    H13   39  -0.865   0.028  -0.096
    1UNK    H14   40  -0.688   0.233   0.193
    1UNK    H15   41  -0.717   0.062   0.218
    1UNK    H16   42  -0.943  -0.035   0.212
    1UNK    H17   43  -1.002   0.032   0.059
    1UNK    H18   44  -1.085   0.069   0.208
    1UNK    H19   45  -0.885   0.126   0.400
    1UNK    H1A   46  -1.008   0.247   0.362
    1UNK    H1B   47  -0.837   0.293   0.364
    1UNK    H1C   48  -0.944   0.274  -0.003
    1UNK    H1D   49  -0.889   0.385   0.123
    1UNK    H1E   50  -1.052   0.318   0.129
   1.00000   1.00000   1.00000

