LIGPARGEN GENERATED GRO FILE
   23
    1UNK    C00    1   0.100   0.100   0.000
    1UNK    C01    2  -0.052   0.100   0.000
    1UNK    C02    3  -0.115   0.100   0.141
    1UNK    C03    4  -0.083   0.227   0.223
    1UNK    C04    5  -0.155   0.352   0.173
    1UNK    C05    6  -0.306   0.332   0.159
    1UNK    C06    7  -0.336   0.205   0.083
    1UNK    O07    8  -0.417   0.204  -0.011
    1UNK    C08    9  -0.267   0.078   0.130
    1UNK    Cl0   10  -0.339   0.032   0.287
    1UNK    H0A   11   0.137   0.085  -0.102
    1UNK    H0B   12   0.139   0.019   0.062
    1UNK    H0C   13   0.140   0.195   0.036
    1UNK    H0D   14  -0.085   0.009  -0.053
    1UNK    H0E   15  -0.088   0.185  -0.059
    1UNK    H0F   16  -0.072   0.014   0.195
    1UNK    H0G   17   0.025   0.246   0.224
    1UNK    H0H   18  -0.111   0.210   0.328
    1UNK    H0I   19  -0.113   0.382   0.076
    1UNK    H0J   20  -0.137   0.435   0.242
    1UNK    H0K   21  -0.349   0.417   0.106
    1UNK    H0M   22  -0.354   0.326   0.257
    1UNK    H0N   23  -0.290  -0.003   0.059
   1.00000   1.00000   1.00000

