LIGPARGEN GENERATED GRO FILE
   41
    1UNK    C00    1   0.100   0.100   0.000
    1UNK    C01    2  -0.052   0.100   0.000
    1UNK    C02    3  -0.121   0.100   0.139
    1UNK    C03    4  -0.275   0.116   0.126
    1UNK    C04    5  -0.318   0.245   0.055
    1UNK    C05    6  -0.471   0.258   0.044
    1UNK    C06    7  -0.505   0.389  -0.028
    1UNK    C07    8  -0.655   0.413  -0.044
    1UNK    C08    9  -0.681   0.543  -0.116
    1UNK    O09   10  -0.595   0.621  -0.155
    1UNK    O0A   11  -0.815   0.563  -0.130
    1UNK    C0B   12  -0.848   0.685  -0.197
    1UNK    S0C   13  -0.079  -0.055   0.227
    1UNK    O0D   14  -0.119  -0.166   0.143
    1UNK    O0E   15   0.058  -0.044   0.275
    1UNK    C0F   16  -0.181  -0.060   0.374
    1UNK    C0G   17  -0.149  -0.183   0.457
    1UNK    H0H   18   0.136   0.080  -0.101
    1UNK    H0I   19   0.144   0.023   0.064
    1UNK    H0J   20   0.139   0.198   0.031
    1UNK    H0K   21  -0.087   0.014  -0.057
    1UNK    H0M   22  -0.082   0.189  -0.056
    1UNK    H0N   23  -0.081   0.182   0.200
    1UNK    H0O   24  -0.319   0.117   0.226
    1UNK    H0P   25  -0.316   0.029   0.074
    1UNK    H0Q   26  -0.278   0.247  -0.046
    1UNK    H0R   27  -0.278   0.331   0.110
    1UNK    H0S   28  -0.516   0.257   0.144
    1UNK    H0T   29  -0.512   0.173  -0.012
    1UNK    H0U   30  -0.458   0.389  -0.127
    1UNK    H0V   31  -0.462   0.473   0.028
    1UNK    H0W   32  -0.704   0.417   0.054
    1UNK    H0X   33  -0.700   0.332  -0.103
    1UNK    H0Y   34  -0.957   0.692  -0.203
    1UNK    H0Z   35  -0.808   0.685  -0.299
    1UNK    H10   36  -0.811   0.771  -0.140
    1UNK    H11   37  -0.286  -0.064   0.343
    1UNK    H12   38  -0.162   0.032   0.431
    1UNK    H13   39  -0.168  -0.274   0.401
    1UNK    H14   40  -0.210  -0.185   0.548
    1UNK    H15   41  -0.043  -0.184   0.487
   1.00000   1.00000   1.00000

