LIGPARGEN GENERATED GRO FILE
   53
    1UNK    C00    1   0.100   0.100   0.000
    1UNK    C01    2  -0.051   0.100   0.000
    1UNK    C02    3  -0.108   0.100   0.142
    1UNK    C03    4  -0.261   0.100   0.140
    1UNK    C04    5  -0.320   0.100   0.281
    1UNK    C05    6  -0.474   0.089   0.278
    1UNK    P06    7  -0.537   0.082   0.449
    1UNK    O07    8  -0.555   0.235   0.442
    1UNK    C08    9  -0.701   0.014   0.363
    1UNK    C09   10  -0.733   0.020   0.214
    1UNK    C0A   11  -0.600   0.075   0.621
    1UNK    C0B   12  -0.504  -0.022   0.697
    1UNK    C0C   13  -0.591   0.212   0.701
    1UNK    C0D   14  -0.452   0.273   0.723
    1UNK    C0E   15  -0.460   0.401   0.806
    1UNK    C0F   16  -0.749   0.026   0.649
    1UNK    C0G   17  -0.814  -0.110   0.610
    1UNK    C0H   18  -0.737  -0.237   0.639
    1UNK    H0I   19   0.138   0.100  -0.103
    1UNK    H0J   20   0.140   0.011   0.050
    1UNK    H0K   21   0.140   0.189   0.051
    1UNK    H0M   22  -0.088   0.012  -0.054
    1UNK    H0N   23  -0.087   0.189  -0.054
    1UNK    H0O   24  -0.072   0.188   0.196
    1UNK    H0P   25  -0.072   0.011   0.196
    1UNK    H0Q   26  -0.296   0.012   0.085
    1UNK    H0R   27  -0.297   0.188   0.086
    1UNK    H0S   28  -0.290   0.191   0.335
    1UNK    H0T   29  -0.280   0.015   0.338
    1UNK    H0U   30  -0.491  -0.006   0.228
    1UNK    H0V   31  -0.515   0.171   0.218
    1UNK    H0W   32  -0.782   0.069   0.411
    1UNK    H0X   33  -0.694  -0.092   0.389
    1UNK    H0Y   34  -0.720   0.120   0.172
    1UNK    H0Z   35  -0.837  -0.010   0.198
    1UNK    H10   36  -0.672  -0.051   0.156
    1UNK    H11   37  -0.400   0.012   0.691
    1UNK    H12   38  -0.504  -0.121   0.654
    1UNK    H13   39  -0.532  -0.029   0.803
    1UNK    H14   40  -0.635   0.197   0.801
    1UNK    H15   41  -0.656   0.286   0.653
    1UNK    H16   42  -0.405   0.297   0.627
    1UNK    H17   43  -0.386   0.204   0.776
    1UNK    H18   44  -0.533   0.471   0.765
    1UNK    H19   45  -0.362   0.450   0.809
    1UNK    H1A   46  -0.489   0.377   0.909
    1UNK    H1B   47  -0.817   0.104   0.611
    1UNK    H1C   48  -0.764   0.030   0.758
    1UNK    H1D   49  -0.847  -0.112   0.506
    1UNK    H1E   50  -0.909  -0.116   0.663
    1UNK    H1F   51  -0.644  -0.243   0.582
    1UNK    H1G   52  -0.797  -0.324   0.607
    1UNK    H1H   53  -0.718  -0.247   0.746
   1.00000   1.00000   1.00000

