LIGPARGEN GENERATED GRO FILE
   43
    1UNK    C00    1   0.100   0.100   0.000
    1UNK    C01    2  -0.052   0.100   0.000
    1UNK    C02    3  -0.111   0.100   0.141
    1UNK    C03    4  -0.264   0.093   0.132
    1UNK    C04    5  -0.331   0.093   0.269
    1UNK    C05    6  -0.486   0.093   0.262
    1UNK    C06    7  -0.541  -0.028   0.181
    1UNK    C07    8  -0.693  -0.039   0.167
    1UNK    C08    9  -0.755   0.075   0.087
    1UNK    C09   10  -0.905   0.055   0.069
    1UNK    C0A   11  -0.548   0.108   0.403
    1UNK    S0B   12  -0.505  -0.022   0.519
    1UNK    O0C   13  -0.548  -0.150   0.465
    1UNK    O0D   14  -0.366  -0.006   0.558
    1UNK    C0E   15  -0.602   0.006   0.663
    1UNK    C0F   16  -0.565   0.141   0.722
    1UNK    N0G   17  -0.535   0.253   0.770
    1UNK    C0H   18  -0.748   0.006   0.622
    1UNK    N0I   19  -0.869   0.007   0.588
    1UNK    H0J   20   0.137   0.100  -0.103
    1UNK    H0K   21   0.139   0.011   0.050
    1UNK    H0M   22   0.140   0.189   0.050
    1UNK    H0N   23  -0.087   0.012  -0.055
    1UNK    H0O   24  -0.088   0.188  -0.055
    1UNK    H0P   25  -0.080   0.190   0.195
    1UNK    H0Q   26  -0.073   0.014   0.197
    1UNK    H0R   27  -0.290   0.002   0.078
    1UNK    H0S   28  -0.301   0.178   0.073
    1UNK    H0T   29  -0.299   0.181   0.325
    1UNK    H0U   30  -0.296   0.005   0.323
    1UNK    H0V   31  -0.515   0.183   0.206
    1UNK    H0W   32  -0.503  -0.121   0.224
    1UNK    H0X   33  -0.500  -0.024   0.079
    1UNK    H0Y   34  -0.741  -0.046   0.266
    1UNK    H0Z   35  -0.715  -0.134   0.117
    1UNK    H10   36  -0.708   0.081  -0.012
    1UNK    H11   37  -0.738   0.171   0.137
    1UNK    H12   38  -0.925  -0.037   0.013
    1UNK    H13   39  -0.948   0.138   0.013
    1UNK    H14   40  -0.955   0.047   0.166
    1UNK    H15   41  -0.657   0.113   0.395
    1UNK    H16   42  -0.514   0.202   0.447
    1UNK    H17   43  -0.582  -0.074   0.735
   1.00000   1.00000   1.00000

