
;
; GENERATED BY LigParGen Server
; Jorgensen Lab @ Yale University 
;
[ atomtypes ]
  opls_807  O807    15.9990     0.000    A    2.96000E-01   8.78640E-01
  opls_818  H818     1.0080     0.000    A    2.50000E-01   1.25520E-01
  opls_814  C814    12.0110     0.000    A    3.50000E-01   2.76144E-01
  opls_803  O803    15.9990     0.000    A    2.90000E-01   5.85760E-01
  opls_824  H824     1.0080     0.000    A    2.50000E-01   1.25520E-01
  opls_815  C815    12.0110     0.000    A    3.50000E-01   2.76144E-01
  opls_805  O805    15.9990     0.000    A    2.96000E-01   8.78640E-01
  opls_816  C816    12.0110     0.000    A    3.55000E-01   2.92880E-01
  opls_836  H836     1.0080     0.000    A    2.50000E-01   1.25520E-01
  opls_834  H834     1.0080     0.000    A    2.50000E-01   1.25520E-01
  opls_828  H828     1.0080     0.000    A    2.50000E-01   1.25520E-01
  opls_802  C802    12.0110     0.000    A    3.50000E-01   2.76144E-01
  opls_827  H827     1.0080     0.000    A    2.50000E-01   1.25520E-01
  opls_809  C809    12.0110     0.000    A    3.50000E-01   2.76144E-01
  opls_838  H838     1.0080     0.000    A    2.50000E-01   1.25520E-01
  opls_822  H822     1.0080     0.000    A    2.50000E-01   1.25520E-01
  opls_825  H825     1.0080     0.000    A    2.50000E-01   1.25520E-01
  opls_830  H830     1.0080     0.000    A    2.50000E-01   1.25520E-01
  opls_821  H821     1.0080     0.000    A    2.50000E-01   1.25520E-01
  opls_820  H820     1.0080     0.000    A    2.50000E-01   1.25520E-01
  opls_837  H837     1.0080     0.000    A    2.50000E-01   1.25520E-01
  opls_829  H829     1.0080     0.000    A    2.50000E-01   1.25520E-01
  opls_831  H831     1.0080     0.000    A    2.50000E-01   1.25520E-01
  opls_804  C804    12.0110     0.000    A    3.55000E-01   2.92880E-01
  opls_812  N812    14.0070     0.000    A    3.30000E-01   7.11280E-01
  opls_832  H832     1.0080     0.000    A    2.50000E-01   1.25520E-01
  opls_800  C800    12.0110     0.000    A    3.50000E-01   2.76144E-01
  opls_811  C811    12.0110     0.000    A    3.50000E-01   2.76144E-01
  opls_806  C806    12.0110     0.000    A    3.55000E-01   2.92880E-01
  opls_823  H823     1.0080     0.000    A    2.50000E-01   1.25520E-01
  opls_813  C813    12.0110     0.000    A    3.50000E-01   2.76144E-01
  opls_826  H826     1.0080     0.000    A    2.50000E-01   1.25520E-01
  opls_835  H835     1.0080     0.000    A    2.50000E-01   1.25520E-01
  opls_819  H819     1.0080     0.000    A    2.50000E-01   1.25520E-01
  opls_810  C810    12.0110     0.000    A    3.50000E-01   2.76144E-01
  opls_833  H833     1.0080     0.000    A    2.50000E-01   1.25520E-01
  opls_839  H839     1.0080     0.000    A    2.50000E-01   1.25520E-01
  opls_801  C801    12.0110     0.000    A    3.50000E-01   2.76144E-01
  opls_808  C808    12.0110     0.000    A    3.50000E-01   2.76144E-01
  opls_817  O817    15.9990     0.000    A    2.96000E-01   8.78640E-01
  opls_840  H840     1.0080     0.000    A    2.50000E-01   1.25520E-01
[ moleculetype ]
; Name               nrexcl
UNK                   3
[ atoms ]
;   nr       type  resnr residue  atom   cgnr     charge       mass  
     1   opls_800      1    UNK   C00      1    -0.2728    12.0110 
     2   opls_801      1    UNK   C01      1     0.0605    12.0110 
     3   opls_802      1    UNK   C02      1    -0.2462    12.0110 
     4   opls_803      1    UNK   O03      1    -0.3178    15.9990 
     5   opls_804      1    UNK   C04      1     0.3915    12.0110 
     6   opls_805      1    UNK   O05      1    -0.4381    15.9990 
     7   opls_806      1    UNK   C06      1      0.367    12.0110 
     8   opls_807      1    UNK   O07      1    -0.3771    15.9990 
     9   opls_808      1    UNK   C08      1    -0.2187    12.0110 
    10   opls_809      1    UNK   C09      1    -0.1634    12.0110 
    11   opls_810      1    UNK   C0A      1    -0.1712    12.0110 
    12   opls_811      1    UNK   C0B      1     0.0033    12.0110 
    13   opls_812      1    UNK   N0C      1    -0.5729    14.0070 
    14   opls_813      1    UNK   C0D      1    -0.0569    12.0110 
    15   opls_814      1    UNK   C0E      1     0.0114    12.0110 
    16   opls_815      1    UNK   C0F      1    -0.2564    12.0110 
    17   opls_816      1    UNK   C0G      1     0.3114    12.0110 
    18   opls_817      1    UNK   O0H      1    -0.4454    15.9990 
    19   opls_818      1    UNK   H0I      1     0.1006     1.0080 
    20   opls_819      1    UNK   H0J      1     0.1006     1.0080 
    21   opls_820      1    UNK   H0K      1     0.1006     1.0080 
    22   opls_821      1    UNK   H0M      1     0.1194     1.0080 
    23   opls_822      1    UNK   H0N      1     0.1008     1.0080 
    24   opls_823      1    UNK   H0O      1     0.1008     1.0080 
    25   opls_824      1    UNK   H0P      1     0.1008     1.0080 
    26   opls_825      1    UNK   H0Q      1     0.1381     1.0080 
    27   opls_826      1    UNK   H0R      1     0.1381     1.0080 
    28   opls_827      1    UNK   H0S      1     0.1081     1.0080 
    29   opls_828      1    UNK   H0T      1     0.1081     1.0080 
    30   opls_829      1    UNK   H0U      1     0.0926     1.0080 
    31   opls_830      1    UNK   H0V      1     0.0926     1.0080 
    32   opls_831      1    UNK   H0W      1     0.0823     1.0080 
    33   opls_832      1    UNK   H0X      2     0.0823     1.0080 
    34   opls_833      1    UNK   H0Y      2      0.085     1.0080 
    35   opls_834      1    UNK   H0Z      2      0.085     1.0080 
    36   opls_835      1    UNK   H10      2      0.085     1.0080 
    37   opls_836      1    UNK   H11      2     0.0996     1.0080 
    38   opls_837      1    UNK   H12      2     0.0996     1.0080 
    39   opls_838      1    UNK   H13      2      0.132     1.0080 
    40   opls_839      1    UNK   H14      2      0.132     1.0080 
    41   opls_840      1    UNK   H15      2     0.1079     1.0080 
[ bonds ]
    2     1     1      0.1529 224262.400
    3     2     1      0.1529 224262.400
    4     2     1      0.1410 267776.000
    5     4     1      0.1327 179075.200
    6     5     1      0.1229 476976.000
    7     5     1      0.1510 292880.000
    8     7     1      0.1229 476976.000
    9     7     1      0.1522 265265.600
   10     9     1      0.1529 224262.400
   11    10     1      0.1529 224262.400
   12    11     1      0.1529 224262.400
   13    12     1      0.1448 319657.600
   14    13     1      0.1448 319657.600
   15    13     1      0.1448 319657.600
   16    15     1      0.1529 224262.400
   17    16     1      0.1522 265265.600
   18    17     1      0.1229 476976.000
   19     1     1      0.1090 284512.000
   20     1     1      0.1090 284512.000
   21     1     1      0.1090 284512.000
   22     2     1      0.1090 284512.000
   23     3     1      0.1090 284512.000
   24     3     1      0.1090 284512.000
   25     3     1      0.1090 284512.000
   26     9     1      0.1090 284512.000
   27     9     1      0.1090 284512.000
   28    10     1      0.1090 284512.000
   29    10     1      0.1090 284512.000
   30    11     1      0.1090 284512.000
   31    11     1      0.1090 284512.000
   32    12     1      0.1090 284512.000
   33    12     1      0.1090 284512.000
   34    14     1      0.1090 284512.000
   35    14     1      0.1090 284512.000
   36    14     1      0.1090 284512.000
   37    15     1      0.1090 284512.000
   38    15     1      0.1090 284512.000
   39    16     1      0.1090 284512.000
   40    16     1      0.1090 284512.000
   41    17     1      0.1090 284512.000

[ angles ]
;  ai    aj    ak funct            c0            c1            c2            c3 
    1     2     3     1    112.700    488.273
    1     2     4     1    109.500    418.400
    2     4     5     1    116.900    694.544
    4     5     6     1    123.400    694.544
    4     5     7     1    118.180    584.923
    5     7     8     1    121.400    669.440
    5     7     9     1    117.200    669.440
    7     9    10     1    111.100    527.184
    9    10    11     1    112.700    488.273
   10    11    12     1    112.700    488.273
   11    12    13     1    109.470    470.282
   12    13    14     1    107.200    433.462
   12    13    15     1    107.200    433.462
   13    15    16     1    109.470    470.282
   15    16    17     1    111.100    527.184
   16    17    18     1    120.400    669.440
    2     1    19     1    110.700    313.800
    2     1    20     1    110.700    313.800
    2     1    21     1    110.700    313.800
    1     2    22     1    110.700    313.800
    2     3    23     1    110.700    313.800
    2     3    24     1    110.700    313.800
    2     3    25     1    110.700    313.800
    7     9    26     1    109.500    292.880
    7     9    27     1    109.500    292.880
    9    10    28     1    110.700    313.800
    9    10    29     1    110.700    313.800
   10    11    30     1    110.700    313.800
   10    11    31     1    110.700    313.800
   11    12    32     1    110.700    313.800
   11    12    33     1    110.700    313.800
   13    14    34     1    109.500    292.880
   13    14    35     1    109.500    292.880
   13    14    36     1    109.500    292.880
   13    15    37     1    109.500    292.880
   13    15    38     1    109.500    292.880
   15    16    39     1    110.700    313.800
   15    16    40     1    110.700    313.800
   16    17    41     1    115.000    292.880
   19     1    20     1    107.800    276.144
   34    14    36     1    107.800    276.144
   18    17    41     1    123.000    292.880
   17    16    40     1    109.500    292.880
   34    14    35     1    107.800    276.144
   23     3    25     1    107.800    276.144
   17    16    39     1    109.500    292.880
   12    11    31     1    110.700    313.800
    4     2    22     1    109.500    292.880
   14    13    15     1    107.200    433.462
   11    10    29     1    110.700    313.800
   26     9    27     1    107.800    276.144
   13    12    32     1    109.500    292.880
   39    16    40     1    107.800    276.144
    8     7     9     1    120.400    669.440
   13    12    33     1    109.500    292.880
   32    12    33     1    107.800    276.144
    3     2    22     1    110.700    313.800
   12    11    30     1    110.700    313.800
   19     1    21     1    107.800    276.144
   23     3    24     1    107.800    276.144
    6     5     7     1    121.400    669.440
    3     2     4     1    109.500    418.400
   11    10    28     1    110.700    313.800
   28    10    29     1    107.800    276.144
   30    11    31     1    107.800    276.144
   10     9    26     1    110.700    313.800
   16    15    38     1    110.700    313.800
   35    14    36     1    107.800    276.144
   16    15    37     1    110.700    313.800
   37    15    38     1    107.800    276.144
   20     1    21     1    107.800    276.144
   10     9    27     1    110.700    313.800
   24     3    25     1    107.800    276.144

[ dihedrals ]
; IMPROPER DIHEDRAL ANGLES 
;  ai    aj    ak    al funct            c0            c1            c2            c3            c4            c5
     7     5     4     6    4        180.000     43.932     2  
     9     7     5     8    4        180.000     43.932     2  
    41    17    16    18    4        180.000     43.932     2  

[ dihedrals ]
; PROPER DIHEDRAL ANGLES
;  ai    aj    ak    al funct            c0            c1            c2            c3            c4            c5
    7    5    4    2        3      31.206  -9.768  -21.439  -0.000  -0.000   0.000
   17   16   15   13        3       3.335  -1.552   2.820  -4.602  -0.000   0.000
    5    4    2    1        3      -2.197   5.201   0.527  -3.531  -0.000   0.000
    5    4    2    3        3      -2.197   5.201   0.527  -3.531  -0.000   0.000
    9    7    5    6        3       2.092   0.000  -2.092  -0.000  -0.000   0.000
    9    7    5    4        3       2.092   0.000  -2.092  -0.000  -0.000   0.000
   10    9    7    5        3       0.000   0.000   0.000  -0.000  -0.000   0.000
   10    9    7    8        3       0.000   0.000   0.000  -0.000  -0.000   0.000
   11   10    9    7        3      -4.960   6.286   1.310  -2.636  -0.000   0.000
   12   11   10    9        3       2.301  -1.464   0.837  -1.674  -0.000   0.000
   16   15   13   12        3       1.789   3.492   0.536  -5.816  -0.000   0.000
   16   15   13   14        3       1.789   3.492   0.536  -5.816  -0.000   0.000
   14   13   12   11        3       1.789   3.492   0.536  -5.816  -0.000   0.000
   15   13   12   11        3       1.789   3.492   0.536  -5.816  -0.000   0.000
   41   17   16   15        3       0.000   0.000   0.000  -0.000  -0.000   0.000
   41   17   16   40        3       0.753   2.259   0.000  -3.012  -0.000   0.000
   41   17   16   39        3       0.753   2.259   0.000  -3.012  -0.000   0.000
   27    9    7    5        3       0.178   0.533   0.000  -0.711  -0.000   0.000
   26    9    7    5        3       0.178   0.533   0.000  -0.711  -0.000   0.000
   26    9    7    8        3       0.000   0.000   0.000  -0.000  -0.000   0.000
   27    9    7    8        3       0.000   0.000   0.000  -0.000  -0.000   0.000
   39   16   17   18        3       0.000   0.000   0.000  -0.000  -0.000   0.000
   40   16   17   18        3       0.000   0.000   0.000  -0.000  -0.000   0.000
   28   10    9    7        3      -0.209  -0.628   0.000   0.837  -0.000   0.000
   29   10    9    7        3      -0.209  -0.628   0.000   0.837  -0.000   0.000
   38   15   16   17        3      -0.209  -0.628   0.000   0.837  -0.000   0.000
   37   15   16   17        3      -0.209  -0.628   0.000   0.837  -0.000   0.000
   26    9   10   11        3       0.628   1.883   0.000  -2.510  -0.000   0.000
   21    1    2    3        3       0.628   1.883   0.000  -2.510  -0.000   0.000
   33   12   11   10        3       0.628   1.883   0.000  -2.510  -0.000   0.000
   24    3    2    1        3       0.628   1.883   0.000  -2.510  -0.000   0.000
   30   11   10    9        3       0.628   1.883   0.000  -2.510  -0.000   0.000
   25    3    2    1        3       0.628   1.883   0.000  -2.510  -0.000   0.000
   27    9   10   11        3       0.628   1.883   0.000  -2.510  -0.000   0.000
   19    1    2    3        3       0.628   1.883   0.000  -2.510  -0.000   0.000
   28   10   11   12        3       0.628   1.883   0.000  -2.510  -0.000   0.000
   23    3    2    1        3       0.628   1.883   0.000  -2.510  -0.000   0.000
   29   10   11   12        3       0.628   1.883   0.000  -2.510  -0.000   0.000
   20    1    2    3        3       0.628   1.883   0.000  -2.510  -0.000   0.000
   32   12   11   10        3       0.628   1.883   0.000  -2.510  -0.000   0.000
   31   11   10    9        3       0.628   1.883   0.000  -2.510  -0.000   0.000
   40   16   15   37        3       0.628   1.883   0.000  -2.510  -0.000   0.000
   28   10    9   27        3       0.628   1.883   0.000  -2.510  -0.000   0.000
   39   16   15   38        3       0.628   1.883   0.000  -2.510  -0.000   0.000
   29   10    9   27        3       0.628   1.883   0.000  -2.510  -0.000   0.000
   22    2    1   19        3       0.628   1.883   0.000  -2.510  -0.000   0.000
   30   11   10   29        3       0.628   1.883   0.000  -2.510  -0.000   0.000
   31   11   10   28        3       0.628   1.883   0.000  -2.510  -0.000   0.000
   25    3    2   22        3       0.628   1.883   0.000  -2.510  -0.000   0.000
   30   11   10   28        3       0.628   1.883   0.000  -2.510  -0.000   0.000
   22    2    1   20        3       0.628   1.883   0.000  -2.510  -0.000   0.000
   29   10    9   26        3       0.628   1.883   0.000  -2.510  -0.000   0.000
   31   11   10   29        3       0.628   1.883   0.000  -2.510  -0.000   0.000
   40   16   15   38        3       0.628   1.883   0.000  -2.510  -0.000   0.000
   33   12   11   30        3       0.628   1.883   0.000  -2.510  -0.000   0.000
   32   12   11   31        3       0.628   1.883   0.000  -2.510  -0.000   0.000
   22    2    1   21        3       0.628   1.883   0.000  -2.510  -0.000   0.000
   32   12   11   30        3       0.628   1.883   0.000  -2.510  -0.000   0.000
   23    3    2   22        3       0.628   1.883   0.000  -2.510  -0.000   0.000
   28   10    9   26        3       0.628   1.883   0.000  -2.510  -0.000   0.000
   24    3    2   22        3       0.628   1.883   0.000  -2.510  -0.000   0.000
   39   16   15   37        3       0.628   1.883   0.000  -2.510  -0.000   0.000
   33   12   11   31        3       0.628   1.883   0.000  -2.510  -0.000   0.000
   31   11   12   13        3      -4.096   5.088   2.966  -3.958  -0.000   0.000
   30   11   12   13        3      -4.096   5.088   2.966  -3.958  -0.000   0.000
   40   16   15   13        3      -4.096   5.088   2.966  -3.958  -0.000   0.000
   39   16   15   13        3      -4.096   5.088   2.966  -3.958  -0.000   0.000
   21    1    2    4        3       0.979   2.937   0.000  -3.916  -0.000   0.000
   23    3    2    4        3       0.979   2.937   0.000  -3.916  -0.000   0.000
   24    3    2    4        3       0.979   2.937   0.000  -3.916  -0.000   0.000
   20    1    2    4        3       0.979   2.937   0.000  -3.916  -0.000   0.000
   25    3    2    4        3       0.979   2.937   0.000  -3.916  -0.000   0.000
   19    1    2    4        3       0.979   2.937   0.000  -3.916  -0.000   0.000
   35   14   13   15        3       1.172   3.515   0.000  -4.686  -0.000   0.000
   34   14   13   15        3       1.172   3.515   0.000  -4.686  -0.000   0.000
   36   14   13   12        3       1.172   3.515   0.000  -4.686  -0.000   0.000
   35   14   13   12        3       1.172   3.515   0.000  -4.686  -0.000   0.000
   38   15   13   14        3       1.172   3.515   0.000  -4.686  -0.000   0.000
   36   14   13   15        3       1.172   3.515   0.000  -4.686  -0.000   0.000
   38   15   13   12        3       1.172   3.515   0.000  -4.686  -0.000   0.000
   37   15   13   12        3       1.172   3.515   0.000  -4.686  -0.000   0.000
   33   12   13   14        3       1.172   3.515   0.000  -4.686  -0.000   0.000
   32   12   13   15        3       1.172   3.515   0.000  -4.686  -0.000   0.000
   34   14   13   12        3       1.172   3.515   0.000  -4.686  -0.000   0.000
   33   12   13   15        3       1.172   3.515   0.000  -4.686  -0.000   0.000
   32   12   13   14        3       1.172   3.515   0.000  -4.686  -0.000   0.000
   37   15   13   14        3       1.172   3.515   0.000  -4.686  -0.000   0.000
   22    2    4    5        3       0.414   1.243   0.000  -1.657  -0.000   0.000
   13   12   11   10        3       3.335  -1.552   2.820  -4.602  -0.000   0.000
    8    7    5    6        3      16.736  -3.347  -13.389  -0.000  -0.000   0.000
    8    7    5    4        3      16.736  -3.347  -13.389  -0.000  -0.000   0.000
   18   17   16   15        3       0.000   0.000   0.000  -0.000  -0.000   0.000
    6    5    4    2        3      21.439   0.000  -21.439  -0.000  -0.000   0.000

[ pairs ]
     1     5    1
     3     5    1
     2     6    1
     2     7    1
     4     8    1
     4     9    1
     6     8    1
     6     9    1
     5    10    1
     8    10    1
     7    11    1
     9    12    1
     3    19    1
    10    13    1
     4    19    1
     3    20    1
     4    20    1
     3    21    1
     1    23    1
    11    14    1
     4    21    1
     1    24    1
    11    15    1
     1    25    1
     5    22    1
     4    23    1
    12    16    1
     4    24    1
     4    25    1
    14    16    1
    13    17    1
     5    26    1
     5    27    1
    15    18    1
     8    26    1
     8    27    1
     7    28    1
     7    29    1
    11    26    1
    11    27    1
     9    30    1
    12    28    1
     9    31    1
    19    22    1
    12    29    1
    20    22    1
    10    32    1
    21    22    1
    13    30    1
    10    33    1
    13    31    1
    22    23    1
    22    24    1
    14    32    1
    12    34    1
    22    25    1
    15    32    1
    14    33    1
    12    35    1
    15    33    1
    12    36    1
    15    34    1
    12    37    1
    15    35    1
    12    38    1
    15    36    1
    14    37    1
    14    38    1
    13    39    1
    13    40    1
    26    28    1
    17    37    1
    27    28    1
    26    29    1
    17    38    1
    27    29    1
    15    41    1
    18    39    1
    28    30    1
    18    40    1
    29    30    1
    28    31    1
    29    31    1
    30    32    1
    31    32    1
    30    33    1
    31    33    1
    37    39    1
    38    39    1
    37    40    1
    38    40    1
    39    41    1
    40    41    1

