LIGPARGEN GENERATED GRO FILE
   41
    1UNK    C00    1   0.100   0.100   0.000
    1UNK    C01    2  -0.052   0.100   0.000
    1UNK    C02    3  -0.106   0.100   0.143
    1UNK    O03    4  -0.101   0.219  -0.064
    1UNK    C04    5  -0.102   0.217  -0.199
    1UNK    O05    6  -0.066   0.125  -0.271
    1UNK    C06    7  -0.155   0.349  -0.256
    1UNK    O07    8  -0.186   0.442  -0.182
    1UNK    C08    9  -0.159   0.355  -0.407
    1UNK    C09   10  -0.267   0.451  -0.458
    1UNK    C0A   11  -0.272   0.458  -0.611
    1UNK    C0B   12  -0.301   0.324  -0.682
    1UNK    N0C   13  -0.422   0.256  -0.634
    1UNK    C0D   14  -0.542   0.334  -0.669
    1UNK    C0E   15  -0.436   0.120  -0.693
    1UNK    C0F   16  -0.330   0.021  -0.645
    1UNK    C0G   17  -0.351  -0.116  -0.702
    1UNK    O0H   18  -0.443  -0.147  -0.779
    1UNK    H0I   19   0.140   0.012   0.052
    1UNK    H0J   20   0.139   0.190   0.049
    1UNK    H0K   21   0.139   0.100  -0.102
    1UNK    H0M   22  -0.091   0.011  -0.051
    1UNK    H0N   23  -0.075   0.190   0.196
    1UNK    H0O   24  -0.072   0.012   0.198
    1UNK    H0P   25  -0.216   0.100   0.142
    1UNK    H0Q   26  -0.180   0.255  -0.445
    1UNK    H0R   27  -0.060   0.386  -0.442
    1UNK    H0S   28  -0.248   0.552  -0.419
    1UNK    H0T   29  -0.365   0.421  -0.418
    1UNK    H0U   30  -0.175   0.496  -0.648
    1UNK    H0V   31  -0.346   0.533  -0.641
    1UNK    H0W   32  -0.213   0.261  -0.665
    1UNK    H0X   33  -0.306   0.341  -0.790
    1UNK    H0Y   34  -0.542   0.431  -0.619
    1UNK    H0Z   35  -0.633   0.283  -0.635
    1UNK    H10   36  -0.550   0.350  -0.777
    1UNK    H11   37  -0.436   0.126  -0.803
    1UNK    H12   38  -0.534   0.079  -0.664
    1UNK    H13   39  -0.331   0.013  -0.536
    1UNK    H14   40  -0.229   0.052  -0.676
    1UNK    H15   41  -0.277  -0.192  -0.671
   1.00000   1.00000   1.00000

