
;
; GENERATED BY LigParGen Server
; Jorgensen Lab @ Yale University 
;
[ atomtypes ]
  opls_818  H818     1.0080     0.000    A    2.50000E-01   1.25520E-01
  opls_802  C802    12.0110     0.000    A    3.30000E-01   2.76144E-01
  opls_824  H824     1.0080     0.000    A    2.50000E-01   1.25520E-01
  opls_805  O805    15.9990     0.000    A    2.96000E-01   8.78640E-01
  opls_828  H828     1.0080     0.000    A    2.50000E-01   1.25520E-01
  opls_814  C814    12.0110     0.000    A    3.55000E-01   2.92880E-01
  opls_811  C811    12.0110     0.000    A    3.50000E-01   2.76144E-01
  opls_827  H827     1.0080     0.000    A    2.50000E-01   1.25520E-01
  opls_809  C809    12.0110     0.000    A    3.50000E-01   2.76144E-01
  opls_822  H822     1.0080     0.000    A    2.50000E-01   1.25520E-01
  opls_807  C807    12.0110     0.000    A    3.50000E-01   2.76144E-01
  opls_825  H825     1.0080     0.000    A    2.50000E-01   1.25520E-01
  opls_830  H830     1.0080     0.000    A    2.50000E-01   1.25520E-01
  opls_810  C810    12.0110     0.000    A    3.50000E-01   2.76144E-01
  opls_820  H820     1.0080     0.000    A    2.50000E-01   1.25520E-01
  opls_812  C812    12.0110     0.000    A    3.55000E-01   2.92880E-01
  opls_821  H821     1.0080     0.000    A    2.50000E-01   1.25520E-01
  opls_831  H831     1.0080     0.000    A    2.50000E-01   1.25520E-01
  opls_804  C804    12.0110     0.000    A    3.55000E-01   2.92880E-01
  opls_832  H832     1.0080     0.000    A    2.50000E-01   1.25520E-01
  opls_800  C800    12.0110     0.000    A    3.50000E-01   2.76144E-01
  opls_806  C806    12.0110     0.000    A    3.50000E-01   2.76144E-01
  opls_823  H823     1.0080     0.000    A    2.50000E-01   1.25520E-01
  opls_826  H826     1.0080     0.000    A    2.50000E-01   1.25520E-01
  opls_813  O813    15.9990     0.000    A    2.96000E-01   8.78640E-01
  opls_819  H819     1.0080     0.000    A    2.50000E-01   1.25520E-01
  opls_816  C816    12.0110     0.000    A    3.50000E-01   2.76144E-01
  opls_833  H833     1.0080     0.000    A    2.50000E-01   1.25520E-01
  opls_801  C801    12.0110     0.000    A    3.50000E-01   2.76144E-01
  opls_808  C808    12.0110     0.000    A    3.50000E-01   2.76144E-01
  opls_815  O815    15.9990     0.000    A    2.96000E-01   8.78640E-01
  opls_817  H817     1.0080     0.000    A    2.50000E-01   1.25520E-01
  opls_829  H829     1.0080     0.000    A    2.50000E-01   1.25520E-01
  opls_803  N803    14.0070     0.000    A    3.20000E-01   7.11280E-01
[ moleculetype ]
; Name               nrexcl
UNK                   3
[ atoms ]
;   nr       type  resnr residue  atom   cgnr     charge       mass  
     1   opls_800      1    UNK   C00      1    -0.2371    12.0110 
     2   opls_801      1    UNK   C01      1    -0.0205    12.0110 
     3   opls_802      1    UNK   C02      1     0.1317    12.0110 
     4   opls_803      1    UNK   N03      1    -0.3669    14.0070 
     5   opls_804      1    UNK   C04      1     0.3694    12.0110 
     6   opls_805      1    UNK   O05      1    -0.4186    15.9990 
     7   opls_806      1    UNK   C06      1    -0.2369    12.0110 
     8   opls_807      1    UNK   C07      1    -0.0928    12.0110 
     9   opls_808      1    UNK   C08      1    -0.1815    12.0110 
    10   opls_809      1    UNK   C09      1    -0.1784    12.0110 
    11   opls_810      1    UNK   C0A      1    -0.1606    12.0110 
    12   opls_811      1    UNK   C0B      1    -0.2469    12.0110 
    13   opls_812      1    UNK   C0C      1     0.3291    12.0110 
    14   opls_813      1    UNK   O0D      1    -0.4322    15.9990 
    15   opls_814      1    UNK   C0E      1     0.3865    12.0110 
    16   opls_815      1    UNK   O0F      1    -0.4488    15.9990 
    17   opls_816      1    UNK   C0G      1    -0.2232    12.0110 
    18   opls_817      1    UNK   H0H      1     0.1094     1.0080 
    19   opls_818      1    UNK   H0I      1     0.1094     1.0080 
    20   opls_819      1    UNK   H0J      1     0.1094     1.0080 
    21   opls_820      1    UNK   H0K      1     0.1607     1.0080 
    22   opls_821      1    UNK   H0M      1     0.1319     1.0080 
    23   opls_822      1    UNK   H0N      1     0.1319     1.0080 
    24   opls_823      1    UNK   H0O      1     0.1124     1.0080 
    25   opls_824      1    UNK   H0P      1     0.0974     1.0080 
    26   opls_825      1    UNK   H0Q      1     0.0974     1.0080 
    27   opls_826      1    UNK   H0R      1     0.1061     1.0080 
    28   opls_827      1    UNK   H0S      1     0.1061     1.0080 
    29   opls_828      1    UNK   H0T      1     0.1089     1.0080 
    30   opls_829      1    UNK   H0U      1     0.1089     1.0080 
    31   opls_830      1    UNK   H0V      1     0.1555     1.0080 
    32   opls_831      1    UNK   H0W      1     0.1321     1.0080 
    33   opls_832      1    UNK   H0X      2     0.1252     1.0080 
    34   opls_833      1    UNK   H0Y      2     0.1252     1.0080 
[ bonds ]
    2     1     1      0.1529 224262.400
    3     2     1      0.1470 326352.000
    4     3     1      0.1157 543920.000
    5     2     1      0.1522 265265.600
    6     5     1      0.1229 476976.000
    7     5     1      0.1522 265265.600
    8     7     1      0.1529 224262.400
    9     8     1      0.1529 224262.400
   10     9     1      0.1529 224262.400
   11    10     1      0.1529 224262.400
   12    11     1      0.1529 224262.400
   13    12     1      0.1522 265265.600
   14    13     1      0.1229 476976.000
   15    12     1      0.1522 265265.600
   16    15     1      0.1229 476976.000
   17     8     1      0.1529 224262.400
   18     1     1      0.1090 284512.000
   19     1     1      0.1090 284512.000
   20     1     1      0.1090 284512.000
   21     2     1      0.1090 284512.000
   22     7     1      0.1090 284512.000
   23     7     1      0.1090 284512.000
   24     8     1      0.1090 284512.000
   25     9     1      0.1090 284512.000
   26     9     1      0.1090 284512.000
   27    10     1      0.1090 284512.000
   28    10     1      0.1090 284512.000
   29    11     1      0.1090 284512.000
   30    11     1      0.1090 284512.000
   31    12     1      0.1090 284512.000
   32    13     1      0.1090 284512.000
   33    17     1      0.1090 284512.000
   34    17     1      0.1090 284512.000
   17    15     1      0.1522 265265.600

[ angles ]
;  ai    aj    ak funct            c0            c1            c2            c3 
    1     2     3     1    112.700    488.273
    2     3     4     1    180.000   1255.200
    1     2     5     1    111.100    527.184
    2     5     6     1    120.400    669.440
    2     5     7     1    116.000    585.760
    5     7     8     1    111.100    527.184
    7     8     9     1    112.700    488.273
    8     9    10     1    112.700    488.273
    9    10    11     1    112.700    488.273
   10    11    12     1    112.700    488.273
   11    12    13     1    111.100    527.184
   12    13    14     1    120.400    669.440
   11    12    15     1    111.100    527.184
   12    15    16     1    120.400    669.440
    7     8    17     1    112.700    488.273
    2     1    18     1    110.700    313.800
    2     1    19     1    110.700    313.800
    2     1    20     1    110.700    313.800
    1     2    21     1    110.700    313.800
    5     7    22     1    109.500    292.880
    5     7    23     1    109.500    292.880
    7     8    24     1    110.700    313.800
    8     9    25     1    110.700    313.800
    8     9    26     1    110.700    313.800
    9    10    27     1    110.700    313.800
    9    10    28     1    110.700    313.800
   10    11    29     1    110.700    313.800
   10    11    30     1    110.700    313.800
   11    12    31     1    110.700    313.800
   12    13    32     1    115.000    292.880
    8    17    33     1    110.700    313.800
    8    17    34     1    110.700    313.800
    5     2    21     1    109.500    292.880
   27    10    28     1    107.800    276.144
   11    10    27     1    110.700    313.800
    3     2    21     1    108.500    292.880
   25     9    26     1    107.800    276.144
   14    13    32     1    123.000    292.880
    8    17    15     1    111.100    527.184
   13    12    15     1    111.100    527.184
   22     7    23     1    107.800    276.144
   10     9    26     1    110.700    313.800
   13    12    31     1    109.500    292.880
    9     8    17     1    112.700    488.273
   12    11    30     1    110.700    313.800
    8     7    23     1    110.700    313.800
    6     5     7     1    120.400    669.440
    3     2     5     1    110.580    432.207
   15    12    31     1    109.500    292.880
   16    15    17     1    120.400    669.440
   10     9    25     1    110.700    313.800
    8     7    22     1    110.700    313.800
   11    10    28     1    110.700    313.800
   18     1    20     1    107.800    276.144
   18     1    19     1    107.800    276.144
   12    15    17     1    116.000    585.760
   17     8    24     1    110.700    313.800
   19     1    20     1    107.800    276.144
   33    17    34     1    107.800    276.144
   29    11    30     1    107.800    276.144
   15    17    34     1    109.500    292.880
   12    11    29     1    110.700    313.800
    9     8    24     1    110.700    313.800
   15    17    33     1    109.500    292.880

[ dihedrals ]
; IMPROPER DIHEDRAL ANGLES 
;  ai    aj    ak    al funct            c0            c1            c2            c3            c4            c5
     7     5     2     6    4        180.000     43.932     2  
    32    13    12    14    4        180.000     43.932     2  
    16    15    17    12    4        180.000     43.932     2  

[ dihedrals ]
; PROPER DIHEDRAL ANGLES
;  ai    aj    ak    al funct            c0            c1            c2            c3            c4            c5
   15   12   13   14        3       0.000   0.000   0.000  -0.000  -0.000   0.000
   15   12   11   10        3      -4.960   6.286   1.310  -2.636  -0.000   0.000
   15   17    8    9        3      -4.960   6.286   1.310  -2.636  -0.000   0.000
   15   17    8    7        3      -4.960   6.286   1.310  -2.636  -0.000   0.000
   13   12   11   10        3      -4.960   6.286   1.310  -2.636  -0.000   0.000
    5    2    3    4        3       0.000   0.000   0.000  -0.000  -0.000   0.000
   17   15   12   13        3       0.818  -7.906   0.602   6.485  -0.000   0.000
   17   15   12   11        3       0.818  -7.906   0.602   6.485  -0.000   0.000
   12   15   17    8        3       0.818  -7.906   0.602   6.485  -0.000   0.000
    7    5    2    1        3       0.818  -7.906   0.602   6.485  -0.000   0.000
    7    5    2    3        3       0.818  -7.906   0.602   6.485  -0.000   0.000
    8    7    5    2        3       0.818  -7.906   0.602   6.485  -0.000   0.000
    8    7    5    6        3       0.000   0.000   0.000  -0.000  -0.000   0.000
   17    8    7    5        3      -4.960   6.286   1.310  -2.636  -0.000   0.000
    9    8    7    5        3      -4.960   6.286   1.310  -2.636  -0.000   0.000
   12   11   10    9        3       2.301  -1.464   0.837  -1.674  -0.000   0.000
   11   10    9    8        3       2.301  -1.464   0.837  -1.674  -0.000   0.000
   17    8    9   10        3       2.301  -1.464   0.837  -1.674  -0.000   0.000
   10    9    8    7        3       2.301  -1.464   0.837  -1.674  -0.000   0.000
   32   13   12   15        3       0.000   0.000   0.000  -0.000  -0.000   0.000
   32   13   12   11        3       0.000   0.000   0.000  -0.000  -0.000   0.000
   32   13   12   31        3       0.753   2.259   0.000  -3.012  -0.000   0.000
   31   12   15   17        3       0.575   1.726   0.000  -2.301  -0.000   0.000
   34   17   15   12        3       0.575   1.726   0.000  -2.301  -0.000   0.000
   22    7    5    2        3       0.575   1.726   0.000  -2.301  -0.000   0.000
   33   17   15   12        3       0.575   1.726   0.000  -2.301  -0.000   0.000
   21    2    5    7        3       0.575   1.726   0.000  -2.301  -0.000   0.000
   23    7    5    2        3       0.575   1.726   0.000  -2.301  -0.000   0.000
   33   17   15   16        3       0.000   0.000   0.000  -0.000  -0.000   0.000
   31   12   15   16        3       0.000   0.000   0.000  -0.000  -0.000   0.000
   22    7    5    6        3       0.000   0.000   0.000  -0.000  -0.000   0.000
   34   17   15   16        3       0.000   0.000   0.000  -0.000  -0.000   0.000
   31   12   13   14        3       0.000   0.000   0.000  -0.000  -0.000   0.000
   21    2    5    6        3       0.000   0.000   0.000  -0.000  -0.000   0.000
   23    7    5    6        3       0.000   0.000   0.000  -0.000  -0.000   0.000
   30   11   12   15        3      -0.209  -0.628   0.000   0.837  -0.000   0.000
   29   11   12   13        3      -0.209  -0.628   0.000   0.837  -0.000   0.000
   20    1    2    5        3      -0.209  -0.628   0.000   0.837  -0.000   0.000
   29   11   12   15        3      -0.209  -0.628   0.000   0.837  -0.000   0.000
   30   11   12   13        3      -0.209  -0.628   0.000   0.837  -0.000   0.000
   19    1    2    5        3      -0.209  -0.628   0.000   0.837  -0.000   0.000
   18    1    2    5        3      -0.209  -0.628   0.000   0.837  -0.000   0.000
   24    8    7    5        3      -0.209  -0.628   0.000   0.837  -0.000   0.000
   24    8   17   15        3      -0.209  -0.628   0.000   0.837  -0.000   0.000
   27   10    9    8        3       0.628   1.883   0.000  -2.510  -0.000   0.000
   33   17    8    7        3       0.628   1.883   0.000  -2.510  -0.000   0.000
   26    9    8   17        3       0.628   1.883   0.000  -2.510  -0.000   0.000
   25    9    8    7        3       0.628   1.883   0.000  -2.510  -0.000   0.000
   33   17    8    9        3       0.628   1.883   0.000  -2.510  -0.000   0.000
   34   17    8    9        3       0.628   1.883   0.000  -2.510  -0.000   0.000
   34   17    8    7        3       0.628   1.883   0.000  -2.510  -0.000   0.000
   28   10   11   12        3       0.628   1.883   0.000  -2.510  -0.000   0.000
   24    8    9   10        3       0.628   1.883   0.000  -2.510  -0.000   0.000
   29   11   10    9        3       0.628   1.883   0.000  -2.510  -0.000   0.000
   23    7    8    9        3       0.628   1.883   0.000  -2.510  -0.000   0.000
   22    7    8    9        3       0.628   1.883   0.000  -2.510  -0.000   0.000
   23    7    8   17        3       0.628   1.883   0.000  -2.510  -0.000   0.000
   27   10   11   12        3       0.628   1.883   0.000  -2.510  -0.000   0.000
   26    9   10   11        3       0.628   1.883   0.000  -2.510  -0.000   0.000
   30   11   10    9        3       0.628   1.883   0.000  -2.510  -0.000   0.000
   31   12   11   10        3       0.628   1.883   0.000  -2.510  -0.000   0.000
   26    9    8    7        3       0.628   1.883   0.000  -2.510  -0.000   0.000
   25    9   10   11        3       0.628   1.883   0.000  -2.510  -0.000   0.000
   28   10    9    8        3       0.628   1.883   0.000  -2.510  -0.000   0.000
   25    9    8   17        3       0.628   1.883   0.000  -2.510  -0.000   0.000
   22    7    8   17        3       0.628   1.883   0.000  -2.510  -0.000   0.000
   18    1    2    3        3       0.766   2.297   0.000  -3.063  -0.000   0.000
   20    1    2    3        3       0.766   2.297   0.000  -3.063  -0.000   0.000
   19    1    2    3        3       0.766   2.297   0.000  -3.063  -0.000   0.000
   29   11   10   28        3       0.628   1.883   0.000  -2.510  -0.000   0.000
   25    9    8   24        3       0.628   1.883   0.000  -2.510  -0.000   0.000
   34   17    8   24        3       0.628   1.883   0.000  -2.510  -0.000   0.000
   27   10    9   26        3       0.628   1.883   0.000  -2.510  -0.000   0.000
   27   10    9   25        3       0.628   1.883   0.000  -2.510  -0.000   0.000
   31   12   11   30        3       0.628   1.883   0.000  -2.510  -0.000   0.000
   26    9    8   24        3       0.628   1.883   0.000  -2.510  -0.000   0.000
   24    8    7   22        3       0.628   1.883   0.000  -2.510  -0.000   0.000
   30   11   10   27        3       0.628   1.883   0.000  -2.510  -0.000   0.000
   28   10    9   26        3       0.628   1.883   0.000  -2.510  -0.000   0.000
   28   10    9   25        3       0.628   1.883   0.000  -2.510  -0.000   0.000
   33   17    8   24        3       0.628   1.883   0.000  -2.510  -0.000   0.000
   21    2    1   18        3       0.628   1.883   0.000  -2.510  -0.000   0.000
   30   11   10   28        3       0.628   1.883   0.000  -2.510  -0.000   0.000
   31   12   11   29        3       0.628   1.883   0.000  -2.510  -0.000   0.000
   29   11   10   27        3       0.628   1.883   0.000  -2.510  -0.000   0.000
   21    2    1   20        3       0.628   1.883   0.000  -2.510  -0.000   0.000
   24    8    7   23        3       0.628   1.883   0.000  -2.510  -0.000   0.000
   21    2    1   19        3       0.628   1.883   0.000  -2.510  -0.000   0.000
   21    2    3    4        3       0.000   0.000   0.000  -0.000  -0.000   0.000
    4    3    2    1        3       0.000   0.000   0.000  -0.000  -0.000   0.000
   16   15   12   13        3       0.000   0.000   0.000  -0.000  -0.000   0.000
   16   15   17    8        3       0.000   0.000   0.000  -0.000  -0.000   0.000
   16   15   12   11        3       0.000   0.000   0.000  -0.000  -0.000   0.000
   14   13   12   11        3       0.000   0.000   0.000  -0.000  -0.000   0.000
    6    5    2    1        3       0.000   0.000   0.000  -0.000  -0.000   0.000
    6    5    2    3        3       0.000   0.000   0.000  -0.000  -0.000   0.000

[ pairs ]
     1     4    1
     1     6    1
     1     7    1
     4     5    1
     3     6    1
     3     7    1
     2     8    1
     6     8    1
     5     9    1
     7    10    1
     8    11    1
     8    12    1
     9    12    1
     3    18    1
     7    15    1
     5    17    1
     3    19    1
    10    13    1
     5    18    1
     3    20    1
     9    15    1
     8    16    1
     5    19    1
     2    22    1
    11    14    1
    10    15    1
     5    20    1
     4    21    1
     2    23    1
    11    16    1
    10    17    1
     6    21    1
    11    17    1
     7    21    1
     6    22    1
    14    15    1
    13    16    1
     6    23    1
     5    24    1
    13    17    1
     9    22    1
     9    23    1
     7    25    1
     7    26    1
    10    24    1
     8    27    1
    11    25    1
     8    28    1
    11    26    1
     9    29    1
    18    21    1
    17    22    1
    15    24    1
    12    27    1
     9    30    1
    19    21    1
    17    23    1
    12    28    1
     7    33    1
    20    21    1
    10    31    1
     7    34    1
    17    25    1
    13    29    1
     9    33    1
    17    26    1
    13    30    1
    11    32    1
     9    34    1
    15    29    1
    15    30    1
    14    31    1
    12    33    1
    22    24    1
    12    34    1
    23    24    1
    16    31    1
    15    32    1
    17    31    1
    24    25    1
    16    33    1
    24    26    1
    16    34    1
    25    27    1
    26    27    1
    25    28    1
    26    28    1
    27    29    1
    28    29    1
    27    30    1
    24    33    1
    28    30    1
    24    34    1
    29    31    1
    30    31    1
    31    32    1

