LIGPARGEN GENERATED GRO FILE
   34
    1UNK    C00    1   0.100   0.100   0.000
    1UNK    C01    2  -0.053   0.100   0.000
    1UNK    C02    3  -0.104   0.100   0.143
    1UNK    N03    4  -0.147   0.100   0.262
    1UNK    C04    5  -0.108   0.224  -0.067
    1UNK    O05    6  -0.043   0.329  -0.076
    1UNK    C06    7  -0.248   0.217  -0.125
    1UNK    C07    8  -0.260   0.118  -0.242
    1UNK    C08    9  -0.406   0.119  -0.292
    1UNK    C09   10  -0.435   0.025  -0.410
    1UNK    C0A   11  -0.374   0.073  -0.542
    1UNK    C0B   12  -0.231   0.024  -0.568
    1UNK    C0C   13  -0.228  -0.113  -0.633
    1UNK    O0D   14  -0.328  -0.175  -0.669
    1UNK    C0E   15  -0.145   0.027  -0.443
    1UNK    O0F   16  -0.067  -0.064  -0.415
    1UNK    C0G   17  -0.158   0.150  -0.352
    1UNK    H0H   18   0.139   0.010   0.049
    1UNK    H0I   19   0.141   0.187   0.054
    1UNK    H0J   20   0.139   0.103  -0.102
    1UNK    H0K   21  -0.087   0.010  -0.052
    1UNK    H0M   22  -0.275   0.318  -0.159
    1UNK    H0N   23  -0.317   0.191  -0.044
    1UNK    H0O   24  -0.240   0.017  -0.204
    1UNK    H0P   25  -0.435   0.222  -0.320
    1UNK    H0Q   26  -0.471   0.090  -0.209
    1UNK    H0R   27  -0.544   0.023  -0.422
    1UNK    H0S   28  -0.405  -0.077  -0.386
    1UNK    H0T   29  -0.376   0.183  -0.545
    1UNK    H0U   30  -0.439   0.041  -0.624
    1UNK    H0V   31  -0.184   0.091  -0.640
    1UNK    H0W   32  -0.127  -0.154  -0.653
    1UNK    H0X   33  -0.185   0.240  -0.409
    1UNK    H0Y   34  -0.059   0.169  -0.311
   1.00000   1.00000   1.00000

