LIGPARGEN GENERATED GRO FILE
   36
    1UNK    C00    1   0.100   0.100   0.000
    1UNK    O01    2  -0.042   0.100   0.000
    1UNK    C02    3  -0.099   0.100   0.123
    1UNK    O03    4  -0.041   0.100   0.230
    1UNK    O04    5  -0.234   0.100   0.106
    1UNK    C05    6  -0.311   0.100   0.227
    1UNK    C06    7  -0.308   0.240   0.289
    1UNK    O07    8  -0.261   0.340   0.236
    1UNK    C08    9  -0.457   0.054   0.191
    1UNK    C09   10  -0.543   0.046   0.318
    1UNK    C0A   11  -0.516   0.154   0.091
    1UNK    O0B   12  -0.441  -0.078   0.132
    1UNK    C0C   13  -0.553  -0.160   0.098
    1UNK    C0D   14  -0.638  -0.102  -0.015
    1UNK    C0E   15  -0.505  -0.300   0.052
    1UNK    O0F   16  -0.389  -0.338   0.044
    1UNK    O0G   17  -0.614  -0.378   0.020
    1UNK    C0H   18  -0.584  -0.504  -0.039
    1UNK    H0I   19   0.133   0.071  -0.100
    1UNK    H0J   20   0.141   0.028   0.071
    1UNK    H0K   21   0.137   0.201   0.021
    1UNK    H0M   22  -0.267   0.029   0.299
    1UNK    H0N   23  -0.353   0.248   0.390
    1UNK    H0O   24  -0.556   0.144   0.365
    1UNK    H0P   25  -0.498  -0.023   0.391
    1UNK    H0Q   26  -0.643   0.008   0.296
    1UNK    H0R   27  -0.497   0.258   0.119
    1UNK    H0S   28  -0.624   0.146   0.084
    1UNK    H0T   29  -0.474   0.139  -0.010
    1UNK    H0U   30  -0.612  -0.179   0.188
    1UNK    H0V   31  -0.576  -0.055  -0.091
    1UNK    H0W   32  -0.708  -0.028   0.025
    1UNK    H0X   33  -0.700  -0.176  -0.065
    1UNK    H0Y   34  -0.677  -0.546  -0.078
    1UNK    H0Z   35  -0.543  -0.573   0.036
    1UNK    H10   36  -0.515  -0.493  -0.124
   1.00000   1.00000   1.00000

