LIGPARGEN GENERATED GRO FILE
   35
    1UNK    C00    1   0.100   0.100   0.000
    1UNK    C01    2  -0.052   0.100   0.000
    1UNK    S02    3  -0.119   0.100   0.165
    1UNK    O03    4  -0.070  -0.023   0.226
    1UNK    O04    5  -0.087   0.227   0.227
    1UNK    C05    6  -0.302   0.085   0.155
    1UNK    C06    7  -0.354   0.078   0.302
    1UNK    C07    8  -0.301  -0.038   0.382
    1UNK    O08    9  -0.358  -0.147   0.385
    1UNK    C09   10  -0.379   0.195   0.069
    1UNK    C0A   11  -0.531   0.165   0.073
    1UNK    C0B   12  -0.362   0.337   0.129
    1UNK    C0C   13  -0.331   0.201  -0.077
    1UNK    C0D   14  -0.331   0.079  -0.167
    1UNK    C0E   15  -0.422   0.194  -0.198
    1UNK    H0F   16   0.137   0.100  -0.103
    1UNK    H0G   17   0.140   0.012   0.051
    1UNK    H0H   18   0.139   0.190   0.050
    1UNK    H0I   19  -0.090   0.012  -0.052
    1UNK    H0J   20  -0.083   0.191  -0.050
    1UNK    H0K   21  -0.318  -0.014   0.109
    1UNK    H0M   22  -0.462   0.067   0.304
    1UNK    H0N   23  -0.330   0.170   0.357
    1UNK    H0O   24  -0.208  -0.020   0.438
    1UNK    H0P   25  -0.574   0.176   0.173
    1UNK    H0Q   26  -0.553   0.064   0.037
    1UNK    H0R   27  -0.587   0.236   0.011
    1UNK    H0S   28  -0.402   0.344   0.231
    1UNK    H0T   29  -0.416   0.410   0.068
    1UNK    H0U   30  -0.258   0.369   0.130
    1UNK    H0V   31  -0.254   0.276  -0.089
    1UNK    H0W   32  -0.378  -0.013  -0.135
    1UNK    H0X   33  -0.247   0.065  -0.234
    1UNK    H0Y   34  -0.528   0.177  -0.190
    1UNK    H0Z   35  -0.396   0.259  -0.282
   1.00000   1.00000   1.00000

