
;
; GENERATED BY LigParGen Server
; Jorgensen Lab @ Yale University 
;
[ atomtypes ]
  opls_818  H818     1.0080     0.000    A    2.50000E-01   1.25520E-01
  opls_802  S802    32.0600     0.000    A    3.55000E-01   1.04600E+00
  opls_824  H824     1.0080     0.000    A    2.50000E-01   1.25520E-01
  opls_808  O808    15.9990     0.000    A    2.96000E-01   8.78640E-01
  opls_833  H833     1.0080     0.000    A    2.50000E-01   1.25520E-01
  opls_834  H834     1.0080     0.000    A    2.50000E-01   1.25520E-01
  opls_828  H828     1.0080     0.000    A    2.50000E-01   1.25520E-01
  opls_832  H832     1.0080     0.000    A    2.50000E-01   1.25520E-01
  opls_806  C806    12.0110     0.000    A    3.50000E-01   2.76144E-01
  opls_800  C800    12.0110     0.000    A    3.50000E-01   2.76144E-01
  opls_801  C801    12.0110     0.000    A    3.50000E-01   2.76144E-01
  opls_822  H822     1.0080     0.000    A    2.50000E-01   1.25520E-01
  opls_825  H825     1.0080     0.000    A    2.50000E-01   1.25520E-01
  opls_830  H830     1.0080     0.000    A    2.50000E-01   1.25520E-01
  opls_803  O803    15.9990     0.000    A    2.96000E-01   7.11280E-01
  opls_821  H821     1.0080     0.000    A    2.50000E-01   1.25520E-01
  opls_827  H827     1.0080     0.000    A    2.50000E-01   1.25520E-01
  opls_820  H820     1.0080     0.000    A    2.50000E-01   1.25520E-01
  opls_829  H829     1.0080     0.000    A    2.50000E-01   1.25520E-01
  opls_831  H831     1.0080     0.000    A    2.50000E-01   1.25520E-01
  opls_816  H816     1.0080     0.000    A    2.50000E-01   1.25520E-01
  opls_804  O804    15.9990     0.000    A    2.96000E-01   7.11280E-01
  opls_813  C813    12.0110     0.000    A    3.45000E-01   3.47272E-01
  opls_805  C805    12.0110     0.000    A    3.50000E-01   2.76144E-01
  opls_814  C814    12.0110     0.000    A    3.45000E-01   3.47272E-01
  opls_811  C811    12.0110     0.000    A    3.50000E-01   2.76144E-01
  opls_823  H823     1.0080     0.000    A    2.50000E-01   1.25520E-01
  opls_826  H826     1.0080     0.000    A    2.50000E-01   1.25520E-01
  opls_819  H819     1.0080     0.000    A    2.50000E-01   1.25520E-01
  opls_810  C810    12.0110     0.000    A    3.50000E-01   2.76144E-01
  opls_815  H815     1.0080     0.000    A    2.50000E-01   1.25520E-01
  opls_809  C809    12.0110     0.000    A    3.50000E-01   2.76144E-01
  opls_807  C807    12.0110     0.000    A    3.55000E-01   2.92880E-01
  opls_817  H817     1.0080     0.000    A    2.50000E-01   1.25520E-01
  opls_812  C812    12.0110     0.000    A    3.45000E-01   3.47272E-01
[ moleculetype ]
; Name               nrexcl
UNK                   3
[ atoms ]
;   nr       type  resnr residue  atom   cgnr     charge       mass  
     1   opls_800      1    UNK   C00      1    -0.2085    12.0110 
     2   opls_801      1    UNK   C01      1    -0.4879    12.0110 
     3   opls_802      1    UNK   S02      1     1.2626    32.0600 
     4   opls_803      1    UNK   O03      1    -0.5794    15.9990 
     5   opls_804      1    UNK   O04      1    -0.5794    15.9990 
     6   opls_805      1    UNK   C05      1    -0.3484    12.0110 
     7   opls_806      1    UNK   C06      1    -0.2526    12.0110 
     8   opls_807      1    UNK   C07      1     0.3083    12.0110 
     9   opls_808      1    UNK   O08      1    -0.4252    15.9990 
    10   opls_809      1    UNK   C09      1     0.0256    12.0110 
    11   opls_810      1    UNK   C0A      1    -0.2302    12.0110 
    12   opls_811      1    UNK   C0B      1    -0.2487    12.0110 
    13   opls_812      1    UNK   C0C      1    -0.2098    12.0110 
    14   opls_813      1    UNK   C0D      1    -0.2445    12.0110 
    15   opls_814      1    UNK   C0E      1    -0.2253    12.0110 
    16   opls_815      1    UNK   H0F      1      0.107     1.0080 
    17   opls_816      1    UNK   H0G      1      0.107     1.0080 
    18   opls_817      1    UNK   H0H      1      0.107     1.0080 
    19   opls_818      1    UNK   H0I      1     0.1604     1.0080 
    20   opls_819      1    UNK   H0J      1     0.1604     1.0080 
    21   opls_820      1    UNK   H0K      1     0.1607     1.0080 
    22   opls_821      1    UNK   H0M      1     0.1393     1.0080 
    23   opls_822      1    UNK   H0N      1     0.1393     1.0080 
    24   opls_823      1    UNK   H0O      1     0.1406     1.0080 
    25   opls_824      1    UNK   H0P      1     0.0898     1.0080 
    26   opls_825      1    UNK   H0Q      1     0.0898     1.0080 
    27   opls_826      1    UNK   H0R      1     0.0898     1.0080 
    28   opls_827      1    UNK   H0S      1     0.0989     1.0080 
    29   opls_828      1    UNK   H0T      1     0.0989     1.0080 
    30   opls_829      1    UNK   H0U      1     0.0989     1.0080 
    31   opls_830      1    UNK   H0V      1     0.1355     1.0080 
    32   opls_831      1    UNK   H0W      1     0.1301     1.0080 
    33   opls_832      1    UNK   H0X      2     0.1301     1.0080 
    34   opls_833      1    UNK   H0Y      2       0.13     1.0080 
    35   opls_834      1    UNK   H0Z      2       0.13     1.0080 
[ bonds ]
    2     1     1      0.1529 224262.400
    3     2     1      0.1770 284512.000
    4     3     1      0.1440 585760.000
    5     3     1      0.1440 585760.000
    6     3     1      0.1770 284512.000
    7     6     1      0.1529 224262.400
    8     7     1      0.1522 265265.600
    9     8     1      0.1229 476976.000
   10     6     1      0.1529 224262.400
   11    10     1      0.1529 224262.400
   12    10     1      0.1529 224262.400
   13    10     1      0.1510 234304.000
   14    13     1      0.1520 217568.000
   15    13     1      0.1520 217568.000
   16     1     1      0.1090 284512.000
   17     1     1      0.1090 284512.000
   18     1     1      0.1090 284512.000
   19     2     1      0.1090 284512.000
   20     2     1      0.1090 284512.000
   21     6     1      0.1090 284512.000
   22     7     1      0.1090 284512.000
   23     7     1      0.1090 284512.000
   24     8     1      0.1090 284512.000
   25    11     1      0.1090 284512.000
   26    11     1      0.1090 284512.000
   27    11     1      0.1090 284512.000
   28    12     1      0.1090 284512.000
   29    12     1      0.1090 284512.000
   30    12     1      0.1090 284512.000
   31    13     1      0.1088 284512.000
   32    14     1      0.1088 284512.000
   33    14     1      0.1088 284512.000
   34    15     1      0.1088 284512.000
   35    15     1      0.1088 284512.000
   15    14     1      0.1520 217568.000

[ angles ]
;  ai    aj    ak funct            c0            c1            c2            c3 
    1     2     3     1    108.600    418.400
    2     3     4     1    108.900    619.232
    2     3     5     1    108.900    619.232
    2     3     6     1    102.000    518.816
    3     6     7     1    108.600    418.400
    6     7     8     1    111.100    527.184
    7     8     9     1    120.400    669.440
    3     6    10     1    108.600    418.400
    6    10    11     1    112.700    488.273
    6    10    12     1    112.700    488.273
    6    10    13     1    112.700    488.273
   10    13    14     1    117.200    313.800
   10    13    15     1    117.200    313.800
    2     1    16     1    110.700    313.800
    2     1    17     1    110.700    313.800
    2     1    18     1    110.700    313.800
    1     2    19     1    110.700    313.800
    1     2    20     1    110.700    313.800
    3     6    21     1    109.500    292.880
    6     7    22     1    110.700    313.800
    6     7    23     1    110.700    313.800
    7     8    24     1    115.000    292.880
   10    11    25     1    110.700    313.800
   10    11    26     1    110.700    313.800
   10    11    27     1    110.700    313.800
   10    12    28     1    110.700    313.800
   10    12    29     1    110.700    313.800
   10    12    30     1    110.700    313.800
   10    13    31     1    114.300    292.880
   13    14    32     1    117.200    313.800
   13    14    33     1    117.200    313.800
   13    15    34     1    117.200    313.800
   13    15    35     1    117.200    313.800
   19     2    20     1    107.800    276.144
    8     7    22     1    109.500    292.880
    3     2    20     1    109.500    292.880
   14    15    35     1    117.200    313.800
   15    13    31     1    117.200    313.800
   28    12    29     1    107.800    276.144
   16     1    18     1    107.800    276.144
   13    14    15     1     83.000    251.040
   32    14    33     1    114.300    292.880
    9     8    24     1    123.000    292.880
   16     1    17     1    107.800    276.144
   22     7    23     1    107.800    276.144
   12    10    13     1    112.700    488.273
   28    12    30     1    107.800    276.144
   15    14    33     1    117.200    313.800
   13    15    14     1     83.000    251.040
   14    13    15     1     83.000    251.040
    4     3     5     1    119.000    870.272
   10     6    21     1    110.700    313.800
   14    15    34     1    117.200    313.800
    3     2    19     1    109.500    292.880
   34    15    35     1    114.300    292.880
   14    13    31     1    117.200    313.800
    8     7    23     1    109.500    292.880
    4     3     6     1    108.900    619.232
   15    14    32     1    117.200    313.800
    7     6    10     1    112.700    488.273
   17     1    18     1    107.800    276.144
   11    10    13     1    112.700    488.273
   26    11    27     1    107.800    276.144
   25    11    26     1    107.800    276.144
    5     3     6     1    108.900    619.232
   25    11    27     1    107.800    276.144
   11    10    12     1    112.700    488.273
    7     6    21     1    110.700    313.800
   29    12    30     1    107.800    276.144

[ dihedrals ]
; IMPROPER DIHEDRAL ANGLES 
;  ai    aj    ak    al funct            c0            c1            c2            c3            c4            c5
    24     8     7     9    4        180.000     43.932     2  

[ dihedrals ]
; PROPER DIHEDRAL ANGLES
;  ai    aj    ak    al funct            c0            c1            c2            c3            c4            c5
    8    7    6    3        3      -16.259   9.088   7.171  -0.000  -0.000   0.000
   10    6    7    8        3      -4.960   6.286   1.310  -2.636  -0.000   0.000
   12   10    6    7        3       2.301  -1.464   0.837  -1.674  -0.000   0.000
   11   10    6    7        3       2.301  -1.464   0.837  -1.674  -0.000   0.000
   11   10    6    3        3       2.784   0.278   0.828  -3.891  -0.000   0.000
   12   10    6    3        3       2.784   0.278   0.828  -3.891  -0.000   0.000
   10    6    3    2        3       0.000   0.000   0.000  -0.000  -0.000   0.000
    7    6    3    2        3       0.000   0.000   0.000  -0.000  -0.000   0.000
    7    6    3    4        3       0.000   0.000   0.000  -0.000  -0.000   0.000
    7    6    3    5        3       0.000   0.000   0.000  -0.000  -0.000   0.000
   10    6    3    5        3       0.000   0.000   0.000  -0.000  -0.000   0.000
   10    6    3    4        3       0.000   0.000   0.000  -0.000  -0.000   0.000
    6    3    2    1        3       0.000   0.000   0.000  -0.000  -0.000   0.000
   13   10    6    7        3       2.301  -1.464   0.837  -1.674  -0.000   0.000
   13   10    6    3        3       2.784   0.278   0.828  -3.891  -0.000   0.000
   15   13   10    6        3       0.000   0.000   0.000  -0.000  -0.000   0.000
   14   13   10    6        3       0.000   0.000   0.000  -0.000  -0.000   0.000
   14   13   10   12        3       0.000   0.000   0.000  -0.000  -0.000   0.000
   14   13   10   11        3       0.000   0.000   0.000  -0.000  -0.000   0.000
   15   13   10   11        3       0.000   0.000   0.000  -0.000  -0.000   0.000
   15   13   10   12        3       0.000   0.000   0.000  -0.000  -0.000   0.000
   15   13   10   14        3       0.000   0.000   0.000  -0.000  -0.000   0.000
   24    8    7    6        3       0.000   0.000   0.000  -0.000  -0.000   0.000
   24    8    7   22        3       0.753   2.259   0.000  -3.012  -0.000   0.000
   24    8    7   23        3       0.753   2.259   0.000  -3.012  -0.000   0.000
   23    7    8    9        3       0.000   0.000   0.000  -0.000  -0.000   0.000
   22    7    8    9        3       0.000   0.000   0.000  -0.000  -0.000   0.000
   21    6    7    8        3      -0.209  -0.628   0.000   0.837  -0.000   0.000
   21    6   10   11        3       0.628   1.883   0.000  -2.510  -0.000   0.000
   27   11   10    6        3       0.628   1.883   0.000  -2.510  -0.000   0.000
   30   12   10    6        3       0.628   1.883   0.000  -2.510  -0.000   0.000
   29   12   10   11        3       0.628   1.883   0.000  -2.510  -0.000   0.000
   22    7    6   10        3       0.628   1.883   0.000  -2.510  -0.000   0.000
   26   11   10    6        3       0.628   1.883   0.000  -2.510  -0.000   0.000
   27   11   10   12        3       0.628   1.883   0.000  -2.510  -0.000   0.000
   30   12   10   11        3       0.628   1.883   0.000  -2.510  -0.000   0.000
   25   11   10   12        3       0.628   1.883   0.000  -2.510  -0.000   0.000
   28   12   10   11        3       0.628   1.883   0.000  -2.510  -0.000   0.000
   29   12   10    6        3       0.628   1.883   0.000  -2.510  -0.000   0.000
   23    7    6   10        3       0.628   1.883   0.000  -2.510  -0.000   0.000
   25   11   10    6        3       0.628   1.883   0.000  -2.510  -0.000   0.000
   26   11   10   12        3       0.628   1.883   0.000  -2.510  -0.000   0.000
   21    6   10   12        3       0.628   1.883   0.000  -2.510  -0.000   0.000
   28   12   10    6        3       0.628   1.883   0.000  -2.510  -0.000   0.000
   26   11   10   13        3       0.628   1.883   0.000  -2.510  -0.000   0.000
   25   11   10   13        3       0.628   1.883   0.000  -2.510  -0.000   0.000
   30   12   10   13        3       0.628   1.883   0.000  -2.510  -0.000   0.000
   29   12   10   13        3       0.628   1.883   0.000  -2.510  -0.000   0.000
   28   12   10   13        3       0.628   1.883   0.000  -2.510  -0.000   0.000
   27   11   10   13        3       0.628   1.883   0.000  -2.510  -0.000   0.000
   21    6   10   13        3       0.628   1.883   0.000  -2.510  -0.000   0.000
   19    2    1   18        3       0.628   1.883   0.000  -2.510  -0.000   0.000
   20    2    1   17        3       0.628   1.883   0.000  -2.510  -0.000   0.000
   19    2    1   16        3       0.628   1.883   0.000  -2.510  -0.000   0.000
   22    7    6   21        3       0.628   1.883   0.000  -2.510  -0.000   0.000
   23    7    6   21        3       0.628   1.883   0.000  -2.510  -0.000   0.000
   20    2    1   16        3       0.628   1.883   0.000  -2.510  -0.000   0.000
   19    2    1   17        3       0.628   1.883   0.000  -2.510  -0.000   0.000
   20    2    1   18        3       0.628   1.883   0.000  -2.510  -0.000   0.000
   18    1    2    3        3       0.946   2.837   0.000  -3.782  -0.000   0.000
   22    7    6    3        3       0.946   2.837   0.000  -3.782  -0.000   0.000
   23    7    6    3        3       0.946   2.837   0.000  -3.782  -0.000   0.000
   16    1    2    3        3       0.946   2.837   0.000  -3.782  -0.000   0.000
   17    1    2    3        3       0.946   2.837   0.000  -3.782  -0.000   0.000
   20    2    3    6        3       0.732   2.197   0.000  -2.929  -0.000   0.000
   19    2    3    6        3       0.732   2.197   0.000  -2.929  -0.000   0.000
   21    6    3    2        3       0.732   2.197   0.000  -2.929  -0.000   0.000
   21    6    3    4        3       0.732   2.197   0.000  -2.929  -0.000   0.000
   19    2    3    4        3       0.732   2.197   0.000  -2.929  -0.000   0.000
   20    2    3    5        3       0.732   2.197   0.000  -2.929  -0.000   0.000
   21    6    3    5        3       0.732   2.197   0.000  -2.929  -0.000   0.000
   19    2    3    5        3       0.732   2.197   0.000  -2.929  -0.000   0.000
   20    2    3    4        3       0.732   2.197   0.000  -2.929  -0.000   0.000
   31   13   10   12        3       0.628   1.883   0.000  -2.510  -0.000   0.000
   31   13   10   11        3       0.628   1.883   0.000  -2.510  -0.000   0.000
   31   13   10    6        3       0.628   1.883   0.000  -2.510  -0.000   0.000
   32   14   13   10        3       0.000   0.000   0.000  -0.000  -0.000   0.000
   35   15   13   10        3       0.000   0.000   0.000  -0.000  -0.000   0.000
   34   15   13   10        3       0.000   0.000   0.000  -0.000  -0.000   0.000
   33   14   13   10        3       0.000   0.000   0.000  -0.000  -0.000   0.000
   33   14   15   13        3       0.000   0.000   0.000  -0.000  -0.000   0.000
   35   15   14   13        3       0.000   0.000   0.000  -0.000  -0.000   0.000
   31   13   14   15        3       0.000   0.000   0.000  -0.000  -0.000   0.000
   34   15   14   13        3       0.000   0.000   0.000  -0.000  -0.000   0.000
   31   13   15   14        3       0.000   0.000   0.000  -0.000  -0.000   0.000
   32   14   13   15        3       0.000   0.000   0.000  -0.000  -0.000   0.000
   33   14   13   15        3       0.000   0.000   0.000  -0.000  -0.000   0.000
   34   15   13   14        3       0.000   0.000   0.000  -0.000  -0.000   0.000
   35   15   13   14        3       0.000   0.000   0.000  -0.000  -0.000   0.000
   32   14   15   13        3       0.000   0.000   0.000  -0.000  -0.000   0.000
   34   15   14   32        3       0.000   0.000   0.000  -0.000  -0.000   0.000
   35   15   13   31        3       0.000   0.000   0.000  -0.000  -0.000   0.000
   35   15   14   33        3       0.000   0.000   0.000  -0.000  -0.000   0.000
   33   14   13   31        3       0.000   0.000   0.000  -0.000  -0.000   0.000
   32   14   13   31        3       0.000   0.000   0.000  -0.000  -0.000   0.000
   35   15   14   32        3       0.000   0.000   0.000  -0.000  -0.000   0.000
   34   15   14   33        3       0.000   0.000   0.000  -0.000  -0.000   0.000
   34   15   13   31        3       0.000   0.000   0.000  -0.000  -0.000   0.000
    9    8    7    6        3       0.000   0.000   0.000  -0.000  -0.000   0.000
    5    3    2    1        3       0.000   0.000   0.000  -0.000  -0.000   0.000
    4    3    2    1        3       0.000   0.000   0.000  -0.000  -0.000   0.000

[ pairs ]
     1     4    1
     1     5    1
     1     6    1
     2     7    1
     4     7    1
     3     8    1
     5     7    1
     2    10    1
     4    10    1
     3    11    1
     6     9    1
     5    10    1
     3    12    1
     3    13    1
     8    10    1
     7    11    1
     7    12    1
     3    16    1
     7    13    1
     6    14    1
     3    17    1
     6    15    1
     3    18    1
     4    19    1
     2    21    1
     5    19    1
     4    20    1
    11    14    1
     6    19    1
     5    20    1
     4    21    1
     3    22    1
    12    14    1
    11    15    1
     6    20    1
     5    21    1
     3    23    1
    12    15    1
     8    21    1
     6    24    1
     9    22    1
     6    25    1
    11    21    1
    10    22    1
     9    23    1
     6    26    1
    12    21    1
    10    23    1
     6    27    1
    13    21    1
     6    28    1
    16    19    1
     6    29    1
    17    19    1
    16    20    1
     6    30    1
    18    19    1
    17    20    1
    12    25    1
     6    31    1
    18    20    1
    13    25    1
    12    26    1
    13    26    1
    12    27    1
    11    28    1
    13    27    1
    11    29    1
    13    28    1
    11    30    1
    13    29    1
    11    31    1
    10    32    1
    21    22    1
    13    30    1
    12    31    1
    10    33    1
    21    23    1
    10    34    1
    10    35    1
    22    24    1
    23    24    1
    31    32    1
    31    33    1
    31    34    1
    32    34    1
    31    35    1
    33    34    1
    32    35    1
    33    35    1

