LIGPARGEN GENERATED GRO FILE
   29
    1UNK    C00    1   0.100   0.100   0.000
    1UNK    C01    2  -0.052   0.100   0.000
    1UNK    C02    3  -0.116   0.100   0.140
    1UNK    C03    4  -0.083   0.226   0.217
    1UNK    C04    5  -0.119   0.250   0.362
    1UNK    C05    6   0.024   0.221   0.325
    1UNK    C06    7   0.128   0.329   0.340
    1UNK    C07    8   0.140   0.378   0.484
    1UNK    C08    9   0.242   0.483   0.495
    1UNK    N09   10   0.323   0.566   0.504
    1UNK    S0A   11  -0.294   0.092   0.116
    1UNK    O0B   12  -0.346   0.210   0.052
    1UNK    O0C   13  -0.334  -0.043   0.080
    1UNK    C0D   14  -0.377   0.104   0.275
    1UNK    N0E   15  -0.430   0.112   0.379
    1UNK    H0F   16   0.137   0.093  -0.103
    1UNK    H0G   17   0.139   0.014   0.056
    1UNK    H0H   18   0.140   0.192   0.043
    1UNK    H0I   19  -0.087   0.012  -0.056
    1UNK    H0J   20  -0.086   0.188  -0.057
    1UNK    H0K   21  -0.087   0.010   0.196
    1UNK    H0M   22  -0.086   0.314   0.152
    1UNK    H0N   23  -0.167   0.174   0.423
    1UNK    H0O   24  -0.148   0.351   0.389
    1UNK    H0P   25   0.063   0.124   0.356
    1UNK    H0Q   26   0.106   0.413   0.273
    1UNK    H0R   27   0.225   0.287   0.307
    1UNK    H0S   28   0.165   0.295   0.551
    1UNK    H0T   29   0.044   0.418   0.518
   1.00000   1.00000   1.00000

