
;
; GENERATED BY LigParGen Server
; Jorgensen Lab @ Yale University 
;
[ atomtypes ]
  opls_814  N814    14.0070     0.000    A    3.20000E-01   7.11280E-01
  opls_818  H818     1.0080     0.000    A    2.50000E-01   1.25520E-01
  opls_805  C805    12.0110     0.000    A    3.45000E-01   3.47272E-01
  opls_809  N809    14.0070     0.000    A    3.20000E-01   7.11280E-01
  opls_824  H824     1.0080     0.000    A    2.50000E-01   1.25520E-01
  opls_804  C804    12.0110     0.000    A    3.45000E-01   3.47272E-01
  opls_810  S810    32.0600     0.000    A    3.55000E-01   1.04600E+00
  opls_828  H828     1.0080     0.000    A    2.50000E-01   1.25520E-01
  opls_803  C803    12.0110     0.000    A    3.45000E-01   3.47272E-01
  opls_802  C802    12.0110     0.000    A    3.50000E-01   2.76144E-01
  opls_815  H815     1.0080     0.000    A    2.50000E-01   1.25520E-01
  opls_801  C801    12.0110     0.000    A    3.50000E-01   2.76144E-01
  opls_822  H822     1.0080     0.000    A    2.50000E-01   1.25520E-01
  opls_807  C807    12.0110     0.000    A    3.50000E-01   2.76144E-01
  opls_825  H825     1.0080     0.000    A    2.50000E-01   1.25520E-01
  opls_808  C808    12.0110     0.000    A    3.30000E-01   2.76144E-01
  opls_821  H821     1.0080     0.000    A    2.50000E-01   1.25520E-01
  opls_812  O812    15.9990     0.000    A    2.96000E-01   7.11280E-01
  opls_820  H820     1.0080     0.000    A    2.50000E-01   1.25520E-01
  opls_816  H816     1.0080     0.000    A    2.50000E-01   1.25520E-01
  opls_800  C800    12.0110     0.000    A    3.50000E-01   2.76144E-01
  opls_806  C806    12.0110     0.000    A    3.50000E-01   2.76144E-01
  opls_823  H823     1.0080     0.000    A    2.50000E-01   1.25520E-01
  opls_826  H826     1.0080     0.000    A    2.50000E-01   1.25520E-01
  opls_819  H819     1.0080     0.000    A    2.50000E-01   1.25520E-01
  opls_827  H827     1.0080     0.000    A    2.50000E-01   1.25520E-01
  opls_817  H817     1.0080     0.000    A    2.50000E-01   1.25520E-01
  opls_813  C813    12.0110     0.000    A    3.30000E-01   2.76144E-01
  opls_811  O811    15.9990     0.000    A    2.96000E-01   7.11280E-01
[ moleculetype ]
; Name               nrexcl
UNK                   3
[ atoms ]
;   nr       type  resnr residue  atom   cgnr     charge       mass  
     1   opls_800      1    UNK   C00      1    -0.2215    12.0110 
     2   opls_801      1    UNK   C01      1    -0.1586    12.0110 
     3   opls_802      1    UNK   C02      1    -0.3381    12.0110 
     4   opls_803      1    UNK   C03      1     -0.177    12.0110 
     5   opls_804      1    UNK   C04      1    -0.2362    12.0110 
     6   opls_805      1    UNK   C05      1    -0.1651    12.0110 
     7   opls_806      1    UNK   C06      1    -0.1488    12.0110 
     8   opls_807      1    UNK   C07      1    -0.0686    12.0110 
     9   opls_808      1    UNK   C08      1     0.1526    12.0110 
    10   opls_809      1    UNK   N09      1    -0.3768    14.0070 
    11   opls_810      1    UNK   S0A      1     1.3636    32.0600 
    12   opls_811      1    UNK   O0B      1    -0.4966    15.9990 
    13   opls_812      1    UNK   O0C      1    -0.4966    15.9990 
    14   opls_813      1    UNK   C0D      1    -0.1823    12.0110 
    15   opls_814      1    UNK   N0E      1    -0.2092    14.0070 
    16   opls_815      1    UNK   H0F      1     0.0943     1.0080 
    17   opls_816      1    UNK   H0G      1     0.0943     1.0080 
    18   opls_817      1    UNK   H0H      1     0.0943     1.0080 
    19   opls_818      1    UNK   H0I      1     0.1113     1.0080 
    20   opls_819      1    UNK   H0J      1     0.1113     1.0080 
    21   opls_820      1    UNK   H0K      1     0.1789     1.0080 
    22   opls_821      1    UNK   H0M      1     0.1657     1.0080 
    23   opls_822      1    UNK   H0N      1     0.1429     1.0080 
    24   opls_823      1    UNK   H0O      1     0.1429     1.0080 
    25   opls_824      1    UNK   H0P      1     0.1421     1.0080 
    26   opls_825      1    UNK   H0Q      1     0.1093     1.0080 
    27   opls_826      1    UNK   H0R      1     0.1093     1.0080 
    28   opls_827      1    UNK   H0S      1     0.1313     1.0080 
    29   opls_828      1    UNK   H0T      1     0.1313     1.0080 
[ bonds ]
    2     1     1      0.1529 224262.400
    3     2     1      0.1529 224262.400
    4     3     1      0.1510 234304.000
    5     4     1      0.1520 217568.000
    6     4     1      0.1520 217568.000
    7     6     1      0.1510 234304.000
    8     7     1      0.1529 224262.400
    9     8     1      0.1470 326352.000
   10     9     1      0.1157 543920.000
   11     3     1      0.1770 284512.000
   12    11     1      0.1440 585760.000
   13    11     1      0.1440 585760.000
   14    11     1      0.1685 251040.000
   15    14     1      0.1157 543920.000
   16     1     1      0.1090 284512.000
   17     1     1      0.1090 284512.000
   18     1     1      0.1090 284512.000
   19     2     1      0.1090 284512.000
   20     2     1      0.1090 284512.000
   21     3     1      0.1090 284512.000
   22     4     1      0.1088 284512.000
   23     5     1      0.1088 284512.000
   24     5     1      0.1088 284512.000
   25     6     1      0.1088 284512.000
   26     7     1      0.1090 284512.000
   27     7     1      0.1090 284512.000
   28     8     1      0.1090 284512.000
   29     8     1      0.1090 284512.000
    6     5     1      0.1520 217568.000

[ angles ]
;  ai    aj    ak funct            c0            c1            c2            c3 
    1     2     3     1    112.700    488.273
    2     3     4     1    112.700    488.273
    3     4     5     1    117.200    313.800
    3     4     6     1    117.200    313.800
    4     6     7     1    117.200    313.800
    6     7     8     1    112.700    488.273
    7     8     9     1    112.700    488.273
    8     9    10     1    180.000   1255.200
    2     3    11     1    108.600    418.400
    3    11    12     1    108.900    619.232
    3    11    13     1    108.900    619.232
    3    11    14     1    100.000    543.920
   11    14    15     1    156.000    924.413
    2     1    16     1    110.700    313.800
    2     1    17     1    110.700    313.800
    2     1    18     1    110.700    313.800
    1     2    19     1    110.700    313.800
    1     2    20     1    110.700    313.800
    2     3    21     1    110.700    313.800
    3     4    22     1    114.300    292.880
    4     5    23     1    117.200    313.800
    4     5    24     1    117.200    313.800
    4     6    25     1    117.200    313.800
    6     7    26     1    110.700    313.800
    6     7    27     1    110.700    313.800
    7     8    28     1    110.700    313.800
    7     8    29     1    110.700    313.800
    5     6    25     1    117.200    313.800
    5     4     6     1     83.000    251.040
    4     3    11     1    108.600    418.400
    3     2    20     1    110.700    313.800
    6     5    24     1    117.200    313.800
    4     6     5     1     83.000    251.040
    9     8    28     1    108.500    292.880
    4     5     6     1     83.000    251.040
   11     3    21     1    109.500    292.880
    8     7    26     1    110.700    313.800
   28     8    29     1    107.800    276.144
    7     6    25     1    114.300    292.880
   16     1    18     1    107.800    276.144
   23     5    24     1    114.300    292.880
    5     6     7     1    117.200    313.800
    8     7    27     1    110.700    313.800
    9     8    29     1    108.500    292.880
    6     4    22     1    117.200    313.800
   17     1    18     1    107.800    276.144
   26     7    27     1    107.800    276.144
    5     4    22     1    117.200    313.800
   13    11    14     1    104.360    658.311
    3     2    19     1    110.700    313.800
    4     3    21     1    110.700    313.800
   19     2    20     1    107.800    276.144
   16     1    17     1    107.800    276.144
   12    11    13     1    119.000    870.272
   12    11    14     1    104.360    658.311
    6     5    23     1    117.200    313.800

[ dihedrals ]
; IMPROPER DIHEDRAL ANGLES 
;  ai    aj    ak    al funct            c0            c1            c2            c3            c4            c5

[ dihedrals ]
; PROPER DIHEDRAL ANGLES
;  ai    aj    ak    al funct            c0            c1            c2            c3            c4            c5
    8    7    6    5        3       0.000   0.000   0.000  -0.000  -0.000   0.000
    8    7    6    4        3       0.000   0.000   0.000  -0.000  -0.000   0.000
    7    6    4    3        3       0.000   0.000   0.000  -0.000  -0.000   0.000
    7    6    5    4        3       0.000   0.000   0.000  -0.000  -0.000   0.000
    7    6    4    5        3       0.000   0.000   0.000  -0.000  -0.000   0.000
    4    3    2    1        3       2.301  -1.464   0.837  -1.674  -0.000   0.000
    5    4    3    2        3       0.000   0.000   0.000  -0.000  -0.000   0.000
    6    4    3    2        3       0.000   0.000   0.000  -0.000  -0.000   0.000
    6    4    3    5        3       0.000   0.000   0.000  -0.000  -0.000   0.000
    9    8    7    6        3      -2.720   0.000   2.720  -0.000  -0.000   0.000
   14   11    3    2        3       0.000   0.000   0.000  -0.000  -0.000   0.000
   14   11    3    4        3       0.000   0.000   0.000  -0.000  -0.000   0.000
   18    1    2    3        3       0.628   1.883   0.000  -2.510  -0.000   0.000
   21    3    2    1        3       0.628   1.883   0.000  -2.510  -0.000   0.000
   17    1    2    3        3       0.628   1.883   0.000  -2.510  -0.000   0.000
   16    1    2    3        3       0.628   1.883   0.000  -2.510  -0.000   0.000
   28    8    7    6        3       0.628   1.883   0.000  -2.510  -0.000   0.000
   19    2    3    4        3       0.628   1.883   0.000  -2.510  -0.000   0.000
   20    2    3    4        3       0.628   1.883   0.000  -2.510  -0.000   0.000
   29    8    7    6        3       0.628   1.883   0.000  -2.510  -0.000   0.000
   27    7    8    9        3       0.766   2.297   0.000  -3.063  -0.000   0.000
   26    7    8    9        3       0.766   2.297   0.000  -3.063  -0.000   0.000
   28    8    7   27        3       0.628   1.883   0.000  -2.510  -0.000   0.000
   29    8    7   26        3       0.628   1.883   0.000  -2.510  -0.000   0.000
   20    2    1   18        3       0.628   1.883   0.000  -2.510  -0.000   0.000
   19    2    1   16        3       0.628   1.883   0.000  -2.510  -0.000   0.000
   19    2    1   18        3       0.628   1.883   0.000  -2.510  -0.000   0.000
   20    2    1   16        3       0.628   1.883   0.000  -2.510  -0.000   0.000
   28    8    7   26        3       0.628   1.883   0.000  -2.510  -0.000   0.000
   21    3    2   20        3       0.628   1.883   0.000  -2.510  -0.000   0.000
   19    2    1   17        3       0.628   1.883   0.000  -2.510  -0.000   0.000
   20    2    1   17        3       0.628   1.883   0.000  -2.510  -0.000   0.000
   29    8    7   27        3       0.628   1.883   0.000  -2.510  -0.000   0.000
   21    3    2   19        3       0.628   1.883   0.000  -2.510  -0.000   0.000
   20    2    3   11        3       0.946   2.837   0.000  -3.782  -0.000   0.000
   19    2    3   11        3       0.946   2.837   0.000  -3.782  -0.000   0.000
   27    7    6    4        3       0.628   1.883   0.000  -2.510  -0.000   0.000
   21    3    4    6        3       0.628   1.883   0.000  -2.510  -0.000   0.000
   21    3    4    5        3       0.628   1.883   0.000  -2.510  -0.000   0.000
   26    7    6    5        3       0.628   1.883   0.000  -2.510  -0.000   0.000
   26    7    6    4        3       0.628   1.883   0.000  -2.510  -0.000   0.000
   27    7    6    5        3       0.628   1.883   0.000  -2.510  -0.000   0.000
   26    7    6   25        3       0.628   1.883   0.000  -2.510  -0.000   0.000
   27    7    6   25        3       0.628   1.883   0.000  -2.510  -0.000   0.000
   28    8    9   10        3       0.000   0.000   0.000  -0.000  -0.000   0.000
   29    8    9   10        3       0.000   0.000   0.000  -0.000  -0.000   0.000
   21    3   11   14        3       0.732   2.197   0.000  -2.929  -0.000   0.000
   21    3   11   12        3       0.732   2.197   0.000  -2.929  -0.000   0.000
   21    3   11   13        3       0.732   2.197   0.000  -2.929  -0.000   0.000
   22    4    3    2        3       0.628   1.883   0.000  -2.510  -0.000   0.000
   25    6    7    8        3       0.628   1.883   0.000  -2.510  -0.000   0.000
   22    4    3   21        3       0.628   1.883   0.000  -2.510  -0.000   0.000
   22    4    3   11        3       0.946   2.837   0.000  -3.782  -0.000   0.000
   25    6    4    3        3       0.000   0.000   0.000  -0.000  -0.000   0.000
   22    4    6    7        3       0.000   0.000   0.000  -0.000  -0.000   0.000
   24    5    6    7        3       0.000   0.000   0.000  -0.000  -0.000   0.000
   23    5    6    7        3       0.000   0.000   0.000  -0.000  -0.000   0.000
   23    5    4    3        3       0.000   0.000   0.000  -0.000  -0.000   0.000
   24    5    4    3        3       0.000   0.000   0.000  -0.000  -0.000   0.000
   22    4    6    5        3       0.000   0.000   0.000  -0.000  -0.000   0.000
   25    6    5    4        3       0.000   0.000   0.000  -0.000  -0.000   0.000
   25    6    4    5        3       0.000   0.000   0.000  -0.000  -0.000   0.000
   24    5    4    6        3       0.000   0.000   0.000  -0.000  -0.000   0.000
   23    5    4    6        3       0.000   0.000   0.000  -0.000  -0.000   0.000
   24    5    6    4        3       0.000   0.000   0.000  -0.000  -0.000   0.000
   22    4    5    6        3       0.000   0.000   0.000  -0.000  -0.000   0.000
   23    5    6    4        3       0.000   0.000   0.000  -0.000  -0.000   0.000
   25    6    5   24        3       0.000   0.000   0.000  -0.000  -0.000   0.000
   24    5    4   22        3       0.000   0.000   0.000  -0.000  -0.000   0.000
   25    6    4   22        3       0.000   0.000   0.000  -0.000  -0.000   0.000
   25    6    5   23        3       0.000   0.000   0.000  -0.000  -0.000   0.000
   23    5    4   22        3       0.000   0.000   0.000  -0.000  -0.000   0.000
   10    9    8    7        3       0.000   0.000   0.000  -0.000  -0.000   0.000
   15   14   11    3        3       0.732   2.197   0.000  -2.929  -0.000   0.000
   15   14   11   12        3       0.000   0.000   0.000  -0.000  -0.000   0.000
   15   14   11   13        3       0.000   0.000   0.000  -0.000  -0.000   0.000
   12   11    3    2        3       0.000   0.000   0.000  -0.000  -0.000   0.000
   13   11    3    2        3       0.000   0.000   0.000  -0.000  -0.000   0.000
   12   11    3    4        3       0.000   0.000   0.000  -0.000  -0.000   0.000
   13   11    3    4        3       0.000   0.000   0.000  -0.000  -0.000   0.000
   11    3    2    1        3       2.784   0.278   0.828  -3.891  -0.000   0.000
   11    3    4    5        3       2.784   0.278   0.828  -3.891  -0.000   0.000
   11    3    4    6        3       2.784   0.278   0.828  -3.891  -0.000   0.000

[ pairs ]
     1     4    1
     2     5    1
     2     6    1
     3     7    1
     4     8    1
     1    11    1
     5     8    1
     2    12    1
     6     9    1
     2    13    1
     5    11    1
     4    12    1
     2    14    1
     7    10    1
     6    11    1
     4    13    1
     4    14    1
     3    15    1
     3    16    1
     3    17    1
     3    18    1
     1    21    1
     4    19    1
     4    20    1
     2    22    1
     5    21    1
     3    23    1
    12    15    1
     6    21    1
     3    24    1
    13    15    1
     3    25    1
     7    22    1
    11    19    1
     7    23    1
     4    26    1
    11    20    1
     7    24    1
     5    26    1
     4    27    1
     5    27    1
    12    21    1
    11    22    1
     8    25    1
    13    21    1
     6    28    1
    16    19    1
    14    21    1
     9    26    1
     6    29    1
    17    19    1
    16    20    1
     9    27    1
    18    19    1
    17    20    1
    18    20    1
    10    28    1
    10    29    1
    19    21    1
    20    21    1
    21    22    1
    22    23    1
    22    24    1
    22    25    1
    23    25    1
    24    25    1
    25    26    1
    25    27    1
    26    28    1
    27    28    1
    26    29    1
    27    29    1

