LIGPARGEN GENERATED GRO FILE
   37
    1UNK    C00    1   0.100   0.100   0.000
    1UNK    C01    2  -0.052   0.100   0.000
    1UNK    C02    3  -0.106   0.100   0.143
    1UNK    C03    4  -0.259   0.106   0.147
    1UNK    C04    5  -0.304   0.106   0.292
    1UNK    C05    6  -0.267   0.230   0.378
    1UNK    C06    7  -0.397   0.201   0.460
    1UNK    C07    8  -0.382   0.115   0.588
    1UNK    C08    9  -0.282   0.173   0.686
    1UNK    C09   10  -0.505   0.049   0.650
    1UNK    C0A   11  -0.401  -0.037   0.582
    1UNK    C0B   12  -0.315  -0.131   0.660
    1UNK    C0C   13  -0.452   0.140   0.327
    1UNK    H0D   14   0.138   0.100  -0.103
    1UNK    H0E   15   0.139   0.011   0.051
    1UNK    H0F   16   0.139   0.189   0.051
    1UNK    H0G   17  -0.089   0.012  -0.054
    1UNK    H0H   18  -0.088   0.189  -0.054
    1UNK    H0I   19  -0.064   0.186   0.197
    1UNK    H0J   20  -0.072   0.010   0.195
    1UNK    H0K   21  -0.302   0.020   0.095
    1UNK    H0M   22  -0.295   0.196   0.095
    1UNK    H0N   23  -0.272   0.012   0.339
    1UNK    H0O   24  -0.270   0.325   0.324
    1UNK    H0P   25  -0.172   0.223   0.431
    1UNK    H0Q   26  -0.449   0.293   0.488
    1UNK    H0R   27  -0.293   0.282   0.692
    1UNK    H0S   28  -0.180   0.150   0.653
    1UNK    H0T   29  -0.294   0.134   0.787
    1UNK    H0U   30  -0.600   0.061   0.600
    1UNK    H0V   31  -0.513   0.044   0.758
    1UNK    H0W   32  -0.430  -0.083   0.488
    1UNK    H0X   33  -0.293  -0.095   0.761
    1UNK    H0Y   34  -0.220  -0.146   0.607
    1UNK    H0Z   35  -0.364  -0.228   0.668
    1UNK    H10   36  -0.497   0.215   0.261
    1UNK    H11   37  -0.521   0.056   0.335
   1.00000   1.00000   1.00000

