LIGPARGEN GENERATED GRO FILE
   32
    1UNK    C00    1   0.100   0.100   0.000
    1UNK    C01    2  -0.054   0.100   0.000
    1UNK    C02    3  -0.101   0.100   0.147
    1UNK    C03    4  -0.251   0.089   0.166
    1UNK    C04    5  -0.319   0.221   0.136
    1UNK    O05    6  -0.338   0.302   0.227
    1UNK    C06    7  -0.362   0.250  -0.008
    1UNK    C07    8  -0.375   0.402  -0.029
    1UNK    C08    9  -0.500   0.185  -0.029
    1UNK    C09   10  -0.262   0.193  -0.111
    1UNK    C0A   11  -0.115   0.217  -0.083
    1UNK    C0B   12  -0.043   0.238  -0.217
    1UNK    H0C   13   0.139   0.021   0.065
    1UNK    H0D   14   0.140   0.196   0.036
    1UNK    H0E   15   0.140   0.081  -0.100
    1UNK    H0F   16  -0.085   0.005  -0.045
    1UNK    H0G   17  -0.064   0.190   0.197
    1UNK    H0H   18  -0.055   0.014   0.198
    1UNK    H0I   19  -0.274   0.064   0.270
    1UNK    H0J   20  -0.295   0.009   0.105
    1UNK    H0K   21  -0.450   0.445   0.039
    1UNK    H0M   22  -0.408   0.425  -0.131
    1UNK    H0N   23  -0.281   0.454  -0.010
    1UNK    H0O   24  -0.573   0.225   0.043
    1UNK    H0P   25  -0.496   0.077  -0.014
    1UNK    H0Q   26  -0.538   0.204  -0.130
    1UNK    H0R   27  -0.288   0.235  -0.209
    1UNK    H0S   28  -0.277   0.084  -0.123
    1UNK    H0T   29  -0.103   0.310  -0.027
    1UNK    H0U   30  -0.043   0.146  -0.277
    1UNK    H0V   31   0.061   0.269  -0.202
    1UNK    H0W   32  -0.091   0.317  -0.275
   1.00000   1.00000   1.00000

