LIGPARGEN GENERATED GRO FILE
   34
    1UNK    C00    1   0.100   0.100   0.000
    1UNK    C01    2  -0.054   0.100   0.000
    1UNK    C02    3  -0.100   0.100   0.146
    1UNK    C03    4  -0.111   0.220  -0.084
    1UNK    C04    5  -0.080   0.204  -0.236
    1UNK    C05    6  -0.162   0.097  -0.310
    1UNK    C06    7  -0.313   0.112  -0.297
    1UNK    S07    8  -0.364   0.117  -0.127
    1UNK    O08    9  -0.323  -0.008  -0.065
    1UNK    O09   10  -0.504   0.153  -0.123
    1UNK    C0A   11  -0.262   0.253  -0.062
    1UNK    C0B   12  -0.302   0.388  -0.130
    1UNK    C0C   13  -0.450   0.429  -0.113
    1UNK    C0D   14  -0.224   0.507  -0.076
    1UNK    N0E   15  -0.160   0.606  -0.032
    1UNK    H0F   16   0.139   0.021   0.065
    1UNK    H0G   17   0.140   0.196   0.036
    1UNK    H0H   18   0.141   0.081  -0.100
    1UNK    H0I   19  -0.084   0.005  -0.045
    1UNK    H0J   20  -0.072   0.193   0.197
    1UNK    H0K   21  -0.055   0.016   0.201
    1UNK    H0M   22  -0.209   0.088   0.155
    1UNK    H0N   23  -0.054   0.307  -0.051
    1UNK    H0O   24   0.026   0.181  -0.251
    1UNK    H0P   25  -0.094   0.300  -0.286
    1UNK    H0Q   26  -0.132  -0.002  -0.276
    1UNK    H0R   27  -0.137   0.102  -0.417
    1UNK    H0S   28  -0.364   0.026  -0.343
    1UNK    H0T   29  -0.349   0.202  -0.346
    1UNK    H0U   30  -0.285   0.260   0.045
    1UNK    H0V   31  -0.284   0.384  -0.237
    1UNK    H0W   32  -0.483   0.417  -0.009
    1UNK    H0X   33  -0.516   0.373  -0.179
    1UNK    H0Y   34  -0.464   0.534  -0.140
   1.00000   1.00000   1.00000

