LIGPARGEN GENERATED GRO FILE
   45
    1UNK    C00    1   0.100   0.100   0.000
    1UNK    C01    2  -0.052   0.100   0.000
    1UNK    C02    3  -0.108   0.100   0.142
    1UNK    C03    4  -0.261   0.100   0.140
    1UNK    C04    5  -0.326   0.100   0.280
    1UNK    C05    6  -0.283   0.215   0.372
    1UNK    C06    7  -0.321   0.355   0.325
    1UNK    S07    8  -0.507   0.093   0.265
    1UNK    O08    9  -0.563   0.100   0.399
    1UNK    O09   10  -0.547   0.193   0.166
    1UNK    C0A   11  -0.545  -0.070   0.194
    1UNK    C0B   12  -0.498  -0.187   0.281
    1UNK    C0C   13  -0.587  -0.211   0.403
    1UNK    C0D   14  -0.736  -0.225   0.367
    1UNK    C0E   15  -0.764  -0.361   0.303
    1UNK    C0F   16  -0.783  -0.109   0.277
    1UNK    C0G   17  -0.693  -0.083   0.157
    1UNK    H0H   18   0.138   0.105  -0.103
    1UNK    H0I   19   0.139   0.009   0.047
    1UNK    H0J   20   0.139   0.186   0.055
    1UNK    H0K   21  -0.088   0.012  -0.055
    1UNK    H0M   22  -0.088   0.189  -0.054
    1UNK    H0N   23  -0.070   0.189   0.195
    1UNK    H0O   24  -0.072   0.012   0.197
    1UNK    H0P   25  -0.293   0.010   0.086
    1UNK    H0Q   26  -0.296   0.185   0.082
    1UNK    H0R   27  -0.297   0.008   0.332
    1UNK    H0S   28  -0.174   0.212   0.385
    1UNK    H0T   29  -0.325   0.200   0.472
    1UNK    H0U   30  -0.303   0.369   0.218
    1UNK    H0V   31  -0.262   0.430   0.378
    1UNK    H0W   32  -0.426   0.375   0.345
    1UNK    H0X   33  -0.488  -0.072   0.100
    1UNK    H0Y   34  -0.395  -0.175   0.314
    1UNK    H0Z   35  -0.499  -0.278   0.219
    1UNK    H10   36  -0.575  -0.129   0.474
    1UNK    H11   37  -0.553  -0.301   0.455
    1UNK    H12   38  -0.793  -0.220   0.460
    1UNK    H13   39  -0.713  -0.374   0.207
    1UNK    H14   40  -0.872  -0.374   0.286
    1UNK    H15   41  -0.731  -0.442   0.370
    1UNK    H16   42  -0.790  -0.018   0.337
    1UNK    H17   43  -0.885  -0.129   0.241
    1UNK    H18   44  -0.728   0.006   0.104
    1UNK    H19   45  -0.704  -0.166   0.086
   1.00000   1.00000   1.00000

