LIGPARGEN GENERATED GRO FILE
   31
    1UNK    C00    1   0.100   0.100   0.000
    1UNK    C01    2  -0.053   0.100   0.000
    1UNK    C02    3  -0.112   0.100   0.142
    1UNK    C03    4  -0.074  -0.028   0.220
    1UNK    C04    5  -0.178  -0.036   0.329
    1UNK    C05    6  -0.306  -0.001   0.255
    1UNK    C06    7  -0.268   0.113   0.157
    1UNK    C07    8  -0.351   0.099   0.028
    1UNK    C08    9  -0.387   0.239  -0.010
    1UNK    O09   10  -0.440   0.272  -0.115
    1UNK    O0A   11  -0.358   0.324   0.092
    1UNK    C0B   12  -0.317   0.250   0.208
    1UNK    C0C   13  -0.221   0.339   0.285
    1UNK    H0D   14   0.138   0.100  -0.103
    1UNK    H0E   15   0.140   0.011   0.050
    1UNK    H0F   16   0.139   0.189   0.051
    1UNK    H0G   17  -0.086   0.012  -0.056
    1UNK    H0H   18  -0.087   0.189  -0.054
    1UNK    H0I   19  -0.062   0.182   0.195
    1UNK    H0J   20   0.027  -0.022   0.262
    1UNK    H0K   21  -0.080  -0.116   0.155
    1UNK    H0M   22  -0.158   0.037   0.408
    1UNK    H0N   23  -0.183  -0.135   0.374
    1UNK    H0O   24  -0.386   0.026   0.324
    1UNK    H0P   25  -0.339  -0.089   0.199
    1UNK    H0Q   26  -0.445   0.045   0.046
    1UNK    H0R   27  -0.298   0.050  -0.054
    1UNK    H0S   28  -0.408   0.238   0.269
    1UNK    H0T   29  -0.142   0.379   0.221
    1UNK    H0U   30  -0.177   0.287   0.371
    1UNK    H0V   31  -0.274   0.427   0.323
   1.00000   1.00000   1.00000

