
;
; GENERATED BY LigParGen Server
; Jorgensen Lab @ Yale University 
;
[ atomtypes ]
  opls_818  H818     1.0080     0.000    A    2.50000E-01   1.25520E-01
  opls_814  C814    12.0110     0.000    A    3.50000E-01   2.76144E-01
  opls_824  H824     1.0080     0.000    A    2.50000E-01   1.25520E-01
  opls_815  C815    12.0110     0.000    A    3.50000E-01   2.76144E-01
  opls_808  O808    15.9990     0.000    A    2.96000E-01   8.78640E-01
  opls_833  H833     1.0080     0.000    A    2.50000E-01   1.25520E-01
  opls_804  O804    15.9990     0.000    A    2.96000E-01   8.78640E-01
  opls_836  H836     1.0080     0.000    A    2.50000E-01   1.25520E-01
  opls_834  H834     1.0080     0.000    A    2.50000E-01   1.25520E-01
  opls_828  H828     1.0080     0.000    A    2.50000E-01   1.25520E-01
  opls_812  C812    12.0110     0.000    A    3.50000E-01   2.76144E-01
  opls_802  C802    12.0110     0.000    A    3.50000E-01   2.76144E-01
  opls_807  C807    12.0110     0.000    A    3.55000E-01   2.92880E-01
  opls_809  C809    12.0110     0.000    A    3.50000E-01   2.76144E-01
  opls_806  C806    12.0110     0.000    A    3.50000E-01   2.76144E-01
  opls_822  H822     1.0080     0.000    A    2.50000E-01   1.25520E-01
  opls_825  H825     1.0080     0.000    A    2.50000E-01   1.25520E-01
  opls_830  H830     1.0080     0.000    A    2.50000E-01   1.25520E-01
  opls_821  H821     1.0080     0.000    A    2.50000E-01   1.25520E-01
  opls_820  H820     1.0080     0.000    A    2.50000E-01   1.25520E-01
  opls_837  H837     1.0080     0.000    A    2.50000E-01   1.25520E-01
  opls_829  H829     1.0080     0.000    A    2.50000E-01   1.25520E-01
  opls_831  H831     1.0080     0.000    A    2.50000E-01   1.25520E-01
  opls_832  H832     1.0080     0.000    A    2.50000E-01   1.25520E-01
  opls_816  H816     1.0080     0.000    A    2.50000E-01   1.25520E-01
  opls_800  C800    12.0110     0.000    A    3.50000E-01   2.76144E-01
  opls_811  C811    12.0110     0.000    A    3.50000E-01   2.76144E-01
  opls_823  H823     1.0080     0.000    A    2.50000E-01   1.25520E-01
  opls_813  C813    12.0110     0.000    A    3.50000E-01   2.76144E-01
  opls_805  O805    15.9990     0.000    A    2.90000E-01   5.85760E-01
  opls_826  H826     1.0080     0.000    A    2.50000E-01   1.25520E-01
  opls_835  H835     1.0080     0.000    A    2.50000E-01   1.25520E-01
  opls_819  H819     1.0080     0.000    A    2.50000E-01   1.25520E-01
  opls_810  C810    12.0110     0.000    A    3.50000E-01   2.76144E-01
  opls_827  H827     1.0080     0.000    A    2.50000E-01   1.25520E-01
  opls_801  C801    12.0110     0.000    A    3.50000E-01   2.76144E-01
  opls_803  C803    12.0110     0.000    A    3.55000E-01   2.92880E-01
  opls_817  H817     1.0080     0.000    A    2.50000E-01   1.25520E-01
[ moleculetype ]
; Name               nrexcl
UNK                   3
[ atoms ]
;   nr       type  resnr residue  atom   cgnr     charge       mass  
     1   opls_800      1    UNK   C00      1    -0.2342    12.0110 
     2   opls_801      1    UNK   C01      1    -0.1657    12.0110 
     3   opls_802      1    UNK   C02      1       0.06    12.0110 
     4   opls_803      1    UNK   C03      1     0.3031    12.0110 
     5   opls_804      1    UNK   O04      1    -0.4434    15.9990 
     6   opls_805      1    UNK   O05      1    -0.3383    15.9990 
     7   opls_806      1    UNK   C06      1    -0.0084    12.0110 
     8   opls_807      1    UNK   C07      1     0.2835    12.0110 
     9   opls_808      1    UNK   O08      1    -0.4235    15.9990 
    10   opls_809      1    UNK   C09      1    -0.2132    12.0110 
    11   opls_810      1    UNK   C0A      1    -0.1175    12.0110 
    12   opls_811      1    UNK   C0B      1    -0.1549    12.0110 
    13   opls_812      1    UNK   C0C      1    -0.0501    12.0110 
    14   opls_813      1    UNK   C0D      1    -0.2319    12.0110 
    15   opls_814      1    UNK   C0E      1    -0.2327    12.0110 
    16   opls_815      1    UNK   C0F      1    -0.2325    12.0110 
    17   opls_816      1    UNK   H0G      1     0.0879     1.0080 
    18   opls_817      1    UNK   H0H      1     0.0879     1.0080 
    19   opls_818      1    UNK   H0I      1     0.0879     1.0080 
    20   opls_819      1    UNK   H0J      1     0.1094     1.0080 
    21   opls_820      1    UNK   H0K      1     0.1094     1.0080 
    22   opls_821      1    UNK   H0M      1     0.1501     1.0080 
    23   opls_822      1    UNK   H0N      1     0.1497     1.0080 
    24   opls_823      1    UNK   H0O      1     0.1154     1.0080 
    25   opls_824      1    UNK   H0P      1     0.1128     1.0080 
    26   opls_825      1    UNK   H0Q      1     0.1128     1.0080 
    27   opls_826      1    UNK   H0R      1      0.118     1.0080 
    28   opls_827      1    UNK   H0S      1     0.1075     1.0080 
    29   opls_828      1    UNK   H0T      1     0.1075     1.0080 
    30   opls_829      1    UNK   H0U      1     0.0821     1.0080 
    31   opls_830      1    UNK   H0V      1     0.0821     1.0080 
    32   opls_831      1    UNK   H0W      1     0.0821     1.0080 
    33   opls_832      1    UNK   H0X      2      0.085     1.0080 
    34   opls_833      1    UNK   H0Y      2      0.085     1.0080 
    35   opls_834      1    UNK   H0Z      2      0.085     1.0080 
    36   opls_835      1    UNK   H10      2     0.0808     1.0080 
    37   opls_836      1    UNK   H11      2     0.0808     1.0080 
    38   opls_837      1    UNK   H12      2     0.0808     1.0080 
[ bonds ]
    2     1     1      0.1529 224262.400
    3     2     1      0.1529 224262.400
    4     3     1      0.1522 265265.600
    5     4     1      0.1229 476976.000
    6     3     1      0.1410 267776.000
    7     6     1      0.1410 267776.000
    8     7     1      0.1522 265265.600
    9     8     1      0.1229 476976.000
   10     7     1      0.1529 224262.400
   11     3     1      0.1529 224262.400
   12    11     1      0.1529 224262.400
   13    12     1      0.1529 224262.400
   14    13     1      0.1529 224262.400
   15    13     1      0.1529 224262.400
   16    13     1      0.1529 224262.400
   17     1     1      0.1090 284512.000
   18     1     1      0.1090 284512.000
   19     1     1      0.1090 284512.000
   20     2     1      0.1090 284512.000
   21     2     1      0.1090 284512.000
   22     4     1      0.1090 284512.000
   23     7     1      0.1090 284512.000
   24     8     1      0.1090 284512.000
   25    10     1      0.1090 284512.000
   26    10     1      0.1090 284512.000
   27    11     1      0.1090 284512.000
   28    12     1      0.1090 284512.000
   29    12     1      0.1090 284512.000
   30    14     1      0.1090 284512.000
   31    14     1      0.1090 284512.000
   32    14     1      0.1090 284512.000
   33    15     1      0.1090 284512.000
   34    15     1      0.1090 284512.000
   35    15     1      0.1090 284512.000
   36    16     1      0.1090 284512.000
   37    16     1      0.1090 284512.000
   38    16     1      0.1090 284512.000
   11    10     1      0.1529 224262.400

[ angles ]
;  ai    aj    ak funct            c0            c1            c2            c3 
    1     2     3     1    112.700    488.273
    2     3     4     1    111.100    527.184
    3     4     5     1    120.400    669.440
    2     3     6     1    109.500    418.400
    3     6     7     1    109.500    502.080
    6     7     8     1    109.500    418.400
    7     8     9     1    120.400    669.440
    6     7    10     1    109.500    418.400
    2     3    11     1    112.700    488.273
    3    11    12     1    112.700    488.273
   11    12    13     1    112.700    488.273
   12    13    14     1    112.700    488.273
   12    13    15     1    112.700    488.273
   12    13    16     1    112.700    488.273
    2     1    17     1    110.700    313.800
    2     1    18     1    110.700    313.800
    2     1    19     1    110.700    313.800
    1     2    20     1    110.700    313.800
    1     2    21     1    110.700    313.800
    3     4    22     1    115.000    292.880
    6     7    23     1    109.500    292.880
    7     8    24     1    115.000    292.880
    7    10    25     1    110.700    313.800
    7    10    26     1    110.700    313.800
    3    11    27     1    110.700    313.800
   11    12    28     1    110.700    313.800
   11    12    29     1    110.700    313.800
   13    14    30     1    110.700    313.800
   13    14    31     1    110.700    313.800
   13    14    32     1    110.700    313.800
   13    15    33     1    110.700    313.800
   13    15    34     1    110.700    313.800
   13    15    35     1    110.700    313.800
   13    16    36     1    110.700    313.800
   13    16    37     1    110.700    313.800
   13    16    38     1    110.700    313.800
    4     3    11     1    111.100    527.184
    3     2    20     1    110.700    313.800
   15    13    16     1    112.700    488.273
   30    14    31     1    107.800    276.144
   28    12    29     1    107.800    276.144
    3     2    21     1    110.700    313.800
    8     7    10     1    111.100    527.184
    7    10    11     1    112.700    488.273
   25    10    26     1    107.800    276.144
   31    14    32     1    107.800    276.144
   30    14    32     1    107.800    276.144
   37    16    38     1    107.800    276.144
   14    13    15     1    112.700    488.273
   36    16    37     1    107.800    276.144
    8     7    23     1    109.500    292.880
    6     3    11     1    109.500    418.400
    5     4    22     1    123.000    292.880
   34    15    35     1    107.800    276.144
   33    15    34     1    107.800    276.144
   36    16    38     1    107.800    276.144
   10    11    12     1    112.700    488.273
   11    10    25     1    110.700    313.800
    4     3     6     1    109.500    418.400
   33    15    35     1    107.800    276.144
   17     1    19     1    107.800    276.144
   20     2    21     1    107.800    276.144
   11    10    26     1    110.700    313.800
   10    11    27     1    110.700    313.800
   17     1    18     1    107.800    276.144
   14    13    16     1    112.700    488.273
   12    11    27     1    110.700    313.800
   13    12    28     1    110.700    313.800
   18     1    19     1    107.800    276.144
   10     7    23     1    110.700    313.800
   13    12    29     1    110.700    313.800
    3    11    10     1    112.700    488.273
    9     8    24     1    123.000    292.880

[ dihedrals ]
; IMPROPER DIHEDRAL ANGLES 
;  ai    aj    ak    al funct            c0            c1            c2            c3            c4            c5
    24     8     7     9    4        180.000     43.932     2  
    22     4     3     5    4        180.000     43.932     2  

[ dihedrals ]
; PROPER DIHEDRAL ANGLES
;  ai    aj    ak    al funct            c0            c1            c2            c3            c4            c5
    4    3    2    1        3      -4.960   6.286   1.310  -2.636  -0.000   0.000
    8    7    6    3        3       1.715   2.845   1.046  -5.607  -0.000   0.000
   10    7    8    9        3       0.000   0.000   0.000  -0.000  -0.000   0.000
   11    3    4    5        3       0.000   0.000   0.000  -0.000  -0.000   0.000
   10   11    3    4        3      -4.960   6.286   1.310  -2.636  -0.000   0.000
   11   10    7    8        3      -4.960   6.286   1.310  -2.636  -0.000   0.000
   12   11    3    4        3      -4.960   6.286   1.310  -2.636  -0.000   0.000
   15   13   12   11        3       2.301  -1.464   0.837  -1.674  -0.000   0.000
   12   11   10    7        3       2.301  -1.464   0.837  -1.674  -0.000   0.000
   12   11    3    2        3       2.301  -1.464   0.837  -1.674  -0.000   0.000
   16   13   12   11        3       2.301  -1.464   0.837  -1.674  -0.000   0.000
   11    3    2    1        3       2.301  -1.464   0.837  -1.674  -0.000   0.000
   10   11    3    2        3       2.301  -1.464   0.837  -1.674  -0.000   0.000
    7   10   11    3        3       2.301  -1.464   0.837  -1.674  -0.000   0.000
   13   12   11   10        3       2.301  -1.464   0.837  -1.674  -0.000   0.000
   14   13   12   11        3       2.301  -1.464   0.837  -1.674  -0.000   0.000
   13   12   11    3        3       2.301  -1.464   0.837  -1.674  -0.000   0.000
   11   10    7    6        3       2.874   0.582   2.092  -5.548  -0.000   0.000
   12   11    3    6        3       2.874   0.582   2.092  -5.548  -0.000   0.000
   10   11    3    6        3       2.874   0.582   2.092  -5.548  -0.000   0.000
   11    3    6    7        3       1.715   2.845   1.046  -5.607  -0.000   0.000
   10    7    6    3        3       1.715   2.845   1.046  -5.607  -0.000   0.000
    7    6    3    4        3       1.715   2.845   1.046  -5.607  -0.000   0.000
    7    6    3    2        3       1.715   2.845   1.046  -5.607  -0.000   0.000
   22    4    3    2        3       0.000   0.000   0.000  -0.000  -0.000   0.000
   24    8    7   10        3       0.000   0.000   0.000  -0.000  -0.000   0.000
   22    4    3   11        3       0.000   0.000   0.000  -0.000  -0.000   0.000
   24    8    7   23        3       0.753   2.259   0.000  -3.012  -0.000   0.000
   22    4    3    6        3       0.979   2.937   0.000  -3.916  -0.000   0.000
   24    8    7    6        3       0.979   2.937   0.000  -3.916  -0.000   0.000
   23    7    8    9        3       0.000   0.000   0.000  -0.000  -0.000   0.000
   20    2    3    4        3      -0.209  -0.628   0.000   0.837  -0.000   0.000
   25   10    7    8        3      -0.209  -0.628   0.000   0.837  -0.000   0.000
   21    2    3    4        3      -0.209  -0.628   0.000   0.837  -0.000   0.000
   27   11    3    4        3      -0.209  -0.628   0.000   0.837  -0.000   0.000
   26   10    7    8        3      -0.209  -0.628   0.000   0.837  -0.000   0.000
   37   16   13   15        3       0.628   1.883   0.000  -2.510  -0.000   0.000
   36   16   13   14        3       0.628   1.883   0.000  -2.510  -0.000   0.000
   25   10   11    3        3       0.628   1.883   0.000  -2.510  -0.000   0.000
   31   14   13   15        3       0.628   1.883   0.000  -2.510  -0.000   0.000
   35   15   13   12        3       0.628   1.883   0.000  -2.510  -0.000   0.000
   33   15   13   14        3       0.628   1.883   0.000  -2.510  -0.000   0.000
   30   14   13   15        3       0.628   1.883   0.000  -2.510  -0.000   0.000
   31   14   13   16        3       0.628   1.883   0.000  -2.510  -0.000   0.000
   32   14   13   12        3       0.628   1.883   0.000  -2.510  -0.000   0.000
   38   16   13   12        3       0.628   1.883   0.000  -2.510  -0.000   0.000
   25   10   11   12        3       0.628   1.883   0.000  -2.510  -0.000   0.000
   18    1    2    3        3       0.628   1.883   0.000  -2.510  -0.000   0.000
   38   16   13   14        3       0.628   1.883   0.000  -2.510  -0.000   0.000
   28   12   13   14        3       0.628   1.883   0.000  -2.510  -0.000   0.000
   35   15   13   14        3       0.628   1.883   0.000  -2.510  -0.000   0.000
   34   15   13   16        3       0.628   1.883   0.000  -2.510  -0.000   0.000
   27   11    3    2        3       0.628   1.883   0.000  -2.510  -0.000   0.000
   37   16   13   12        3       0.628   1.883   0.000  -2.510  -0.000   0.000
   28   12   11    3        3       0.628   1.883   0.000  -2.510  -0.000   0.000
   29   12   13   16        3       0.628   1.883   0.000  -2.510  -0.000   0.000
   31   14   13   12        3       0.628   1.883   0.000  -2.510  -0.000   0.000
   32   14   13   15        3       0.628   1.883   0.000  -2.510  -0.000   0.000
   20    2    3   11        3       0.628   1.883   0.000  -2.510  -0.000   0.000
   27   11   12   13        3       0.628   1.883   0.000  -2.510  -0.000   0.000
   27   11   10    7        3       0.628   1.883   0.000  -2.510  -0.000   0.000
   38   16   13   15        3       0.628   1.883   0.000  -2.510  -0.000   0.000
   21    2    3   11        3       0.628   1.883   0.000  -2.510  -0.000   0.000
   36   16   13   15        3       0.628   1.883   0.000  -2.510  -0.000   0.000
   28   12   13   15        3       0.628   1.883   0.000  -2.510  -0.000   0.000
   30   14   13   12        3       0.628   1.883   0.000  -2.510  -0.000   0.000
   33   15   13   12        3       0.628   1.883   0.000  -2.510  -0.000   0.000
   36   16   13   12        3       0.628   1.883   0.000  -2.510  -0.000   0.000
   29   12   13   14        3       0.628   1.883   0.000  -2.510  -0.000   0.000
   33   15   13   16        3       0.628   1.883   0.000  -2.510  -0.000   0.000
   23    7   10   11        3       0.628   1.883   0.000  -2.510  -0.000   0.000
   29   12   11    3        3       0.628   1.883   0.000  -2.510  -0.000   0.000
   26   10   11   12        3       0.628   1.883   0.000  -2.510  -0.000   0.000
   19    1    2    3        3       0.628   1.883   0.000  -2.510  -0.000   0.000
   28   12   11   10        3       0.628   1.883   0.000  -2.510  -0.000   0.000
   26   10   11    3        3       0.628   1.883   0.000  -2.510  -0.000   0.000
   30   14   13   16        3       0.628   1.883   0.000  -2.510  -0.000   0.000
   17    1    2    3        3       0.628   1.883   0.000  -2.510  -0.000   0.000
   37   16   13   14        3       0.628   1.883   0.000  -2.510  -0.000   0.000
   35   15   13   16        3       0.628   1.883   0.000  -2.510  -0.000   0.000
   34   15   13   14        3       0.628   1.883   0.000  -2.510  -0.000   0.000
   28   12   13   16        3       0.628   1.883   0.000  -2.510  -0.000   0.000
   29   12   13   15        3       0.628   1.883   0.000  -2.510  -0.000   0.000
   29   12   11   10        3       0.628   1.883   0.000  -2.510  -0.000   0.000
   34   15   13   12        3       0.628   1.883   0.000  -2.510  -0.000   0.000
   32   14   13   16        3       0.628   1.883   0.000  -2.510  -0.000   0.000
   25   10    7   23        3       0.628   1.883   0.000  -2.510  -0.000   0.000
   20    2    1   18        3       0.628   1.883   0.000  -2.510  -0.000   0.000
   20    2    1   19        3       0.628   1.883   0.000  -2.510  -0.000   0.000
   29   12   11   27        3       0.628   1.883   0.000  -2.510  -0.000   0.000
   21    2    1   17        3       0.628   1.883   0.000  -2.510  -0.000   0.000
   28   12   11   27        3       0.628   1.883   0.000  -2.510  -0.000   0.000
   21    2    1   19        3       0.628   1.883   0.000  -2.510  -0.000   0.000
   27   11   10   26        3       0.628   1.883   0.000  -2.510  -0.000   0.000
   21    2    1   18        3       0.628   1.883   0.000  -2.510  -0.000   0.000
   26   10    7   23        3       0.628   1.883   0.000  -2.510  -0.000   0.000
   27   11   10   25        3       0.628   1.883   0.000  -2.510  -0.000   0.000
   20    2    1   17        3       0.628   1.883   0.000  -2.510  -0.000   0.000
   20    2    3    6        3       0.979   2.937   0.000  -3.916  -0.000   0.000
   26   10    7    6        3       0.979   2.937   0.000  -3.916  -0.000   0.000
   25   10    7    6        3       0.979   2.937   0.000  -3.916  -0.000   0.000
   27   11    3    6        3       0.979   2.937   0.000  -3.916  -0.000   0.000
   21    2    3    6        3       0.979   2.937   0.000  -3.916  -0.000   0.000
   23    7    6    3        3       1.590   4.770   0.000  -6.360  -0.000   0.000
    5    4    3    2        3       0.000   0.000   0.000  -0.000  -0.000   0.000
    9    8    7    6        3       0.000   0.000   0.000  -0.000  -0.000   0.000
    6    3    4    5        3       0.000   0.000   0.000  -0.000  -0.000   0.000
    6    3    2    1        3       2.874   0.582   2.092  -5.548  -0.000   0.000

[ pairs ]
     1     4    1
     2     5    1
     1     6    1
     2     7    1
     5     6    1
     4     7    1
     3     8    1
     2    10    1
     1    11    1
     4    10    1
     2    12    1
     6     9    1
     5    11    1
     4    12    1
     3    13    1
     6    12    1
     9    10    1
     8    11    1
     7    12    1
     3    17    1
     3    18    1
     3    19    1
    10    13    1
     4    20    1
     2    22    1
    11    14    1
     4    21    1
    11    15    1
     6    20    1
     3    23    1
    11    16    1
     6    21    1
     6    22    1
     3    25    1
     3    26    1
     2    27    1
     6    24    1
    11    20    1
     6    25    1
     4    27    1
     3    28    1
    11    21    1
     9    23    1
     6    26    1
     3    29    1
    11    22    1
     8    25    1
     6    27    1
    11    23    1
    10    24    1
     8    26    1
     7    27    1
    17    20    1
    12    25    1
    18    20    1
    17    21    1
    12    26    1
    10    28    1
    19    20    1
    18    21    1
    10    29    1
    19    21    1
    13    27    1
    14    28    1
    12    30    1
    15    28    1
    14    29    1
    12    31    1
    16    28    1
    15    29    1
    12    32    1
    16    29    1
    15    30    1
    12    33    1
    16    30    1
    15    31    1
    12    34    1
    23    24    1
    16    31    1
    15    32    1
    14    33    1
    12    35    1
    23    25    1
    16    32    1
    14    34    1
    12    36    1
    23    26    1
    16    33    1
    14    35    1
    12    37    1
    16    34    1
    14    36    1
    12    38    1
    16    35    1
    15    36    1
    14    37    1
    25    27    1
    15    37    1
    14    38    1
    26    27    1
    15    38    1
    27    28    1
    27    29    1

