LIGPARGEN GENERATED GRO FILE
   38
    1UNK    C00    1   0.100   0.100   0.000
    1UNK    C01    2  -0.053   0.100   0.000
    1UNK    C02    3  -0.121   0.100   0.139
    1UNK    C03    4  -0.271   0.084   0.110
    1UNK    O04    5  -0.346   0.175   0.079
    1UNK    O05    6  -0.078  -0.020   0.207
    1UNK    C06    7  -0.086   0.001   0.347
    1UNK    C07    8  -0.217  -0.044   0.411
    1UNK    O08    9  -0.309  -0.100   0.352
    1UNK    C09   10  -0.066   0.149   0.370
    1UNK    C0A   11  -0.082   0.217   0.234
    1UNK    C0B   12  -0.173   0.341   0.238
    1UNK    C0C   13  -0.127   0.466   0.320
    1UNK    C0D   14   0.006   0.522   0.267
    1UNK    C0E   15  -0.235   0.576   0.306
    1UNK    C0F   16  -0.112   0.439   0.471
    1UNK    H0G   17   0.137   0.093  -0.103
    1UNK    H0H   18   0.140   0.015   0.055
    1UNK    H0I   19   0.141   0.192   0.043
    1UNK    H0J   20  -0.083   0.008  -0.053
    1UNK    H0K   21  -0.088   0.184  -0.060
    1UNK    H0M   22  -0.307  -0.021   0.108
    1UNK    H0N   23  -0.007  -0.058   0.395
    1UNK    H0O   24  -0.226  -0.022   0.520
    1UNK    H0P   25   0.035   0.167   0.408
    1UNK    H0Q   26  -0.136   0.185   0.445
    1UNK    H0R   27   0.018   0.251   0.205
    1UNK    H0S   28  -0.272   0.311   0.275
    1UNK    H0T   29  -0.188   0.374   0.134
    1UNK    H0U   30  -0.002   0.546   0.160
    1UNK    H0V   31   0.088   0.451   0.280
    1UNK    H0W   32   0.034   0.614   0.320
    1UNK    H0X   33  -0.254   0.601   0.201
    1UNK    H0Y   34  -0.205   0.668   0.358
    1UNK    H0Z   35  -0.330   0.543   0.350
    1UNK    H10   36  -0.025   0.376   0.493
    1UNK    H11   37  -0.201   0.390   0.512
    1UNK    H12   38  -0.097   0.532   0.527
   1.00000   1.00000   1.00000

