LIGPARGEN GENERATED GRO FILE
   41
    1UNK    C00    1   0.100   0.100   0.000
    1UNK    C01    2  -0.052   0.100   0.000
    1UNK    C02    3  -0.105   0.100   0.143
    1UNK    C03    4  -0.259   0.100   0.151
    1UNK    C04    5  -0.317   0.100   0.296
    1UNK    C05    6  -0.269  -0.025   0.371
    1UNK    C06    7  -0.269   0.226   0.371
    1UNK    C07    8  -0.474   0.100   0.286
    1UNK    C08    9  -0.544   0.100   0.423
    1UNK    C09   10  -0.697   0.100   0.414
    1UNK    C0A   11  -0.762   0.101   0.554
    1UNK    C0B   12  -0.725   0.225   0.636
    1UNK    C0C   13  -0.914   0.091   0.543
    1UNK    H0D   14   0.139   0.100  -0.102
    1UNK    H0E   15   0.139   0.011   0.051
    1UNK    H0F   16   0.139   0.189   0.051
    1UNK    H0G   17  -0.089   0.012  -0.054
    1UNK    H0H   18  -0.089   0.189  -0.054
    1UNK    H0I   19  -0.065   0.188   0.194
    1UNK    H0J   20  -0.065   0.012   0.194
    1UNK    H0K   21  -0.296   0.012   0.097
    1UNK    H0M   22  -0.296   0.188   0.097
    1UNK    H0N   23  -0.161  -0.029   0.380
    1UNK    H0O   24  -0.302  -0.117   0.321
    1UNK    H0P   25  -0.308  -0.028   0.474
    1UNK    H0Q   26  -0.160   0.229   0.380
    1UNK    H0R   27  -0.306   0.229   0.474
    1UNK    H0S   28  -0.302   0.318   0.320
    1UNK    H0T   29  -0.506   0.012   0.229
    1UNK    H0U   30  -0.506   0.188   0.229
    1UNK    H0V   31  -0.513   0.190   0.478
    1UNK    H0W   32  -0.514   0.013   0.481
    1UNK    H0X   33  -0.730   0.011   0.359
    1UNK    H0Y   34  -0.731   0.188   0.357
    1UNK    H0Z   35  -0.727   0.012   0.609
    1UNK    H10   36  -0.748   0.317   0.581
    1UNK    H11   37  -0.618   0.226   0.661
    1UNK    H12   38  -0.780   0.227   0.731
    1UNK    H13   39  -0.956   0.177   0.489
    1UNK    H14   40  -0.960   0.087   0.642
    1UNK    H15   41  -0.943  -0.001   0.490
   1.00000   1.00000   1.00000

