LIGPARGEN GENERATED GRO FILE
   42
    1UNK    C00    1   0.100   0.100   0.000
    1UNK    C01    2  -0.053   0.100   0.000
    1UNK    C02    3  -0.124   0.100   0.140
    1UNK    C03    4  -0.073  -0.024   0.212
    1UNK    N04    5  -0.030  -0.127   0.271
    1UNK    C05    6  -0.078   0.218   0.232
    1UNK    C06    7  -0.127   0.357   0.192
    1UNK    C07    8  -0.279   0.364   0.173
    1UNK    C08    9  -0.360   0.365   0.305
    1UNK    C09   10  -0.332   0.479   0.405
    1UNK    C0A   11  -0.364   0.619   0.351
    1UNK    C0B   12  -0.415   0.455   0.533
    1UNK    C0C   13  -0.319   0.251   0.075
    1UNK    C0D   14  -0.460   0.268   0.023
    1UNK    O0E   15  -0.537   0.176   0.001
    1UNK    C0F   16  -0.278   0.105   0.116
    1UNK    C0G   17  -0.359   0.044   0.231
    1UNK    H0H   18   0.136   0.087  -0.102
    1UNK    H0I   19   0.142   0.019   0.060
    1UNK    H0J   20   0.140   0.195   0.037
    1UNK    H0K   21  -0.085   0.010  -0.055
    1UNK    H0M   22  -0.084   0.185  -0.061
    1UNK    H0N   23   0.032   0.220   0.238
    1UNK    H0O   24  -0.111   0.199   0.335
    1UNK    H0P   25  -0.077   0.386   0.098
    1UNK    H0Q   26  -0.093   0.430   0.266
    1UNK    H0R   27  -0.300   0.459   0.123
    1UNK    H0S   28  -0.340   0.273   0.360
    1UNK    H0T   29  -0.467   0.364   0.281
    1UNK    H0U   30  -0.227   0.476   0.433
    1UNK    H0V   31  -0.471   0.641   0.357
    1UNK    H0W   32  -0.332   0.632   0.248
    1UNK    H0X   33  -0.312   0.694   0.411
    1UNK    H0Y   34  -0.522   0.455   0.511
    1UNK    H0Z   35  -0.395   0.532   0.608
    1UNK    H10   36  -0.390   0.358   0.577
    1UNK    H11   37  -0.262   0.273  -0.017
    1UNK    H12   38  -0.487   0.371  -0.006
    1UNK    H13   39  -0.301   0.041   0.030
    1UNK    H14   40  -0.328   0.080   0.329
    1UNK    H15   41  -0.346  -0.064   0.232
    1UNK    H16   42  -0.467   0.063   0.220
   1.00000   1.00000   1.00000

