LIGPARGEN GENERATED GRO FILE
   35
    1UNK    C00    1   0.100   0.100   0.000
    1UNK    C01    2  -0.052   0.100   0.000
    1UNK    C02    3  -0.119   0.100   0.141
    1UNK    C03    4  -0.074   0.223   0.223
    1UNK    C04    5  -0.137   0.351   0.170
    1UNK    O05    6  -0.279   0.340   0.166
    1UNK    C06    7  -0.325   0.233   0.082
    1UNK    C07    8  -0.276   0.096   0.136
    1UNK    C08    9  -0.327  -0.014   0.040
    1UNK    C09   10  -0.341   0.076   0.278
    1UNK    O0A   11  -0.484   0.073   0.266
    1UNK    C0B   12  -0.534  -0.014   0.358
    1UNK    O0C   13  -0.652  -0.028   0.383
    1UNK    O0D   14  -0.433  -0.084   0.417
    1UNK    C0E   15  -0.312  -0.053   0.350
    1UNK    C0F   16  -0.208  -0.035   0.458
    1UNK    O0G   17  -0.090  -0.062   0.442
    1UNK    H0H   18   0.137   0.095  -0.103
    1UNK    H0I   19   0.139   0.013   0.054
    1UNK    H0J   20   0.141   0.191   0.044
    1UNK    H0K   21  -0.083   0.010  -0.055
    1UNK    H0M   22  -0.086   0.186  -0.059
    1UNK    H0N   23  -0.083   0.010   0.192
    1UNK    H0O   24   0.035   0.233   0.226
    1UNK    H0P   25  -0.105   0.209   0.327
    1UNK    H0Q   26  -0.099   0.377   0.070
    1UNK    H0R   27  -0.112   0.434   0.236
    1UNK    H0S   28  -0.291   0.252  -0.021
    1UNK    H0T   29  -0.434   0.238   0.080
    1UNK    H0U   30  -0.299   0.007  -0.065
    1UNK    H0V   31  -0.436  -0.023   0.041
    1UNK    H0W   32  -0.285  -0.112   0.066
    1UNK    H0X   33  -0.319   0.162   0.341
    1UNK    H0Y   34  -0.286  -0.137   0.287
    1UNK    H0Z   35  -0.243   0.014   0.551
   1.00000   1.00000   1.00000

