
;
; GENERATED BY LigParGen Server
; Jorgensen Lab @ Yale University 
;
[ atomtypes ]
  opls_818  H818     1.0080     0.000    A    2.50000E-01   1.25520E-01
  opls_814  C814    12.0110     0.000    A    3.50000E-01   2.76144E-01
  opls_824  H824     1.0080     0.000    A    2.50000E-01   1.25520E-01
  opls_816  O816    15.9990     0.000    A    2.96000E-01   8.78640E-01
  opls_834  H834     1.0080     0.000    A    2.50000E-01   1.25520E-01
  opls_828  H828     1.0080     0.000    A    2.50000E-01   1.25520E-01
  opls_802  C802    12.0110     0.000    A    3.50000E-01   2.76144E-01
  opls_827  H827     1.0080     0.000    A    2.50000E-01   1.25520E-01
  opls_809  C809    12.0110     0.000    A    3.50000E-01   2.76144E-01
  opls_822  H822     1.0080     0.000    A    2.50000E-01   1.25520E-01
  opls_803  C803    12.0110     0.000    A    3.50000E-01   2.76144E-01
  opls_825  H825     1.0080     0.000    A    2.50000E-01   1.25520E-01
  opls_830  H830     1.0080     0.000    A    2.50000E-01   1.25520E-01
  opls_821  H821     1.0080     0.000    A    2.50000E-01   1.25520E-01
  opls_820  H820     1.0080     0.000    A    2.50000E-01   1.25520E-01
  opls_829  H829     1.0080     0.000    A    2.50000E-01   1.25520E-01
  opls_831  H831     1.0080     0.000    A    2.50000E-01   1.25520E-01
  opls_812  O812    15.9990     0.000    A    2.96000E-01   8.78640E-01
  opls_832  H832     1.0080     0.000    A    2.50000E-01   1.25520E-01
  opls_800  C800    12.0110     0.000    A    3.50000E-01   2.76144E-01
  opls_810  O810    15.9990     0.000    A    2.90000E-01   5.85760E-01
  opls_806  C806    12.0110     0.000    A    3.50000E-01   2.76144E-01
  opls_811  C811    12.0110     0.000    A    3.55000E-01   2.92880E-01
  opls_823  H823     1.0080     0.000    A    2.50000E-01   1.25520E-01
  opls_813  O813    15.9990     0.000    A    2.90000E-01   5.85760E-01
  opls_805  O805    15.9990     0.000    A    2.90000E-01   5.85760E-01
  opls_815  C815    12.0110     0.000    A    3.55000E-01   2.92880E-01
  opls_826  H826     1.0080     0.000    A    2.50000E-01   1.25520E-01
  opls_819  H819     1.0080     0.000    A    2.50000E-01   1.25520E-01
  opls_804  C804    12.0110     0.000    A    3.50000E-01   2.76144E-01
  opls_833  H833     1.0080     0.000    A    2.50000E-01   1.25520E-01
  opls_801  C801    12.0110     0.000    A    3.50000E-01   2.76144E-01
  opls_808  C808    12.0110     0.000    A    3.50000E-01   2.76144E-01
  opls_817  H817     1.0080     0.000    A    2.50000E-01   1.25520E-01
  opls_807  C807    12.0110     0.000    A    3.50000E-01   2.76144E-01
[ moleculetype ]
; Name               nrexcl
UNK                   3
[ atoms ]
;   nr       type  resnr residue  atom   cgnr     charge       mass  
     1   opls_800      1    UNK   C00      1    -0.2391    12.0110 
     2   opls_801      1    UNK   C01      1    -0.1732    12.0110 
     3   opls_802      1    UNK   C02      1    -0.1047    12.0110 
     4   opls_803      1    UNK   C03      1    -0.2159    12.0110 
     5   opls_804      1    UNK   C04      1     0.0025    12.0110 
     6   opls_805      1    UNK   O05      1    -0.3764    15.9990 
     7   opls_806      1    UNK   C06      1     0.0093    12.0110 
     8   opls_807      1    UNK   C07      1    -0.0699    12.0110 
     9   opls_808      1    UNK   C08      1    -0.2416    12.0110 
    10   opls_809      1    UNK   C09      1      0.054    12.0110 
    11   opls_810      1    UNK   O0A      1    -0.3261    15.9990 
    12   opls_811      1    UNK   C0B      1     0.5652    12.0110 
    13   opls_812      1    UNK   O0C      1    -0.3673    15.9990 
    14   opls_813      1    UNK   O0D      1    -0.3283    15.9990 
    15   opls_814      1    UNK   C0E      1    -0.0492    12.0110 
    16   opls_815      1    UNK   C0F      1     0.3199    12.0110 
    17   opls_816      1    UNK   O0G      1    -0.4123    15.9990 
    18   opls_817      1    UNK   H0H      1     0.0861     1.0080 
    19   opls_818      1    UNK   H0I      1     0.0861     1.0080 
    20   opls_819      1    UNK   H0J      1     0.0861     1.0080 
    21   opls_820      1    UNK   H0K      1     0.0906     1.0080 
    22   opls_821      1    UNK   H0M      1     0.0906     1.0080 
    23   opls_822      1    UNK   H0N      1     0.1163     1.0080 
    24   opls_823      1    UNK   H0O      1     0.1036     1.0080 
    25   opls_824      1    UNK   H0P      1     0.1036     1.0080 
    26   opls_825      1    UNK   H0Q      1     0.1028     1.0080 
    27   opls_826      1    UNK   H0R      1     0.1028     1.0080 
    28   opls_827      1    UNK   H0S      1     0.1156     1.0080 
    29   opls_828      1    UNK   H0T      1     0.1156     1.0080 
    30   opls_829      1    UNK   H0U      1      0.097     1.0080 
    31   opls_830      1    UNK   H0V      1      0.097     1.0080 
    32   opls_831      1    UNK   H0W      1      0.097     1.0080 
    33   opls_832      1    UNK   H0X      2     0.1504     1.0080 
    34   opls_833      1    UNK   H0Y      2     0.1696     1.0080 
    35   opls_834      1    UNK   H0Z      2     0.1426     1.0080 
[ bonds ]
    2     1     1      0.1529 224262.400
    3     2     1      0.1529 224262.400
    4     3     1      0.1529 224262.400
    5     4     1      0.1529 224262.400
    6     5     1      0.1410 267776.000
    7     6     1      0.1410 267776.000
    8     3     1      0.1529 224262.400
    9     8     1      0.1529 224262.400
   10     8     1      0.1529 224262.400
   11    10     1      0.1410 267776.000
   12    11     1      0.1327 179075.200
   13    12     1      0.1229 476976.000
   14    12     1      0.1327 179075.200
   15    10     1      0.1529 224262.400
   16    15     1      0.1522 265265.600
   17    16     1      0.1229 476976.000
   18     1     1      0.1090 284512.000
   19     1     1      0.1090 284512.000
   20     1     1      0.1090 284512.000
   21     2     1      0.1090 284512.000
   22     2     1      0.1090 284512.000
   23     3     1      0.1090 284512.000
   24     4     1      0.1090 284512.000
   25     4     1      0.1090 284512.000
   26     5     1      0.1090 284512.000
   27     5     1      0.1090 284512.000
   28     7     1      0.1090 284512.000
   29     7     1      0.1090 284512.000
   30     9     1      0.1090 284512.000
   31     9     1      0.1090 284512.000
   32     9     1      0.1090 284512.000
   33    10     1      0.1090 284512.000
   34    15     1      0.1090 284512.000
   35    16     1      0.1090 284512.000
    8     7     1      0.1529 224262.400
   15    14     1      0.1410 267776.000

[ angles ]
;  ai    aj    ak funct            c0            c1            c2            c3 
    1     2     3     1    112.700    488.273
    2     3     4     1    112.700    488.273
    3     4     5     1    112.700    488.273
    4     5     6     1    109.500    418.400
    5     6     7     1    109.500    502.080
    2     3     8     1    112.700    488.273
    3     8     9     1    112.700    488.273
    3     8    10     1    112.700    488.273
    8    10    11     1    109.500    418.400
   10    11    12     1    116.900    694.544
   11    12    13     1    123.400    694.544
   11    12    14     1    118.180    584.923
    8    10    15     1    112.700    488.273
   10    15    16     1    111.100    527.184
   15    16    17     1    120.400    669.440
    2     1    18     1    110.700    313.800
    2     1    19     1    110.700    313.800
    2     1    20     1    110.700    313.800
    1     2    21     1    110.700    313.800
    1     2    22     1    110.700    313.800
    2     3    23     1    110.700    313.800
    3     4    24     1    110.700    313.800
    3     4    25     1    110.700    313.800
    4     5    26     1    110.700    313.800
    4     5    27     1    110.700    313.800
    6     7    28     1    109.500    292.880
    6     7    29     1    109.500    292.880
    8     9    30     1    110.700    313.800
    8     9    31     1    110.700    313.800
    8     9    32     1    110.700    313.800
    8    10    33     1    110.700    313.800
   10    15    34     1    110.700    313.800
   15    16    35     1    115.000    292.880
   11    10    33     1    109.500    292.880
   11    10    15     1    109.500    418.400
    3     8     7     1    112.700    488.273
    9     8    10     1    112.700    488.273
    3     2    21     1    110.700    313.800
   30     9    31     1    107.800    276.144
    5     4    24     1    110.700    313.800
   24     4    25     1    107.800    276.144
    6     7     8     1    109.500    418.400
   12    14    15     1    116.900    694.544
    4     3    23     1    110.700    313.800
    3     2    22     1    110.700    313.800
   14    15    34     1    109.500    292.880
    6     5    27     1    109.500    292.880
    8     7    29     1    110.700    313.800
   18     1    19     1    107.800    276.144
    8     7    28     1    110.700    313.800
   10    15    14     1    109.500    418.400
   26     5    27     1    107.800    276.144
   28     7    29     1    107.800    276.144
   30     9    32     1    107.800    276.144
    7     8    10     1    112.700    488.273
    5     4    25     1    110.700    313.800
   13    12    14     1    123.400    694.544
    6     5    26     1    109.500    292.880
    8     3    23     1    110.700    313.800
   17    16    35     1    123.000    292.880
   18     1    20     1    107.800    276.144
   15    10    33     1    110.700    313.800
   31     9    32     1    107.800    276.144
   14    15    16     1    109.500    418.400
   21     2    22     1    107.800    276.144
   19     1    20     1    107.800    276.144
   16    15    34     1    109.500    292.880
    4     3     8     1    112.700    488.273
    7     8     9     1    112.700    488.273

[ dihedrals ]
; IMPROPER DIHEDRAL ANGLES 
;  ai    aj    ak    al funct            c0            c1            c2            c3            c4            c5
    35    16    15    17    4        180.000     43.932     2  
    14    12    11    13    4        180.000     43.932     2  

[ dihedrals ]
; PROPER DIHEDRAL ANGLES
;  ai    aj    ak    al funct            c0            c1            c2            c3            c4            c5
   16   15   10    8        3      -4.960   6.286   1.310  -2.636  -0.000   0.000
   16   15   10   11        3      -12.929  12.929   0.000  -0.000  -0.000   0.000
   16   15   14   12        3      -2.197   5.201   0.527  -3.531  -0.000   0.000
   12   11   10    8        3      -2.197   5.201   0.527  -3.531  -0.000   0.000
   12   14   15   10        3      -2.197   5.201   0.527  -3.531  -0.000   0.000
    4    3    2    1        3       2.301  -1.464   0.837  -1.674  -0.000   0.000
    7    8    3    4        3       2.301  -1.464   0.837  -1.674  -0.000   0.000
    9    8    3    2        3       2.301  -1.464   0.837  -1.674  -0.000   0.000
   15   10    8    7        3       2.301  -1.464   0.837  -1.674  -0.000   0.000
    9    8    3    4        3       2.301  -1.464   0.837  -1.674  -0.000   0.000
   15   10    8    9        3       2.301  -1.464   0.837  -1.674  -0.000   0.000
    7    8    3    2        3       2.301  -1.464   0.837  -1.674  -0.000   0.000
   15   10    8    3        3       2.301  -1.464   0.837  -1.674  -0.000   0.000
   10    8    3    2        3       2.301  -1.464   0.837  -1.674  -0.000   0.000
    8    3    4    5        3       2.301  -1.464   0.837  -1.674  -0.000   0.000
    5    4    3    2        3       2.301  -1.464   0.837  -1.674  -0.000   0.000
   10    8    3    4        3       2.301  -1.464   0.837  -1.674  -0.000   0.000
    8    3    2    1        3       2.301  -1.464   0.837  -1.674  -0.000   0.000
    9    8    7    6        3       2.874   0.582   2.092  -5.548  -0.000   0.000
   10    8    7    6        3       2.874   0.582   2.092  -5.548  -0.000   0.000
   15   10   11   12        3      -2.197   5.201   0.527  -3.531  -0.000   0.000
    8    7    6    5        3       1.715   2.845   1.046  -5.607  -0.000   0.000
   15   14   12   13        3      21.439   0.000  -21.439  -0.000  -0.000   0.000
   15   14   12   11        3      31.206  -9.768  -21.439  -0.000  -0.000   0.000
    7    6    5    4        3       1.715   2.845   1.046  -5.607  -0.000   0.000
   35   16   15   10        3       0.000   0.000   0.000  -0.000  -0.000   0.000
   35   16   15   34        3       0.753   2.259   0.000  -3.012  -0.000   0.000
   35   16   15   14        3       0.979   2.937   0.000  -3.916  -0.000   0.000
   34   15   16   17        3       0.000   0.000   0.000  -0.000  -0.000   0.000
   33   10   15   16        3      -0.209  -0.628   0.000   0.837  -0.000   0.000
   21    2    3    4        3       0.628   1.883   0.000  -2.510  -0.000   0.000
   33   10    8    7        3       0.628   1.883   0.000  -2.510  -0.000   0.000
   29    7    8   10        3       0.628   1.883   0.000  -2.510  -0.000   0.000
   33   10    8    9        3       0.628   1.883   0.000  -2.510  -0.000   0.000
   23    3    2    1        3       0.628   1.883   0.000  -2.510  -0.000   0.000
   32    9    8   10        3       0.628   1.883   0.000  -2.510  -0.000   0.000
   32    9    8    7        3       0.628   1.883   0.000  -2.510  -0.000   0.000
   29    7    8    3        3       0.628   1.883   0.000  -2.510  -0.000   0.000
   26    5    4    3        3       0.628   1.883   0.000  -2.510  -0.000   0.000
   23    3    8   10        3       0.628   1.883   0.000  -2.510  -0.000   0.000
   32    9    8    3        3       0.628   1.883   0.000  -2.510  -0.000   0.000
   29    7    8    9        3       0.628   1.883   0.000  -2.510  -0.000   0.000
   24    4    3    2        3       0.628   1.883   0.000  -2.510  -0.000   0.000
   31    9    8   10        3       0.628   1.883   0.000  -2.510  -0.000   0.000
   28    7    8   10        3       0.628   1.883   0.000  -2.510  -0.000   0.000
   30    9    8    7        3       0.628   1.883   0.000  -2.510  -0.000   0.000
   23    3    8    7        3       0.628   1.883   0.000  -2.510  -0.000   0.000
   25    4    3    8        3       0.628   1.883   0.000  -2.510  -0.000   0.000
   23    3    8    9        3       0.628   1.883   0.000  -2.510  -0.000   0.000
   24    4    3    8        3       0.628   1.883   0.000  -2.510  -0.000   0.000
   25    4    3    2        3       0.628   1.883   0.000  -2.510  -0.000   0.000
   33   10    8    3        3       0.628   1.883   0.000  -2.510  -0.000   0.000
   28    7    8    9        3       0.628   1.883   0.000  -2.510  -0.000   0.000
   19    1    2    3        3       0.628   1.883   0.000  -2.510  -0.000   0.000
   34   15   10    8        3       0.628   1.883   0.000  -2.510  -0.000   0.000
   20    1    2    3        3       0.628   1.883   0.000  -2.510  -0.000   0.000
   30    9    8   10        3       0.628   1.883   0.000  -2.510  -0.000   0.000
   22    2    3    8        3       0.628   1.883   0.000  -2.510  -0.000   0.000
   23    3    4    5        3       0.628   1.883   0.000  -2.510  -0.000   0.000
   28    7    8    3        3       0.628   1.883   0.000  -2.510  -0.000   0.000
   30    9    8    3        3       0.628   1.883   0.000  -2.510  -0.000   0.000
   21    2    3    8        3       0.628   1.883   0.000  -2.510  -0.000   0.000
   31    9    8    7        3       0.628   1.883   0.000  -2.510  -0.000   0.000
   27    5    4    3        3       0.628   1.883   0.000  -2.510  -0.000   0.000
   31    9    8    3        3       0.628   1.883   0.000  -2.510  -0.000   0.000
   22    2    3    4        3       0.628   1.883   0.000  -2.510  -0.000   0.000
   18    1    2    3        3       0.628   1.883   0.000  -2.510  -0.000   0.000
   22    2    1   18        3       0.628   1.883   0.000  -2.510  -0.000   0.000
   21    2    1   19        3       0.628   1.883   0.000  -2.510  -0.000   0.000
   25    4    3   23        3       0.628   1.883   0.000  -2.510  -0.000   0.000
   23    3    2   21        3       0.628   1.883   0.000  -2.510  -0.000   0.000
   26    5    4   25        3       0.628   1.883   0.000  -2.510  -0.000   0.000
   27    5    4   24        3       0.628   1.883   0.000  -2.510  -0.000   0.000
   24    4    3   23        3       0.628   1.883   0.000  -2.510  -0.000   0.000
   23    3    2   22        3       0.628   1.883   0.000  -2.510  -0.000   0.000
   26    5    4   24        3       0.628   1.883   0.000  -2.510  -0.000   0.000
   34   15   10   33        3       0.628   1.883   0.000  -2.510  -0.000   0.000
   22    2    1   19        3       0.628   1.883   0.000  -2.510  -0.000   0.000
   21    2    1   18        3       0.628   1.883   0.000  -2.510  -0.000   0.000
   22    2    1   20        3       0.628   1.883   0.000  -2.510  -0.000   0.000
   27    5    4   25        3       0.628   1.883   0.000  -2.510  -0.000   0.000
   21    2    1   20        3       0.628   1.883   0.000  -2.510  -0.000   0.000
   25    4    5    6        3       0.979   2.937   0.000  -3.916  -0.000   0.000
   34   15   10   11        3       0.979   2.937   0.000  -3.916  -0.000   0.000
   24    4    5    6        3       0.979   2.937   0.000  -3.916  -0.000   0.000
   33   10   15   14        3       0.979   2.937   0.000  -3.916  -0.000   0.000
   33   10   11   12        3       0.414   1.243   0.000  -1.657  -0.000   0.000
   34   15   14   12        3       0.414   1.243   0.000  -1.657  -0.000   0.000
   26    5    6    7        3       1.590   4.770   0.000  -6.360  -0.000   0.000
   27    5    6    7        3       1.590   4.770   0.000  -6.360  -0.000   0.000
   29    7    6    5        3       1.590   4.770   0.000  -6.360  -0.000   0.000
   28    7    6    5        3       1.590   4.770   0.000  -6.360  -0.000   0.000
   17   16   15   10        3       0.000   0.000   0.000  -0.000  -0.000   0.000
   17   16   15   14        3       0.000   0.000   0.000  -0.000  -0.000   0.000
   13   12   11   10        3      21.439   0.000  -21.439  -0.000  -0.000   0.000
   14   12   11   10        3      31.206  -9.768  -21.439  -0.000  -0.000   0.000
   11   10    8    3        3       2.874   0.582   2.092  -5.548  -0.000   0.000
    6    5    4    3        3       2.874   0.582   2.092  -5.548  -0.000   0.000
   14   15   10    8        3       2.874   0.582   2.092  -5.548  -0.000   0.000
    6    7    8    3        3       2.874   0.582   2.092  -5.548  -0.000   0.000
   11   10    8    7        3       2.874   0.582   2.092  -5.548  -0.000   0.000
   11   10    8    9        3       2.874   0.582   2.092  -5.548  -0.000   0.000
   14   15   10   11        3      -1.151   1.151   0.000  -0.000  -0.000   0.000

[ pairs ]
     1     4    1
     2     5    1
     3     6    1
     2     7    1
     1     8    1
     4     7    1
     2     9    1
     2    10    1
     5     8    1
     4     9    1
     4    10    1
     3    11    1
     6     9    1
     6    10    1
     7    11    1
     3    15    1
     9    11    1
     8    12    1
     3    18    1
     8    14    1
     7    15    1
     3    19    1
    10    13    1
     3    20    1
     9    15    1
     8    16    1
     1    23    1
     4    21    1
     4    22    1
     2    24    1
    11    16    1
    10    17    1
     2    25    1
    13    15    1
    12    16    1
     5    23    1
     8    21    1
     3    26    1
     8    22    1
     7    23    1
     6    24    1
     3    27    1
    14    17    1
     6    25    1
     3    28    1
     9    23    1
     8    24    1
     3    29    1
    10    23    1
     8    25    1
     7    26    1
     5    28    1
     3    30    1
     7    27    1
     5    29    1
     3    31    1
     3    32    1
     3    33    1
     9    28    1
     7    30    1
    10    28    1
     9    29    1
     7    31    1
    18    21    1
    10    29    1
     7    32    1
    19    21    1
    18    22    1
    10    30    1
     7    33    1
    20    21    1
    19    22    1
    10    31    1
    20    22    1
    10    32    1
     9    33    1
     8    34    1
    21    23    1
    22    23    1
    12    33    1
    11    34    1
    10    35    1
    12    34    1
    23    24    1
    14    33    1
    23    25    1
    16    33    1
    14    35    1
    24    26    1
    25    26    1
    24    27    1
    17    34    1
    25    27    1
    33    34    1
    34    35    1

