LIGPARGEN GENERATED GRO FILE
   48
    1UNK    C00    1   0.100   0.100   0.000
    1UNK    O01    2  -0.042   0.100   0.000
    1UNK    C02    3  -0.095   0.100   0.133
    1UNK    C03    4  -0.249   0.107   0.125
    1UNK    C04    5  -0.309  -0.011   0.048
    1UNK    C05    6  -0.306  -0.142   0.128
    1UNK    C06    7  -0.376  -0.129   0.265
    1UNK    C07    8  -0.530  -0.115   0.252
    1UNK    C08    9  -0.598  -0.236   0.186
    1UNK    C09   10  -0.748  -0.219   0.175
    1UNK    O0A   11  -0.810  -0.121   0.214
    1UNK    C0B   12  -0.310  -0.013   0.345
    1UNK    C0C   13  -0.369   0.013   0.485
    1UNK    C0D   14  -0.361  -0.106   0.582
    1UNK    C0E   15  -0.421  -0.074   0.720
    1UNK    C0F   16  -0.571  -0.044   0.711
    1UNK    C0G   17  -0.398  -0.191   0.816
    1UNK    C0H   18  -0.311   0.118   0.265
    1UNK    H0I   19   0.134   0.093  -0.104
    1UNK    H0J   20   0.139   0.014   0.055
    1UNK    H0K   21   0.138   0.193   0.043
    1UNK    H0M   22  -0.057   0.188   0.186
    1UNK    H0N   23  -0.061   0.010   0.185
    1UNK    H0O   24  -0.273   0.198   0.069
    1UNK    H0P   25  -0.257  -0.026  -0.048
    1UNK    H0Q   26  -0.413   0.013   0.022
    1UNK    H0R   27  -0.202  -0.172   0.144
    1UNK    H0S   28  -0.351  -0.222   0.068
    1UNK    H0T   29  -0.357  -0.223   0.319
    1UNK    H0U   30  -0.556  -0.025   0.196
    1UNK    H0V   31  -0.574  -0.104   0.351
    1UNK    H0W   32  -0.579  -0.326   0.245
    1UNK    H0X   33  -0.561  -0.252   0.084
    1UNK    H0Y   34  -0.801  -0.304   0.128
    1UNK    H0Z   35  -0.205  -0.040   0.360
    1UNK    H10   36  -0.473   0.046   0.475
    1UNK    H11   37  -0.315   0.097   0.531
    1UNK    H12   38  -0.255  -0.134   0.594
    1UNK    H13   39  -0.411  -0.194   0.539
    1UNK    H14   40  -0.371   0.014   0.761
    1UNK    H15   41  -0.625  -0.125   0.660
    1UNK    H16   42  -0.590   0.049   0.657
    1UNK    H17   43  -0.614  -0.032   0.811
    1UNK    H18   44  -0.446  -0.283   0.780
    1UNK    H19   45  -0.440  -0.168   0.915
    1UNK    H1A   46  -0.291  -0.210   0.829
    1UNK    H1B   47  -0.259   0.197   0.321
    1UNK    H1C   48  -0.415   0.153   0.254
   1.00000   1.00000   1.00000

