LIGPARGEN GENERATED GRO FILE
   31
    1UNK    C00    1   0.100   0.100   0.000
    1UNK    C01    2  -0.052   0.100   0.000
    1UNK    C02    3  -0.108   0.100   0.142
    1UNK    C03    4  -0.261   0.100   0.142
    1UNK    C04    5  -0.317   0.100   0.284
    1UNK    C05    6  -0.470   0.100   0.282
    1UNK    C06    7  -0.527   0.100   0.425
    1UNK    C07    8  -0.681   0.100   0.428
    1UNK    C08    9  -0.742  -0.025   0.362
    1UNK    P09   10  -0.740   0.112   0.605
    1UNK    H0A   11   0.138   0.100  -0.103
    1UNK    H0B   12   0.139   0.011   0.051
    1UNK    H0C   13   0.139   0.189   0.051
    1UNK    H0D   14  -0.088   0.012  -0.054
    1UNK    H0E   15  -0.088   0.188  -0.054
    1UNK    H0F   16  -0.071   0.188   0.196
    1UNK    H0G   17  -0.071   0.012   0.196
    1UNK    H0H   18  -0.297   0.011   0.088
    1UNK    H0I   19  -0.297   0.188   0.088
    1UNK    H0J   20  -0.280   0.188   0.338
    1UNK    H0K   21  -0.280   0.012   0.338
    1UNK    H0M   22  -0.504   0.011   0.228
    1UNK    H0N   23  -0.506   0.188   0.228
    1UNK    H0O   24  -0.489   0.189   0.477
    1UNK    H0P   25  -0.488   0.013   0.479
    1UNK    H0Q   26  -0.718   0.189   0.376
    1UNK    H0R   27  -0.702  -0.117   0.405
    1UNK    H0S   28  -0.720  -0.026   0.254
    1UNK    H0T   29  -0.851  -0.026   0.372
    1UNK    H0U   30  -0.706  -0.020   0.644
    1UNK    H0V   31  -0.876   0.084   0.582
   1.00000   1.00000   1.00000

