LIGPARGEN GENERATED GRO FILE
   32
    1UNK    C00    1   0.100   0.100   0.000
    1UNK    C01    2  -0.054   0.100   0.000
    1UNK    C02    3  -0.098   0.100   0.149
    1UNK    C03    4  -0.105   0.232  -0.064
    1UNK    C04    5  -0.205   0.222  -0.180
    1UNK    C05    6  -0.137   0.225  -0.317
    1UNK    C06    7  -0.064   0.097  -0.355
    1UNK    C07    8  -0.141  -0.029  -0.317
    1UNK    C08    9  -0.208  -0.025  -0.178
    1UNK    C09   10  -0.294  -0.150  -0.169
    1UNK    N0A   11  -0.365  -0.254  -0.161
    1UNK    C0B   12  -0.294   0.099  -0.166
    1UNK    C0C   13  -0.103  -0.033  -0.064
    1UNK    H0D   14   0.140   0.189   0.051
    1UNK    H0E   15   0.139   0.099  -0.102
    1UNK    H0F   16   0.140   0.012   0.052
    1UNK    H0G   17  -0.060   0.188   0.202
    1UNK    H0H   18  -0.059   0.012   0.202
    1UNK    H0I   19  -0.207   0.100   0.158
    1UNK    H0J   20  -0.020   0.294  -0.095
    1UNK    H0K   21  -0.154   0.292   0.014
    1UNK    H0M   22  -0.269   0.311  -0.175
    1UNK    H0N   23  -0.067   0.310  -0.323
    1UNK    H0O   24  -0.214   0.246  -0.393
    1UNK    H0P   25   0.035   0.096  -0.308
    1UNK    H0Q   26  -0.046   0.097  -0.463
    1UNK    H0R   27  -0.073  -0.115  -0.325
    1UNK    H0S   28  -0.218  -0.046  -0.394
    1UNK    H0T   29  -0.347   0.101  -0.069
    1UNK    H0U   30  -0.371   0.100  -0.244
    1UNK    H0V   31  -0.017  -0.092  -0.100
    1UNK    H0W   32  -0.145  -0.095   0.016
   1.00000   1.00000   1.00000

