LIGPARGEN GENERATED GRO FILE
   35
    1UNK    C00    1   0.100   0.100   0.000
    1UNK    C01    2  -0.052   0.100   0.000
    1UNK    C02    3  -0.109   0.100   0.141
    1UNK    O03    4  -0.037   0.100   0.240
    1UNK    C04    5  -0.260   0.100   0.151
    1UNK    C05    6  -0.302   0.093   0.297
    1UNK    O06    7  -0.444   0.093   0.318
    1UNK    C07    8  -0.504  -0.028   0.294
    1UNK    O08    9  -0.486  -0.096   0.194
    1UNK    C09   10  -0.582  -0.072   0.416
    1UNK    C0A   11  -0.729  -0.029   0.409
    1UNK    C0B   12  -0.749   0.122   0.403
    1UNK    C0C   13  -0.572  -0.226   0.431
    1UNK    C0D   14  -0.429  -0.281   0.443
    1UNK    C0E   15  -0.362  -0.233   0.564
    1UNK    N0F   16  -0.309  -0.194   0.660
    1UNK    H0G   17   0.138   0.100  -0.102
    1UNK    H0H   18   0.139   0.011   0.051
    1UNK    H0I   19   0.139   0.188   0.051
    1UNK    H0J   20  -0.088   0.011  -0.052
    1UNK    H0K   21  -0.089   0.189  -0.052
    1UNK    H0M   22  -0.297   0.014   0.095
    1UNK    H0N   23  -0.300   0.190   0.104
    1UNK    H0O   24  -0.264   0.181   0.350
    1UNK    H0P   25  -0.259   0.006   0.347
    1UNK    H0Q   26  -0.537  -0.027   0.505
    1UNK    H0R   27  -0.782  -0.067   0.497
    1UNK    H0S   28  -0.778  -0.075   0.321
    1UNK    H0T   29  -0.694   0.172   0.484
    1UNK    H0U   30  -0.855   0.146   0.413
    1UNK    H0V   31  -0.714   0.162   0.307
    1UNK    H0W   32  -0.619  -0.274   0.343
    1UNK    H0X   33  -0.630  -0.258   0.518
    1UNK    H0Y   34  -0.369  -0.256   0.355
    1UNK    H0Z   35  -0.434  -0.391   0.446
   1.00000   1.00000   1.00000

