LIGPARGEN GENERATED GRO FILE
   47
    1UNK    C00    1   0.100   0.100   0.000
    1UNK    C01    2  -0.052   0.100   0.000
    1UNK    C02    3  -0.104   0.100   0.144
    1UNK    C03    4  -0.257   0.100   0.152
    1UNK    C04    5  -0.315   0.100   0.297
    1UNK    C05    6  -0.468   0.100   0.284
    1UNK    C06    7  -0.281  -0.035   0.364
    1UNK    C07    8  -0.254   0.218   0.383
    1UNK    C08    9  -0.259   0.362   0.327
    1UNK    C09   10  -0.377   0.454   0.369
    1UNK    C0A   11  -0.509   0.413   0.302
    1UNK    C0B   12  -0.348   0.602   0.328
    1UNK    C0C   13  -0.328   0.626   0.178
    1UNK    C0D   14  -0.391   0.448   0.522
    1UNK    C0E   15  -0.401   0.307   0.580
    1UNK    C0F   16  -0.290   0.218   0.531
    1UNK    O0G   17  -0.233   0.141   0.610
    1UNK    H0H   18   0.139   0.100  -0.102
    1UNK    H0I   19   0.139   0.011   0.051
    1UNK    H0J   20   0.139   0.189   0.051
    1UNK    H0K   21  -0.089   0.012  -0.054
    1UNK    H0M   22  -0.089   0.189  -0.053
    1UNK    H0N   23  -0.063   0.189   0.193
    1UNK    H0O   24  -0.064   0.012   0.196
    1UNK    H0P   25  -0.295   0.013   0.098
    1UNK    H0Q   26  -0.295   0.187   0.097
    1UNK    H0R   27  -0.505   0.003   0.247
    1UNK    H0S   28  -0.503   0.173   0.211
    1UNK    H0T   29  -0.518   0.117   0.380
    1UNK    H0U   30  -0.313  -0.120   0.302
    1UNK    H0V   31  -0.332  -0.046   0.461
    1UNK    H0W   32  -0.174  -0.047   0.382
    1UNK    H0X   33  -0.146   0.196   0.387
    1UNK    H0Y   34  -0.247   0.362   0.218
    1UNK    H0Z   35  -0.168   0.411   0.364
    1UNK    H10   36  -0.493   0.386   0.197
    1UNK    H11   37  -0.581   0.496   0.303
    1UNK    H12   38  -0.558   0.331   0.353
    1UNK    H13   39  -0.259   0.638   0.380
    1UNK    H14   40  -0.431   0.665   0.362
    1UNK    H15   41  -0.234   0.582   0.143
    1UNK    H16   42  -0.325   0.733   0.158
    1UNK    H17   43  -0.410   0.584   0.119
    1UNK    H18   44  -0.480   0.504   0.554
    1UNK    H19   45  -0.305   0.498   0.569
    1UNK    H1A   46  -0.496   0.259   0.556
    1UNK    H1B   47  -0.394   0.313   0.689
   1.00000   1.00000   1.00000

