LIGPARGEN GENERATED GRO FILE
   49
    1UNK    C00    1   0.100   0.100   0.000
    1UNK    C01    2  -0.052   0.100   0.000
    1UNK    C02    3  -0.118   0.100   0.141
    1UNK    C03    4  -0.087   0.236   0.206
    1UNK    O04    5  -0.261   0.096   0.121
    1UNK    C05    6  -0.329  -0.021   0.109
    1UNK    O06    7  -0.449  -0.022   0.085
    1UNK    O07    8  -0.257  -0.136   0.118
    1UNK    C08    9  -0.116  -0.146   0.151
    1UNK    C09   10  -0.091  -0.287   0.217
    1UNK    C0A   11  -0.152  -0.392   0.120
    1UNK    C0B   12   0.060  -0.319   0.249
    1UNK    C0C   13   0.114  -0.228   0.362
    1UNK    C0D   14   0.091  -0.464   0.297
    1UNK    N0E   15   0.074  -0.578   0.205
    1UNK    C0F   16   0.152  -0.564   0.082
    1UNK    C0G   17   0.111  -0.702   0.274
    1UNK    C0H   18  -0.077  -0.020   0.231
    1UNK    O0I   19  -0.148  -0.027   0.356
    1UNK    C0J   20  -0.107   0.064   0.457
    1UNK    H0K   21   0.137   0.100  -0.103
    1UNK    H0M   22   0.141   0.011   0.050
    1UNK    H0N   23   0.140   0.189   0.049
    1UNK    H0O   24  -0.089   0.016  -0.060
    1UNK    H0P   25  -0.087   0.188  -0.056
    1UNK    H0Q   26  -0.096   0.317   0.133
    1UNK    H0R   27   0.015   0.239   0.246
    1UNK    H0S   28  -0.158   0.262   0.285
    1UNK    H0T   29  -0.063  -0.150   0.055
    1UNK    H0U   30  -0.150  -0.294   0.309
    1UNK    H0V   31  -0.098  -0.394   0.025
    1UNK    H0W   32  -0.257  -0.371   0.097
    1UNK    H0X   33  -0.152  -0.492   0.163
    1UNK    H0Y   34   0.119  -0.299   0.159
    1UNK    H0Z   35   0.037  -0.204   0.435
    1UNK    H10   36   0.157  -0.136   0.321
    1UNK    H11   37   0.197  -0.274   0.417
    1UNK    H12   38   0.030  -0.482   0.387
    1UNK    H13   39   0.196  -0.466   0.331
    1UNK    H14   40   0.109  -0.488   0.017
    1UNK    H15   41   0.151  -0.658   0.025
    1UNK    H16   42   0.257  -0.538   0.102
    1UNK    H17   43   0.052  -0.714   0.366
    1UNK    H18   44   0.217  -0.704   0.302
    1UNK    H19   45   0.089  -0.789   0.211
    1UNK    H1A   46   0.030  -0.014   0.249
    1UNK    H1B   47  -0.111   0.012   0.553
    1UNK    H1C   48  -0.177   0.147   0.462
    1UNK    H1D   49  -0.005   0.100   0.443
   1.00000   1.00000   1.00000

