
;
; GENERATED BY LigParGen Server
; Jorgensen Lab @ Yale University 
;
[ atomtypes ]
  opls_814  N814    14.0070     0.000    A    3.30000E-01   7.11280E-01
  opls_824  H824     1.0080     0.000    A    2.50000E-01   1.25520E-01
  opls_815  C815    12.0110     0.000    A    3.50000E-01   2.76144E-01
  opls_843  H843     1.0080     0.000    A    2.50000E-01   1.25520E-01
  opls_836  H836     1.0080     0.000    A    2.50000E-01   1.25520E-01
  opls_834  H834     1.0080     0.000    A    2.50000E-01   1.25520E-01
  opls_810  C810    12.0110     0.000    A    3.50000E-01   2.76144E-01
  opls_828  H828     1.0080     0.000    A    2.50000E-01   1.25520E-01
  opls_812  C812    12.0110     0.000    A    3.50000E-01   2.76144E-01
  opls_811  C811    12.0110     0.000    A    3.50000E-01   2.76144E-01
  opls_827  H827     1.0080     0.000    A    2.50000E-01   1.25520E-01
  opls_809  C809    12.0110     0.000    A    3.50000E-01   2.76144E-01
  opls_838  H838     1.0080     0.000    A    2.50000E-01   1.25520E-01
  opls_822  H822     1.0080     0.000    A    2.50000E-01   1.25520E-01
  opls_803  C803    12.0110     0.000    A    3.50000E-01   2.76144E-01
  opls_830  H830     1.0080     0.000    A    2.50000E-01   1.25520E-01
  opls_821  H821     1.0080     0.000    A    2.50000E-01   1.25520E-01
  opls_842  H842     1.0080     0.000    A    2.50000E-01   1.25520E-01
  opls_820  H820     1.0080     0.000    A    2.50000E-01   1.25520E-01
  opls_837  H837     1.0080     0.000    A    2.50000E-01   1.25520E-01
  opls_829  H829     1.0080     0.000    A    2.50000E-01   1.25520E-01
  opls_831  H831     1.0080     0.000    A    2.50000E-01   1.25520E-01
  opls_805  C805    12.0110     0.000    A    3.55000E-01   2.92880E-01
  opls_832  H832     1.0080     0.000    A    2.50000E-01   1.25520E-01
  opls_800  C800    12.0110     0.000    A    3.50000E-01   2.76144E-01
  opls_846  H846     1.0080     0.000    A    2.50000E-01   1.25520E-01
  opls_848  H848     1.0080     0.000    A    2.50000E-01   1.25520E-01
  opls_802  C802    12.0110     0.000    A    3.50000E-01   2.76144E-01
  opls_823  H823     1.0080     0.000    A    2.50000E-01   1.25520E-01
  opls_819  C819    12.0110     0.000    A    3.50000E-01   2.76144E-01
  opls_826  H826     1.0080     0.000    A    2.50000E-01   1.25520E-01
  opls_835  H835     1.0080     0.000    A    2.50000E-01   1.25520E-01
  opls_841  H841     1.0080     0.000    A    2.50000E-01   1.25520E-01
  opls_847  H847     1.0080     0.000    A    2.50000E-01   1.25520E-01
  opls_825  H825     1.0080     0.000    A    2.50000E-01   1.25520E-01
  opls_816  C816    12.0110     0.000    A    3.50000E-01   2.76144E-01
  opls_833  H833     1.0080     0.000    A    2.50000E-01   1.25520E-01
  opls_839  H839     1.0080     0.000    A    2.50000E-01   1.25520E-01
  opls_817  C817    12.0110     0.000    A    3.50000E-01   2.76144E-01
  opls_801  C801    12.0110     0.000    A    3.50000E-01   2.76144E-01
  opls_808  C808    12.0110     0.000    A    3.50000E-01   2.76144E-01
  opls_806  O806    15.9990     0.000    A    2.96000E-01   8.78640E-01
  opls_840  H840     1.0080     0.000    A    2.50000E-01   1.25520E-01
  opls_804  O804    15.9990     0.000    A    2.90000E-01   5.85760E-01
  opls_813  C813    12.0110     0.000    A    3.50000E-01   2.76144E-01
  opls_807  O807    15.9990     0.000    A    2.90000E-01   5.85760E-01
  opls_844  H844     1.0080     0.000    A    2.50000E-01   1.25520E-01
  opls_845  H845     1.0080     0.000    A    2.50000E-01   1.25520E-01
  opls_818  O818    15.9990     0.000    A    2.90000E-01   5.85760E-01
[ moleculetype ]
; Name               nrexcl
UNK                   3
[ atoms ]
;   nr       type  resnr residue  atom   cgnr     charge       mass  
     1   opls_800      1    UNK   C00      1    -0.2386    12.0110 
     2   opls_801      1    UNK   C01      1    -0.2069    12.0110 
     3   opls_802      1    UNK   C02      1     0.1229    12.0110 
     4   opls_803      1    UNK   C03      1    -0.2416    12.0110 
     5   opls_804      1    UNK   O04      1    -0.3756    15.9990 
     6   opls_805      1    UNK   C05      1     0.6264    12.0110 
     7   opls_806      1    UNK   O06      1    -0.3945    15.9990 
     8   opls_807      1    UNK   O07      1     -0.392    15.9990 
     9   opls_808      1    UNK   C08      1     0.1116    12.0110 
    10   opls_809      1    UNK   C09      1    -0.0953    12.0110 
    11   opls_810      1    UNK   C0A      1    -0.2407    12.0110 
    12   opls_811      1    UNK   C0B      1    -0.0947    12.0110 
    13   opls_812      1    UNK   C0C      1    -0.2509    12.0110 
    14   opls_813      1    UNK   C0D      1     0.0215    12.0110 
    15   opls_814      1    UNK   N0E      1    -0.5809    14.0070 
    16   opls_815      1    UNK   C0F      1    -0.0503    12.0110 
    17   opls_816      1    UNK   C0G      1    -0.0513    12.0110 
    18   opls_817      1    UNK   C0H      1     0.0127    12.0110 
    19   opls_818      1    UNK   O0I      1    -0.3622    15.9990 
    20   opls_819      1    UNK   C0J      1    -0.0515    12.0110 
    21   opls_820      1    UNK   H0K      1     0.0873     1.0080 
    22   opls_821      1    UNK   H0M      1     0.0873     1.0080 
    23   opls_822      1    UNK   H0N      1     0.0873     1.0080 
    24   opls_823      1    UNK   H0O      1     0.1107     1.0080 
    25   opls_824      1    UNK   H0P      1     0.1107     1.0080 
    26   opls_825      1    UNK   H0Q      1      0.104     1.0080 
    27   opls_826      1    UNK   H0R      1      0.104     1.0080 
    28   opls_827      1    UNK   H0S      1      0.104     1.0080 
    29   opls_828      1    UNK   H0T      1     0.1191     1.0080 
    30   opls_829      1    UNK   H0U      1     0.1283     1.0080 
    31   opls_830      1    UNK   H0V      1     0.0978     1.0080 
    32   opls_831      1    UNK   H0W      1     0.0978     1.0080 
    33   opls_832      1    UNK   H0X      2     0.0978     1.0080 
    34   opls_833      1    UNK   H0Y      2     0.0916     1.0080 
    35   opls_834      1    UNK   H0Z      2     0.0855     1.0080 
    36   opls_835      1    UNK   H10      2     0.0855     1.0080 
    37   opls_836      1    UNK   H11      2     0.0855     1.0080 
    38   opls_837      1    UNK   H12      2     0.0828     1.0080 
    39   opls_838      1    UNK   H13      2     0.0828     1.0080 
    40   opls_839      1    UNK   H14      2     0.0814     1.0080 
    41   opls_840      1    UNK   H15      2     0.0814     1.0080 
    42   opls_841      1    UNK   H16      2     0.0814     1.0080 
    43   opls_842      1    UNK   H17      2     0.0833     1.0080 
    44   opls_843      1    UNK   H18      2     0.0833     1.0080 
    45   opls_844      1    UNK   H19      2     0.0833     1.0080 
    46   opls_845      1    UNK   H1A      2     0.1259     1.0080 
    47   opls_846      1    UNK   H1B      2     0.0873     1.0080 
    48   opls_847      1    UNK   H1C      2     0.0873     1.0080 
    49   opls_848      1    UNK   H1D      2     0.0873     1.0080 
[ bonds ]
    2     1     1      0.1529 224262.400
    3     2     1      0.1529 224262.400
    4     3     1      0.1529 224262.400
    5     3     1      0.1410 267776.000
    6     5     1      0.1327 179075.200
    7     6     1      0.1229 476976.000
    8     6     1      0.1327 179075.200
    9     8     1      0.1410 267776.000
   10     9     1      0.1529 224262.400
   11    10     1      0.1529 224262.400
   12    10     1      0.1529 224262.400
   13    12     1      0.1529 224262.400
   14    12     1      0.1529 224262.400
   15    14     1      0.1448 319657.600
   16    15     1      0.1448 319657.600
   17    15     1      0.1448 319657.600
   18     3     1      0.1529 224262.400
   19    18     1      0.1410 267776.000
   20    19     1      0.1410 267776.000
   21     1     1      0.1090 284512.000
   22     1     1      0.1090 284512.000
   23     1     1      0.1090 284512.000
   24     2     1      0.1090 284512.000
   25     2     1      0.1090 284512.000
   26     4     1      0.1090 284512.000
   27     4     1      0.1090 284512.000
   28     4     1      0.1090 284512.000
   29     9     1      0.1090 284512.000
   30    10     1      0.1090 284512.000
   31    11     1      0.1090 284512.000
   32    11     1      0.1090 284512.000
   33    11     1      0.1090 284512.000
   34    12     1      0.1090 284512.000
   35    13     1      0.1090 284512.000
   36    13     1      0.1090 284512.000
   37    13     1      0.1090 284512.000
   38    14     1      0.1090 284512.000
   39    14     1      0.1090 284512.000
   40    16     1      0.1090 284512.000
   41    16     1      0.1090 284512.000
   42    16     1      0.1090 284512.000
   43    17     1      0.1090 284512.000
   44    17     1      0.1090 284512.000
   45    17     1      0.1090 284512.000
   46    18     1      0.1090 284512.000
   47    20     1      0.1090 284512.000
   48    20     1      0.1090 284512.000
   49    20     1      0.1090 284512.000
   18     9     1      0.1529 224262.400

[ angles ]
;  ai    aj    ak funct            c0            c1            c2            c3 
    1     2     3     1    112.700    488.273
    2     3     4     1    112.700    488.273
    2     3     5     1    109.500    418.400
    3     5     6     1    116.900    694.544
    5     6     7     1    123.400    694.544
    5     6     8     1    118.180    584.923
    6     8     9     1    116.900    694.544
    8     9    10     1    109.500    418.400
    9    10    11     1    112.700    488.273
    9    10    12     1    112.700    488.273
   10    12    13     1    112.700    488.273
   10    12    14     1    112.700    488.273
   12    14    15     1    109.470    470.282
   14    15    16     1    107.200    433.462
   14    15    17     1    107.200    433.462
    2     3    18     1    112.700    488.273
    3    18    19     1    109.500    418.400
   18    19    20     1    109.500    502.080
    2     1    21     1    110.700    313.800
    2     1    22     1    110.700    313.800
    2     1    23     1    110.700    313.800
    1     2    24     1    110.700    313.800
    1     2    25     1    110.700    313.800
    3     4    26     1    110.700    313.800
    3     4    27     1    110.700    313.800
    3     4    28     1    110.700    313.800
    8     9    29     1    109.500    292.880
    9    10    30     1    110.700    313.800
   10    11    31     1    110.700    313.800
   10    11    32     1    110.700    313.800
   10    11    33     1    110.700    313.800
   10    12    34     1    110.700    313.800
   12    13    35     1    110.700    313.800
   12    13    36     1    110.700    313.800
   12    13    37     1    110.700    313.800
   12    14    38     1    110.700    313.800
   12    14    39     1    110.700    313.800
   15    16    40     1    109.500    292.880
   15    16    41     1    109.500    292.880
   15    16    42     1    109.500    292.880
   15    17    43     1    109.500    292.880
   15    17    44     1    109.500    292.880
   15    17    45     1    109.500    292.880
    3    18    46     1    110.700    313.800
   19    20    47     1    109.500    292.880
   19    20    48     1    109.500    292.880
   19    20    49     1    109.500    292.880
    9    18    46     1    110.700    313.800
   11    10    12     1    112.700    488.273
   31    11    32     1    107.800    276.144
   27     4    28     1    107.800    276.144
   26     4    27     1    107.800    276.144
   41    16    42     1    107.800    276.144
   43    17    45     1    107.800    276.144
    9    18    19     1    109.500    418.400
   44    17    45     1    107.800    276.144
   13    12    14     1    112.700    488.273
   16    15    17     1    107.200    433.462
   36    13    37     1    107.800    276.144
   11    10    30     1    110.700    313.800
   10     9    18     1    112.700    488.273
   21     1    23     1    107.800    276.144
    3     2    25     1    110.700    313.800
   10     9    29     1    110.700    313.800
   47    20    48     1    107.800    276.144
   13    12    34     1    110.700    313.800
   18     9    29     1    110.700    313.800
    4     3     5     1    109.500    418.400
   35    13    37     1    107.800    276.144
    8     9    18     1    109.500    418.400
   35    13    36     1    107.800    276.144
   38    14    39     1    107.800    276.144
   47    20    49     1    107.800    276.144
   43    17    44     1    107.800    276.144
   40    16    41     1    107.800    276.144
   48    20    49     1    107.800    276.144
   26     4    28     1    107.800    276.144
   24     2    25     1    107.800    276.144
   21     1    22     1    107.800    276.144
   32    11    33     1    107.800    276.144
    3    18     9     1    112.700    488.273
   14    12    34     1    110.700    313.800
   15    14    39     1    109.500    292.880
   12    10    30     1    110.700    313.800
   22     1    23     1    107.800    276.144
   40    16    42     1    107.800    276.144
    4     3    18     1    112.700    488.273
    5     3    18     1    109.500    418.400
    7     6     8     1    123.400    694.544
   19    18    46     1    109.500    292.880
   15    14    38     1    109.500    292.880
    3     2    24     1    110.700    313.800
   31    11    33     1    107.800    276.144

[ dihedrals ]
; IMPROPER DIHEDRAL ANGLES 
;  ai    aj    ak    al funct            c0            c1            c2            c3            c4            c5
     8     6     5     7    4        180.000     43.932     2  

[ dihedrals ]
; PROPER DIHEDRAL ANGLES
;  ai    aj    ak    al funct            c0            c1            c2            c3            c4            c5
    6    5    3    2        3      -2.197   5.201   0.527  -3.531  -0.000   0.000
    6    5    3    4        3      -2.197   5.201   0.527  -3.531  -0.000   0.000
    4    3    2    1        3       2.301  -1.464   0.837  -1.674  -0.000   0.000
   13   12   10   11        3       2.301  -1.464   0.837  -1.674  -0.000   0.000
   18    9   10   11        3       2.301  -1.464   0.837  -1.674  -0.000   0.000
   18    3    2    1        3       2.301  -1.464   0.837  -1.674  -0.000   0.000
    9   18    3    4        3       2.301  -1.464   0.837  -1.674  -0.000   0.000
   10    9   18    3        3       2.301  -1.464   0.837  -1.674  -0.000   0.000
   18    9   10   12        3       2.301  -1.464   0.837  -1.674  -0.000   0.000
    9   18    3    2        3       2.301  -1.464   0.837  -1.674  -0.000   0.000
   14   12   10    9        3       2.301  -1.464   0.837  -1.674  -0.000   0.000
   13   12   10    9        3       2.301  -1.464   0.837  -1.674  -0.000   0.000
   14   12   10   11        3       2.301  -1.464   0.837  -1.674  -0.000   0.000
    9   18    3    5        3       2.874   0.582   2.092  -5.548  -0.000   0.000
   11   10    9    8        3       2.874   0.582   2.092  -5.548  -0.000   0.000
   12   10    9    8        3       2.874   0.582   2.092  -5.548  -0.000   0.000
   18    9    8    6        3      -2.197   5.201   0.527  -3.531  -0.000   0.000
   18    3    5    6        3      -2.197   5.201   0.527  -3.531  -0.000   0.000
   10    9    8    6        3      -2.197   5.201   0.527  -3.531  -0.000   0.000
   16   15   14   12        3       1.789   3.492   0.536  -5.816  -0.000   0.000
   17   15   14   12        3       1.789   3.492   0.536  -5.816  -0.000   0.000
    9    8    6    7        3      21.439   0.000  -21.439  -0.000  -0.000   0.000
    9    8    6    5        3      31.206  -9.768  -21.439  -0.000  -0.000   0.000
   20   19   18    9        3       1.715   2.845   1.046  -5.607  -0.000   0.000
   20   19   18    3        3       1.715   2.845   1.046  -5.607  -0.000   0.000
   37   13   12   10        3       0.628   1.883   0.000  -2.510  -0.000   0.000
   46   18    3    4        3       0.628   1.883   0.000  -2.510  -0.000   0.000
   29    9   10   11        3       0.628   1.883   0.000  -2.510  -0.000   0.000
   38   14   12   10        3       0.628   1.883   0.000  -2.510  -0.000   0.000
   28    4    3   18        3       0.628   1.883   0.000  -2.510  -0.000   0.000
   32   11   10    9        3       0.628   1.883   0.000  -2.510  -0.000   0.000
   36   13   12   14        3       0.628   1.883   0.000  -2.510  -0.000   0.000
   39   14   12   10        3       0.628   1.883   0.000  -2.510  -0.000   0.000
   38   14   12   13        3       0.628   1.883   0.000  -2.510  -0.000   0.000
   34   12   10   11        3       0.628   1.883   0.000  -2.510  -0.000   0.000
   30   10   12   13        3       0.628   1.883   0.000  -2.510  -0.000   0.000
   25    2    3   18        3       0.628   1.883   0.000  -2.510  -0.000   0.000
   32   11   10   12        3       0.628   1.883   0.000  -2.510  -0.000   0.000
   35   13   12   14        3       0.628   1.883   0.000  -2.510  -0.000   0.000
   25    2    3    4        3       0.628   1.883   0.000  -2.510  -0.000   0.000
   37   13   12   14        3       0.628   1.883   0.000  -2.510  -0.000   0.000
   36   13   12   10        3       0.628   1.883   0.000  -2.510  -0.000   0.000
   33   11   10   12        3       0.628   1.883   0.000  -2.510  -0.000   0.000
   46   18    3    2        3       0.628   1.883   0.000  -2.510  -0.000   0.000
   33   11   10    9        3       0.628   1.883   0.000  -2.510  -0.000   0.000
   24    2    3    4        3       0.628   1.883   0.000  -2.510  -0.000   0.000
   22    1    2    3        3       0.628   1.883   0.000  -2.510  -0.000   0.000
   39   14   12   13        3       0.628   1.883   0.000  -2.510  -0.000   0.000
   30   10    9   18        3       0.628   1.883   0.000  -2.510  -0.000   0.000
   27    4    3    2        3       0.628   1.883   0.000  -2.510  -0.000   0.000
   29    9   10   12        3       0.628   1.883   0.000  -2.510  -0.000   0.000
   24    2    3   18        3       0.628   1.883   0.000  -2.510  -0.000   0.000
   29    9   18    3        3       0.628   1.883   0.000  -2.510  -0.000   0.000
   30   10   12   14        3       0.628   1.883   0.000  -2.510  -0.000   0.000
   23    1    2    3        3       0.628   1.883   0.000  -2.510  -0.000   0.000
   27    4    3   18        3       0.628   1.883   0.000  -2.510  -0.000   0.000
   31   11   10    9        3       0.628   1.883   0.000  -2.510  -0.000   0.000
   46   18    9   10        3       0.628   1.883   0.000  -2.510  -0.000   0.000
   26    4    3    2        3       0.628   1.883   0.000  -2.510  -0.000   0.000
   21    1    2    3        3       0.628   1.883   0.000  -2.510  -0.000   0.000
   28    4    3    2        3       0.628   1.883   0.000  -2.510  -0.000   0.000
   34   12   10    9        3       0.628   1.883   0.000  -2.510  -0.000   0.000
   35   13   12   10        3       0.628   1.883   0.000  -2.510  -0.000   0.000
   26    4    3   18        3       0.628   1.883   0.000  -2.510  -0.000   0.000
   31   11   10   12        3       0.628   1.883   0.000  -2.510  -0.000   0.000
   25    2    1   21        3       0.628   1.883   0.000  -2.510  -0.000   0.000
   24    2    1   23        3       0.628   1.883   0.000  -2.510  -0.000   0.000
   39   14   12   34        3       0.628   1.883   0.000  -2.510  -0.000   0.000
   30   10    9   29        3       0.628   1.883   0.000  -2.510  -0.000   0.000
   36   13   12   34        3       0.628   1.883   0.000  -2.510  -0.000   0.000
   24    2    1   22        3       0.628   1.883   0.000  -2.510  -0.000   0.000
   32   11   10   30        3       0.628   1.883   0.000  -2.510  -0.000   0.000
   25    2    1   22        3       0.628   1.883   0.000  -2.510  -0.000   0.000
   24    2    1   21        3       0.628   1.883   0.000  -2.510  -0.000   0.000
   33   11   10   30        3       0.628   1.883   0.000  -2.510  -0.000   0.000
   38   14   12   34        3       0.628   1.883   0.000  -2.510  -0.000   0.000
   46   18    9   29        3       0.628   1.883   0.000  -2.510  -0.000   0.000
   35   13   12   34        3       0.628   1.883   0.000  -2.510  -0.000   0.000
   25    2    1   23        3       0.628   1.883   0.000  -2.510  -0.000   0.000
   34   12   10   30        3       0.628   1.883   0.000  -2.510  -0.000   0.000
   37   13   12   34        3       0.628   1.883   0.000  -2.510  -0.000   0.000
   31   11   10   30        3       0.628   1.883   0.000  -2.510  -0.000   0.000
   34   12   14   15        3      -4.096   5.088   2.966  -3.958  -0.000   0.000
   24    2    3    5        3       0.979   2.937   0.000  -3.916  -0.000   0.000
   46   18    3    5        3       0.979   2.937   0.000  -3.916  -0.000   0.000
   27    4    3    5        3       0.979   2.937   0.000  -3.916  -0.000   0.000
   30   10    9    8        3       0.979   2.937   0.000  -3.916  -0.000   0.000
   28    4    3    5        3       0.979   2.937   0.000  -3.916  -0.000   0.000
   25    2    3    5        3       0.979   2.937   0.000  -3.916  -0.000   0.000
   26    4    3    5        3       0.979   2.937   0.000  -3.916  -0.000   0.000
   29    9   18   19        3       0.979   2.937   0.000  -3.916  -0.000   0.000
   46   18    9    8        3       0.979   2.937   0.000  -3.916  -0.000   0.000
   40   16   15   14        3       1.172   3.515   0.000  -4.686  -0.000   0.000
   38   14   15   16        3       1.172   3.515   0.000  -4.686  -0.000   0.000
   43   17   15   16        3       1.172   3.515   0.000  -4.686  -0.000   0.000
   41   16   15   17        3       1.172   3.515   0.000  -4.686  -0.000   0.000
   41   16   15   14        3       1.172   3.515   0.000  -4.686  -0.000   0.000
   44   17   15   16        3       1.172   3.515   0.000  -4.686  -0.000   0.000
   45   17   15   16        3       1.172   3.515   0.000  -4.686  -0.000   0.000
   39   14   15   16        3       1.172   3.515   0.000  -4.686  -0.000   0.000
   45   17   15   14        3       1.172   3.515   0.000  -4.686  -0.000   0.000
   40   16   15   17        3       1.172   3.515   0.000  -4.686  -0.000   0.000
   44   17   15   14        3       1.172   3.515   0.000  -4.686  -0.000   0.000
   42   16   15   17        3       1.172   3.515   0.000  -4.686  -0.000   0.000
   39   14   15   17        3       1.172   3.515   0.000  -4.686  -0.000   0.000
   38   14   15   17        3       1.172   3.515   0.000  -4.686  -0.000   0.000
   42   16   15   14        3       1.172   3.515   0.000  -4.686  -0.000   0.000
   43   17   15   14        3       1.172   3.515   0.000  -4.686  -0.000   0.000
   29    9    8    6        3       0.414   1.243   0.000  -1.657  -0.000   0.000
   49   20   19   18        3       1.590   4.770   0.000  -6.360  -0.000   0.000
   48   20   19   18        3       1.590   4.770   0.000  -6.360  -0.000   0.000
   47   20   19   18        3       1.590   4.770   0.000  -6.360  -0.000   0.000
   46   18   19   20        3       1.590   4.770   0.000  -6.360  -0.000   0.000
   15   14   12   10        3       3.335  -1.552   2.820  -4.602  -0.000   0.000
   15   14   12   13        3       3.335  -1.552   2.820  -4.602  -0.000   0.000
    7    6    5    3        3      21.439   0.000  -21.439  -0.000  -0.000   0.000
    8    6    5    3        3      31.206  -9.768  -21.439  -0.000  -0.000   0.000
   19   18    3    4        3       2.874   0.582   2.092  -5.548  -0.000   0.000
    5    3    2    1        3       2.874   0.582   2.092  -5.548  -0.000   0.000
   19   18    9   10        3       2.874   0.582   2.092  -5.548  -0.000   0.000
    8    9   18    3        3       2.874   0.582   2.092  -5.548  -0.000   0.000
   19   18    3    2        3       2.874   0.582   2.092  -5.548  -0.000   0.000
   19   18    3    5        3      -1.151   1.151   0.000  -0.000  -0.000   0.000
   19   18    9    8        3      -1.151   1.151   0.000  -0.000  -0.000   0.000

[ pairs ]
     1     4    1
     1     5    1
     2     6    1
     4     6    1
     3     7    1
     3     8    1
     2     9    1
     4     9    1
     3    10    1
     5     9    1
     7     9    1
     6    10    1
     8    11    1
     1    18    1
     8    12    1
     2    19    1
     9    13    1
     9    14    1
     4    19    1
     3    20    1
    11    13    1
     6    18    1
     5    19    1
     3    21    1
    11    14    1
    10    15    1
     3    22    1
     3    23    1
     8    19    1
    13    15    1
    12    16    1
     4    24    1
     2    26    1
    12    17    1
    11    18    1
    10    19    1
     9    20    1
     5    24    1
     4    25    1
     2    27    1
    12    18    1
     5    25    1
     2    28    1
     5    26    1
     5    27    1
     3    29    1
     5    28    1
     6    29    1
     8    30    1
    11    29    1
     9    31    1
    12    29    1
     9    32    1
    18    24    1
     9    33    1
    18    25    1
    13    30    1
    12    31    1
     9    34    1
    18    26    1
    14    30    1
    12    32    1
    21    24    1
    18    27    1
    12    33    1
    11    34    1
    10    35    1
    22    24    1
    21    25    1
    18    28    1
    10    36    1
    23    24    1
    22    25    1
    10    37    1
    23    25    1
    19    29    1
    18    30    1
    10    38    1
     2    46    1
    15    34    1
    14    35    1
    10    39    1
    14    36    1
     4    46    1
    14    37    1
    13    38    1
     5    46    1
    13    39    1
    16    38    1
    14    40    1
     8    46    1
    17    38    1
    16    39    1
    14    41    1
    17    39    1
    14    42    1
    10    46    1
    17    40    1
    14    43    1
    17    41    1
    14    44    1
    29    30    1
    17    42    1
    16    43    1
    14    45    1
    16    44    1
    30    31    1
    16    45    1
    30    32    1
    30    33    1
    30    34    1
    18    47    1
    20    46    1
    18    48    1
    18    49    1
    34    35    1
    34    36    1
    34    37    1
    34    38    1
    34    39    1
    29    46    1

