LIGPARGEN GENERATED GRO FILE
   23
    1UNK    C00    1   0.100   0.100   0.000
    1UNK    C01    2  -0.052   0.100   0.000
    1UNK    Cl0    3  -0.110   0.100   0.170
    1UNK    C03    4  -0.107   0.221  -0.077
    1UNK    C04    5  -0.261   0.221  -0.091
    1UNK    C05    6  -0.316   0.346  -0.163
    1UNK    C06    7  -0.265   0.358  -0.306
    1UNK    C07    8  -0.470   0.349  -0.160
    1UNK    F08    9  -0.522   0.256  -0.076
    1UNK    F09   10  -0.513   0.470  -0.117
    1UNK    F0A   11  -0.523   0.327  -0.282
    1UNK    H0B   12   0.139   0.012   0.053
    1UNK    H0C   13   0.140   0.190   0.049
    1UNK    H0D   14   0.139   0.097  -0.102
    1UNK    H0E   15  -0.088   0.007  -0.046
    1UNK    H0F   16  -0.063   0.220  -0.178
    1UNK    H0G   17  -0.075   0.314  -0.029
    1UNK    H0H   18  -0.304   0.218   0.010
    1UNK    H0I   19  -0.293   0.130  -0.143
    1UNK    H0J   20  -0.281   0.434  -0.108
    1UNK    H0K   21  -0.288   0.268  -0.364
    1UNK    H0M   22  -0.157   0.373  -0.309
    1UNK    H0N   23  -0.311   0.444  -0.357
   1.00000   1.00000   1.00000

