
;
; GENERATED BY LigParGen Server
; Jorgensen Lab @ Yale University 
;
[ atomtypes ]
  opls_818  H818     1.0080     0.000    A    2.50000E-01   1.25520E-01
  opls_810  F810    18.9984     0.000    A    2.90000E-01   2.51040E-01
  opls_805  C805    12.0110     0.000    A    3.50000E-01   2.76144E-01
  opls_813  H813     1.0080     0.000    A    2.50000E-01   1.25520E-01
  opls_802 Cl802    35.4500     0.000    A    3.40000E-01   1.25520E+00
  opls_806  C806    12.0110     0.000    A    3.50000E-01   2.76144E-01
  opls_815  H815     1.0080     0.000    A    2.50000E-01   1.25520E-01
  opls_801  C801    12.0110     0.000    A    3.50000E-01   2.76144E-01
  opls_822  H822     1.0080     0.000    A    2.50000E-01   1.25520E-01
  opls_807  C807    12.0110     0.000    A    3.50000E-01   2.76144E-01
  opls_814  H814     1.0080     0.000    A    2.50000E-01   1.25520E-01
  opls_821  H821     1.0080     0.000    A    2.50000E-01   1.25520E-01
  opls_820  H820     1.0080     0.000    A    2.50000E-01   1.25520E-01
  opls_811  H811     1.0080     0.000    A    2.50000E-01   1.25520E-01
  opls_816  H816     1.0080     0.000    A    2.50000E-01   1.25520E-01
  opls_800  C800    12.0110     0.000    A    3.50000E-01   2.76144E-01
  opls_809  F809    18.9984     0.000    A    2.90000E-01   2.51040E-01
  opls_808  F808    18.9984     0.000    A    2.90000E-01   2.51040E-01
  opls_819  H819     1.0080     0.000    A    2.50000E-01   1.25520E-01
  opls_804  C804    12.0110     0.000    A    3.50000E-01   2.76144E-01
  opls_817  H817     1.0080     0.000    A    2.50000E-01   1.25520E-01
  opls_812  H812     1.0080     0.000    A    2.50000E-01   1.25520E-01
  opls_803  C803    12.0110     0.000    A    3.50000E-01   2.76144E-01
[ moleculetype ]
; Name               nrexcl
UNK                   3
[ atoms ]
;   nr       type  resnr residue  atom   cgnr     charge       mass  
     1   opls_800      1    UNK   C00      1    -0.2506    12.0110 
     2   opls_801      1    UNK   C01      1     0.0825    12.0110 
     3   opls_802      1    UNK   Cl0      1    -0.2867    35.4500 
     4   opls_803      1    UNK   C03      1    -0.1799    12.0110 
     5   opls_804      1    UNK   C04      1    -0.1778    12.0110 
     6   opls_805      1    UNK   C05      1    -0.1904    12.0110 
     7   opls_806      1    UNK   C06      1    -0.2405    12.0110 
     8   opls_807      1    UNK   C07      1     0.4463    12.0110 
     9   opls_808      1    UNK   F08      1     -0.169    18.9984 
    10   opls_809      1    UNK   F09      1     -0.169    18.9984 
    11   opls_810      1    UNK   F0A      1     -0.169    18.9984 
    12   opls_811      1    UNK   H0B      1     0.0997     1.0080 
    13   opls_812      1    UNK   H0C      1     0.0997     1.0080 
    14   opls_813      1    UNK   H0D      1     0.0997     1.0080 
    15   opls_814      1    UNK   H0E      1      0.127     1.0080 
    16   opls_815      1    UNK   H0F      1     0.1052     1.0080 
    17   opls_816      1    UNK   H0G      1     0.1052     1.0080 
    18   opls_817      1    UNK   H0H      1     0.1151     1.0080 
    19   opls_818      1    UNK   H0I      1     0.1151     1.0080 
    20   opls_819      1    UNK   H0J      1     0.1381     1.0080 
    21   opls_820      1    UNK   H0K      1     0.0998     1.0080 
    22   opls_821      1    UNK   H0M      1     0.0998     1.0080 
    23   opls_822      1    UNK   H0N      1     0.0998     1.0080 
[ bonds ]
    2     1     1      0.1529 224262.400
    3     2     1      0.1781 205016.000
    4     2     1      0.1529 224262.400
    5     4     1      0.1529 224262.400
    6     5     1      0.1529 224262.400
    7     6     1      0.1529 224262.400
    8     6     1      0.1529 224262.400
    9     8     1      0.1360 307105.600
   10     8     1      0.1360 307105.600
   11     8     1      0.1360 307105.600
   12     1     1      0.1090 284512.000
   13     1     1      0.1090 284512.000
   14     1     1      0.1090 284512.000
   15     2     1      0.1090 284512.000
   16     4     1      0.1090 284512.000
   17     4     1      0.1090 284512.000
   18     5     1      0.1090 284512.000
   19     5     1      0.1090 284512.000
   20     6     1      0.1090 284512.000
   21     7     1      0.1090 284512.000
   22     7     1      0.1090 284512.000
   23     7     1      0.1090 284512.000

[ angles ]
;  ai    aj    ak funct            c0            c1            c2            c3 
    1     2     3     1    109.800    577.392
    1     2     4     1    112.700    488.273
    2     4     5     1    112.700    488.273
    4     5     6     1    112.700    488.273
    5     6     7     1    112.700    488.273
    5     6     8     1    112.700    488.273
    6     8     9     1    109.500    418.400
    6     8    10     1    109.500    418.400
    6     8    11     1    109.500    418.400
    2     1    12     1    110.700    313.800
    2     1    13     1    110.700    313.800
    2     1    14     1    110.700    313.800
    1     2    15     1    110.700    313.800
    2     4    16     1    110.700    313.800
    2     4    17     1    110.700    313.800
    4     5    18     1    110.700    313.800
    4     5    19     1    110.700    313.800
    5     6    20     1    110.700    313.800
    6     7    21     1    110.700    313.800
    6     7    22     1    110.700    313.800
    6     7    23     1    110.700    313.800
   10     8    11     1    109.100    644.336
    3     2    15     1    107.600    426.768
   13     1    14     1    107.800    276.144
   12     1    13     1    107.800    276.144
    6     5    19     1    110.700    313.800
   22     7    23     1    107.800    276.144
   12     1    14     1    107.800    276.144
    5     4    16     1    110.700    313.800
   16     4    17     1    107.800    276.144
   21     7    22     1    107.800    276.144
    4     2    15     1    110.700    313.800
    3     2     4     1    109.800    577.392
    7     6     8     1    112.700    488.273
    9     8    11     1    109.100    644.336
   18     5    19     1    107.800    276.144
   21     7    23     1    107.800    276.144
    8     6    20     1    110.700    313.800
    9     8    10     1    109.100    644.336
    7     6    20     1    110.700    313.800
    6     5    18     1    110.700    313.800
    5     4    17     1    110.700    313.800

[ dihedrals ]
; IMPROPER DIHEDRAL ANGLES 
;  ai    aj    ak    al funct            c0            c1            c2            c3            c4            c5

[ dihedrals ]
; PROPER DIHEDRAL ANGLES
;  ai    aj    ak    al funct            c0            c1            c2            c3            c4            c5
    8    6    5    4        3       2.301  -1.464   0.837  -1.674  -0.000   0.000
    5    4    2    1        3       2.301  -1.464   0.837  -1.674  -0.000   0.000
    6    5    4    2        3       2.301  -1.464   0.837  -1.674  -0.000   0.000
    7    6    5    4        3       2.301  -1.464   0.837  -1.674  -0.000   0.000
    5    4    2    3        3       0.837   2.510   0.000  -3.347  -0.000   0.000
   11    8    6    5        3       0.000   0.000   0.000  -0.000  -0.000   0.000
    9    8    6    7        3       0.000   0.000   0.000  -0.000  -0.000   0.000
   11    8    6    7        3       0.000   0.000   0.000  -0.000  -0.000   0.000
    9    8    6    5        3       0.000   0.000   0.000  -0.000  -0.000   0.000
   10    8    6    7        3       0.000   0.000   0.000  -0.000  -0.000   0.000
   10    8    6    5        3       0.000   0.000   0.000  -0.000  -0.000   0.000
   20    6    8    9        3       0.753   2.259   0.000  -3.012  -0.000   0.000
   20    6    8   11        3       0.753   2.259   0.000  -3.012  -0.000   0.000
   20    6    8   10        3       0.753   2.259   0.000  -3.012  -0.000   0.000
   22    7    6    8        3       0.628   1.883   0.000  -2.510  -0.000   0.000
   23    7    6    8        3       0.628   1.883   0.000  -2.510  -0.000   0.000
   19    5    6    8        3       0.628   1.883   0.000  -2.510  -0.000   0.000
   21    7    6    8        3       0.628   1.883   0.000  -2.510  -0.000   0.000
   18    5    6    8        3       0.628   1.883   0.000  -2.510  -0.000   0.000
   22    7    6    5        3       0.628   1.883   0.000  -2.510  -0.000   0.000
   23    7    6    5        3       0.628   1.883   0.000  -2.510  -0.000   0.000
   13    1    2    4        3       0.628   1.883   0.000  -2.510  -0.000   0.000
   16    4    2    1        3       0.628   1.883   0.000  -2.510  -0.000   0.000
   19    5    6    7        3       0.628   1.883   0.000  -2.510  -0.000   0.000
   18    5    4    2        3       0.628   1.883   0.000  -2.510  -0.000   0.000
   17    4    2    1        3       0.628   1.883   0.000  -2.510  -0.000   0.000
   14    1    2    4        3       0.628   1.883   0.000  -2.510  -0.000   0.000
   15    2    4    5        3       0.628   1.883   0.000  -2.510  -0.000   0.000
   19    5    4    2        3       0.628   1.883   0.000  -2.510  -0.000   0.000
   16    4    5    6        3       0.628   1.883   0.000  -2.510  -0.000   0.000
   17    4    5    6        3       0.628   1.883   0.000  -2.510  -0.000   0.000
   21    7    6    5        3       0.628   1.883   0.000  -2.510  -0.000   0.000
   18    5    6    7        3       0.628   1.883   0.000  -2.510  -0.000   0.000
   12    1    2    4        3       0.628   1.883   0.000  -2.510  -0.000   0.000
   20    6    5    4        3       0.628   1.883   0.000  -2.510  -0.000   0.000
   16    4    2    3        3       0.837   2.510   0.000  -3.347  -0.000   0.000
   12    1    2    3        3       0.837   2.510   0.000  -3.347  -0.000   0.000
   14    1    2    3        3       0.837   2.510   0.000  -3.347  -0.000   0.000
   17    4    2    3        3       0.837   2.510   0.000  -3.347  -0.000   0.000
   13    1    2    3        3       0.837   2.510   0.000  -3.347  -0.000   0.000
   19    5    4   17        3       0.628   1.883   0.000  -2.510  -0.000   0.000
   15    2    1   14        3       0.628   1.883   0.000  -2.510  -0.000   0.000
   20    6    5   19        3       0.628   1.883   0.000  -2.510  -0.000   0.000
   17    4    2   15        3       0.628   1.883   0.000  -2.510  -0.000   0.000
   18    5    4   16        3       0.628   1.883   0.000  -2.510  -0.000   0.000
   20    6    5   18        3       0.628   1.883   0.000  -2.510  -0.000   0.000
   19    5    4   16        3       0.628   1.883   0.000  -2.510  -0.000   0.000
   21    7    6   20        3       0.628   1.883   0.000  -2.510  -0.000   0.000
   22    7    6   20        3       0.628   1.883   0.000  -2.510  -0.000   0.000
   23    7    6   20        3       0.628   1.883   0.000  -2.510  -0.000   0.000
   18    5    4   17        3       0.628   1.883   0.000  -2.510  -0.000   0.000
   15    2    1   13        3       0.628   1.883   0.000  -2.510  -0.000   0.000
   15    2    1   12        3       0.628   1.883   0.000  -2.510  -0.000   0.000
   16    4    2   15        3       0.628   1.883   0.000  -2.510  -0.000   0.000

[ pairs ]
     1     5    1
     3     5    1
     2     6    1
     4     7    1
     4     8    1
     5     9    1
     5    10    1
     3    12    1
     7     9    1
     5    11    1
     4    12    1
     3    13    1
     7    10    1
     4    13    1
     3    14    1
     1    16    1
     7    11    1
     4    14    1
     1    17    1
     3    16    1
     5    15    1
     3    17    1
     2    18    1
     2    19    1
     6    16    1
     6    17    1
     4    20    1
     7    18    1
     8    18    1
     7    19    1
     5    21    1
    12    15    1
     8    19    1
     5    22    1
    13    15    1
     5    23    1
    14    15    1
     9    20    1
     8    21    1
    10    20    1
     8    22    1
    15    16    1
    11    20    1
     8    23    1
    15    17    1
    16    18    1
    17    18    1
    16    19    1
    17    19    1
    18    20    1
    19    20    1
    20    21    1
    20    22    1
    20    23    1

