LIGPARGEN GENERATED GRO FILE
   32
    1UNK    C00    1   0.100   0.100   0.000
    1UNK    C01    2  -0.052   0.100   0.000
    1UNK    C02    3  -0.110   0.100   0.145
    1UNK    C03    4  -0.256   0.072   0.115
    1UNK    C04    5  -0.361   0.025   0.215
    1UNK    C05    6  -0.494  -0.006   0.138
    1UNK    C06    7  -0.479  -0.087   0.005
    1UNK    C07    8  -0.361  -0.033  -0.076
    1UNK    C08    9  -0.304  -0.098  -0.201
    1UNK    C09   10  -0.164  -0.028  -0.208
    1UNK    C0A   11  -0.115  -0.026  -0.063
    1UNK    C0B   12  -0.242  -0.042   0.016
    1UNK    H0C   13   0.138   0.187   0.055
    1UNK    H0D   14   0.139   0.105  -0.102
    1UNK    H0E   15   0.140   0.010   0.047
    1UNK    H0F   16  -0.087   0.190  -0.053
    1UNK    H0G   17  -0.096   0.196   0.195
    1UNK    H0H   18  -0.065   0.021   0.207
    1UNK    H0I   19  -0.295   0.163   0.068
    1UNK    H0J   20  -0.379   0.102   0.291
    1UNK    H0K   21  -0.327  -0.065   0.268
    1UNK    H0M   22  -0.540   0.091   0.113
    1UNK    H0N   23  -0.563  -0.057   0.205
    1UNK    H0O   24  -0.572  -0.081  -0.053
    1UNK    H0P   25  -0.463  -0.193   0.029
    1UNK    H0Q   26  -0.385   0.071  -0.103
    1UNK    H0R   27  -0.364  -0.078  -0.290
    1UNK    H0S   28  -0.293  -0.206  -0.189
    1UNK    H0T   29  -0.175   0.073  -0.248
    1UNK    H0U   30  -0.096  -0.084  -0.274
    1UNK    H0V   31  -0.050  -0.113  -0.046
    1UNK    H0W   32  -0.237  -0.140   0.067
   1.00000   1.00000   1.00000

