
;
; GENERATED BY LigParGen Server
; Jorgensen Lab @ Yale University 
;
[ atomtypes ]
  opls_818  H818     1.0080     0.000    A    2.50000E-01   1.25520E-01
  opls_808  C808    12.0110     0.000    A    3.50000E-01   2.76144E-01
  opls_824  H824     1.0080     0.000    A    2.50000E-01   1.25520E-01
  opls_804  O804    15.9990     0.000    A    2.96000E-01   8.78640E-01
  opls_836  H836     1.0080     0.000    A    2.50000E-01   1.25520E-01
  opls_834  H834     1.0080     0.000    A    2.50000E-01   1.25520E-01
  opls_810  C810    12.0110     0.000    A    3.50000E-01   2.76144E-01
  opls_828  H828     1.0080     0.000    A    2.50000E-01   1.25520E-01
  opls_814  C814    12.0110     0.000    A    3.55000E-01   2.92880E-01
  opls_812  C812    12.0110     0.000    A    3.50000E-01   2.76144E-01
  opls_811  C811    12.0110     0.000    A    3.50000E-01   2.76144E-01
  opls_827  H827     1.0080     0.000    A    2.50000E-01   1.25520E-01
  opls_809  C809    12.0110     0.000    A    3.50000E-01   2.76144E-01
  opls_822  H822     1.0080     0.000    A    2.50000E-01   1.25520E-01
  opls_825  H825     1.0080     0.000    A    2.50000E-01   1.25520E-01
  opls_830  H830     1.0080     0.000    A    2.50000E-01   1.25520E-01
  opls_821  H821     1.0080     0.000    A    2.50000E-01   1.25520E-01
  opls_820  H820     1.0080     0.000    A    2.50000E-01   1.25520E-01
  opls_829  H829     1.0080     0.000    A    2.50000E-01   1.25520E-01
  opls_831  H831     1.0080     0.000    A    2.50000E-01   1.25520E-01
  opls_805  C805    12.0110     0.000    A    3.55000E-01   2.92880E-01
  opls_832  H832     1.0080     0.000    A    2.50000E-01   1.25520E-01
  opls_800  C800    12.0110     0.000    A    3.50000E-01   2.76144E-01
  opls_802  C802    12.0110     0.000    A    3.50000E-01   2.76144E-01
  opls_823  H823     1.0080     0.000    A    2.50000E-01   1.25520E-01
  opls_813  C813    12.0110     0.000    A    3.50000E-01   2.76144E-01
  opls_826  H826     1.0080     0.000    A    2.50000E-01   1.25520E-01
  opls_835  H835     1.0080     0.000    A    2.50000E-01   1.25520E-01
  opls_819  H819     1.0080     0.000    A    2.50000E-01   1.25520E-01
  opls_816  C816    12.0110     0.000    A    3.50000E-01   2.76144E-01
  opls_833  H833     1.0080     0.000    A    2.50000E-01   1.25520E-01
  opls_801  C801    12.0110     0.000    A    3.50000E-01   2.76144E-01
  opls_803  C803    12.0110     0.000    A    3.55000E-01   2.92880E-01
  opls_806  O806    15.9990     0.000    A    2.96000E-01   8.78640E-01
  opls_807  O807    15.9990     0.000    A    2.90000E-01   5.85760E-01
  opls_815  O815    15.9990     0.000    A    2.96000E-01   8.78640E-01
  opls_817  H817     1.0080     0.000    A    2.50000E-01   1.25520E-01
[ moleculetype ]
; Name               nrexcl
UNK                   3
[ atoms ]
;   nr       type  resnr residue  atom   cgnr     charge       mass  
     1   opls_800      1    UNK   C00      1    -0.2428    12.0110 
     2   opls_801      1    UNK   C01      1     -0.097    12.0110 
     3   opls_802      1    UNK   C02      1    -0.2297    12.0110 
     4   opls_803      1    UNK   C03      1     0.3293    12.0110 
     5   opls_804      1    UNK   O04      1    -0.4128    15.9990 
     6   opls_805      1    UNK   C05      1     0.4347    12.0110 
     7   opls_806      1    UNK   O06      1    -0.3872    15.9990 
     8   opls_807      1    UNK   O07      1    -0.3536    15.9990 
     9   opls_808      1    UNK   C08      1     0.0288    12.0110 
    10   opls_809      1    UNK   C09      1    -0.2135    12.0110 
    11   opls_810      1    UNK   C0A      1    -0.0833    12.0110 
    12   opls_811      1    UNK   C0B      1    -0.1193    12.0110 
    13   opls_812      1    UNK   C0C      1    -0.2337    12.0110 
    14   opls_813      1    UNK   C0D      1    -0.2358    12.0110 
    15   opls_814      1    UNK   C0E      1     0.3163    12.0110 
    16   opls_815      1    UNK   O0F      1    -0.4394    15.9990 
    17   opls_816      1    UNK   C0G      1    -0.1775    12.0110 
    18   opls_817      1    UNK   H0H      1     0.0936     1.0080 
    19   opls_818      1    UNK   H0I      1     0.0936     1.0080 
    20   opls_819      1    UNK   H0J      1     0.0936     1.0080 
    21   opls_820      1    UNK   H0K      1     0.0998     1.0080 
    22   opls_821      1    UNK   H0M      1     0.1342     1.0080 
    23   opls_822      1    UNK   H0N      1     0.1342     1.0080 
    24   opls_823      1    UNK   H0O      1     0.1222     1.0080 
    25   opls_824      1    UNK   H0P      1     0.1222     1.0080 
    26   opls_825      1    UNK   H0Q      1     0.1193     1.0080 
    27   opls_826      1    UNK   H0R      1     0.1193     1.0080 
    28   opls_827      1    UNK   H0S      1     0.1227     1.0080 
    29   opls_828      1    UNK   H0T      1      0.095     1.0080 
    30   opls_829      1    UNK   H0U      1      0.095     1.0080 
    31   opls_830      1    UNK   H0V      1      0.095     1.0080 
    32   opls_831      1    UNK   H0W      1     0.0911     1.0080 
    33   opls_832      1    UNK   H0X      2     0.0911     1.0080 
    34   opls_833      1    UNK   H0Y      2     0.0911     1.0080 
    35   opls_834      1    UNK   H0Z      2     0.1134     1.0080 
    36   opls_835      1    UNK   H10      2     0.0951     1.0080 
    37   opls_836      1    UNK   H11      2     0.0951     1.0080 
[ bonds ]
    2     1     1      0.1529 224262.400
    3     2     1      0.1529 224262.400
    4     3     1      0.1522 265265.600
    5     4     1      0.1229 476976.000
    6     4     1      0.1510 292880.000
    7     6     1      0.1229 476976.000
    8     6     1      0.1327 179075.200
    9     8     1      0.1410 267776.000
   10     9     1      0.1529 224262.400
   11    10     1      0.1529 224262.400
   12    11     1      0.1529 224262.400
   13    12     1      0.1529 224262.400
   14    12     1      0.1529 224262.400
   15    12     1      0.1522 265265.600
   16    15     1      0.1229 476976.000
   17     2     1      0.1529 224262.400
   18     1     1      0.1090 284512.000
   19     1     1      0.1090 284512.000
   20     1     1      0.1090 284512.000
   21     2     1      0.1090 284512.000
   22     3     1      0.1090 284512.000
   23     3     1      0.1090 284512.000
   24     9     1      0.1090 284512.000
   25     9     1      0.1090 284512.000
   26    10     1      0.1090 284512.000
   27    10     1      0.1090 284512.000
   28    11     1      0.1090 284512.000
   29    13     1      0.1090 284512.000
   30    13     1      0.1090 284512.000
   31    13     1      0.1090 284512.000
   32    14     1      0.1090 284512.000
   33    14     1      0.1090 284512.000
   34    14     1      0.1090 284512.000
   35    15     1      0.1090 284512.000
   36    17     1      0.1090 284512.000
   37    17     1      0.1090 284512.000
   17    11     1      0.1529 224262.400

[ angles ]
;  ai    aj    ak funct            c0            c1            c2            c3 
    1     2     3     1    112.700    488.273
    2     3     4     1    111.100    527.184
    3     4     5     1    120.400    669.440
    3     4     6     1    117.200    669.440
    4     6     7     1    121.400    669.440
    4     6     8     1    118.180    584.923
    6     8     9     1    116.900    694.544
    8     9    10     1    109.500    418.400
    9    10    11     1    112.700    488.273
   10    11    12     1    112.700    488.273
   11    12    13     1    112.700    488.273
   11    12    14     1    112.700    488.273
   11    12    15     1    111.100    527.184
   12    15    16     1    120.400    669.440
    1     2    17     1    112.700    488.273
    2     1    18     1    110.700    313.800
    2     1    19     1    110.700    313.800
    2     1    20     1    110.700    313.800
    1     2    21     1    110.700    313.800
    2     3    22     1    110.700    313.800
    2     3    23     1    110.700    313.800
    8     9    24     1    109.500    292.880
    8     9    25     1    109.500    292.880
    9    10    26     1    110.700    313.800
    9    10    27     1    110.700    313.800
   10    11    28     1    110.700    313.800
   12    13    29     1    110.700    313.800
   12    13    30     1    110.700    313.800
   12    13    31     1    110.700    313.800
   12    14    32     1    110.700    313.800
   12    14    33     1    110.700    313.800
   12    14    34     1    110.700    313.800
   12    15    35     1    115.000    292.880
    2    17    36     1    110.700    313.800
    2    17    37     1    110.700    313.800
    5     4     6     1    121.400    669.440
   32    14    34     1    107.800    276.144
   13    12    14     1    112.700    488.273
   19     1    20     1    107.800    276.144
    2    17    11     1    112.700    488.273
   17     2    21     1    110.700    313.800
    3     2    17     1    112.700    488.273
    4     3    22     1    109.500    292.880
   10    11    17     1    112.700    488.273
   11    17    36     1    110.700    313.800
   13    12    15     1    111.100    527.184
   11    10    27     1    110.700    313.800
    4     3    23     1    109.500    292.880
   22     3    23     1    107.800    276.144
   36    17    37     1    107.800    276.144
   18     1    19     1    107.800    276.144
   30    13    31     1    107.800    276.144
   17    11    28     1    110.700    313.800
   33    14    34     1    107.800    276.144
   24     9    25     1    107.800    276.144
   14    12    15     1    111.100    527.184
   10     9    25     1    110.700    313.800
    7     6     8     1    123.400    694.544
   29    13    30     1    107.800    276.144
   11    10    26     1    110.700    313.800
   18     1    20     1    107.800    276.144
   10     9    24     1    110.700    313.800
   12    11    17     1    112.700    488.273
   32    14    33     1    107.800    276.144
   16    15    35     1    123.000    292.880
   12    11    28     1    110.700    313.800
   29    13    31     1    107.800    276.144
    3     2    21     1    110.700    313.800
   11    17    37     1    110.700    313.800
   26    10    27     1    107.800    276.144

[ dihedrals ]
; IMPROPER DIHEDRAL ANGLES 
;  ai    aj    ak    al funct            c0            c1            c2            c3            c4            c5
     6     4     3     5    4        180.000     43.932     2  
    35    15    12    16    4        180.000     43.932     2  
     8     6     4     7    4        180.000     43.932     2  

[ dihedrals ]
; PROPER DIHEDRAL ANGLES
;  ai    aj    ak    al funct            c0            c1            c2            c3            c4            c5
    6    4    3    2        3       0.000   0.000   0.000  -0.000  -0.000   0.000
   15   12   11   10        3      -4.960   6.286   1.310  -2.636  -0.000   0.000
    4    3    2    1        3      -4.960   6.286   1.310  -2.636  -0.000   0.000
   17    2    3    4        3      -4.960   6.286   1.310  -2.636  -0.000   0.000
   17   11   12   15        3      -4.960   6.286   1.310  -2.636  -0.000   0.000
   14   12   11   10        3       2.301  -1.464   0.837  -1.674  -0.000   0.000
   10   11   17    2        3       2.301  -1.464   0.837  -1.674  -0.000   0.000
   17   11   12   13        3       2.301  -1.464   0.837  -1.674  -0.000   0.000
   17   11   12   14        3       2.301  -1.464   0.837  -1.674  -0.000   0.000
   11   17    2    3        3       2.301  -1.464   0.837  -1.674  -0.000   0.000
   12   11   17    2        3       2.301  -1.464   0.837  -1.674  -0.000   0.000
   11   17    2    1        3       2.301  -1.464   0.837  -1.674  -0.000   0.000
   17   11   10    9        3       2.301  -1.464   0.837  -1.674  -0.000   0.000
   13   12   11   10        3       2.301  -1.464   0.837  -1.674  -0.000   0.000
   12   11   10    9        3       2.301  -1.464   0.837  -1.674  -0.000   0.000
   11   10    9    8        3       2.874   0.582   2.092  -5.548  -0.000   0.000
   10    9    8    6        3      -2.197   5.201   0.527  -3.531  -0.000   0.000
    9    8    6    4        3      31.206  -9.768  -21.439  -0.000  -0.000   0.000
    9    8    6    7        3      21.439   0.000  -21.439  -0.000  -0.000   0.000
   35   15   12   13        3       0.000   0.000   0.000  -0.000  -0.000   0.000
   35   15   12   14        3       0.000   0.000   0.000  -0.000  -0.000   0.000
   35   15   12   11        3       0.000   0.000   0.000  -0.000  -0.000   0.000
   23    3    4    6        3       0.178   0.533   0.000  -0.711  -0.000   0.000
   22    3    4    6        3       0.178   0.533   0.000  -0.711  -0.000   0.000
   23    3    4    5        3       0.000   0.000   0.000  -0.000  -0.000   0.000
   22    3    4    5        3       0.000   0.000   0.000  -0.000  -0.000   0.000
   32   14   12   15        3      -0.209  -0.628   0.000   0.837  -0.000   0.000
   28   11   12   15        3      -0.209  -0.628   0.000   0.837  -0.000   0.000
   29   13   12   15        3      -0.209  -0.628   0.000   0.837  -0.000   0.000
   33   14   12   15        3      -0.209  -0.628   0.000   0.837  -0.000   0.000
   31   13   12   15        3      -0.209  -0.628   0.000   0.837  -0.000   0.000
   30   13   12   15        3      -0.209  -0.628   0.000   0.837  -0.000   0.000
   34   14   12   15        3      -0.209  -0.628   0.000   0.837  -0.000   0.000
   21    2    3    4        3      -0.209  -0.628   0.000   0.837  -0.000   0.000
   21    2   17   11        3       0.628   1.883   0.000  -2.510  -0.000   0.000
   30   13   12   14        3       0.628   1.883   0.000  -2.510  -0.000   0.000
   19    1    2   17        3       0.628   1.883   0.000  -2.510  -0.000   0.000
   37   17   11   12        3       0.628   1.883   0.000  -2.510  -0.000   0.000
   28   11   12   14        3       0.628   1.883   0.000  -2.510  -0.000   0.000
   36   17    2    3        3       0.628   1.883   0.000  -2.510  -0.000   0.000
   33   14   12   11        3       0.628   1.883   0.000  -2.510  -0.000   0.000
   22    3    2    1        3       0.628   1.883   0.000  -2.510  -0.000   0.000
   20    1    2    3        3       0.628   1.883   0.000  -2.510  -0.000   0.000
   31   13   12   14        3       0.628   1.883   0.000  -2.510  -0.000   0.000
   34   14   12   11        3       0.628   1.883   0.000  -2.510  -0.000   0.000
   31   13   12   11        3       0.628   1.883   0.000  -2.510  -0.000   0.000
   32   14   12   13        3       0.628   1.883   0.000  -2.510  -0.000   0.000
   36   17   11   12        3       0.628   1.883   0.000  -2.510  -0.000   0.000
   18    1    2   17        3       0.628   1.883   0.000  -2.510  -0.000   0.000
   23    3    2    1        3       0.628   1.883   0.000  -2.510  -0.000   0.000
   37   17    2    1        3       0.628   1.883   0.000  -2.510  -0.000   0.000
   23    3    2   17        3       0.628   1.883   0.000  -2.510  -0.000   0.000
   36   17   11   10        3       0.628   1.883   0.000  -2.510  -0.000   0.000
   20    1    2   17        3       0.628   1.883   0.000  -2.510  -0.000   0.000
   36   17    2    1        3       0.628   1.883   0.000  -2.510  -0.000   0.000
   24    9   10   11        3       0.628   1.883   0.000  -2.510  -0.000   0.000
   27   10   11   17        3       0.628   1.883   0.000  -2.510  -0.000   0.000
   28   11   10    9        3       0.628   1.883   0.000  -2.510  -0.000   0.000
   30   13   12   11        3       0.628   1.883   0.000  -2.510  -0.000   0.000
   37   17    2    3        3       0.628   1.883   0.000  -2.510  -0.000   0.000
   25    9   10   11        3       0.628   1.883   0.000  -2.510  -0.000   0.000
   18    1    2    3        3       0.628   1.883   0.000  -2.510  -0.000   0.000
   29   13   12   11        3       0.628   1.883   0.000  -2.510  -0.000   0.000
   32   14   12   11        3       0.628   1.883   0.000  -2.510  -0.000   0.000
   29   13   12   14        3       0.628   1.883   0.000  -2.510  -0.000   0.000
   33   14   12   13        3       0.628   1.883   0.000  -2.510  -0.000   0.000
   26   10   11   17        3       0.628   1.883   0.000  -2.510  -0.000   0.000
   28   11   12   13        3       0.628   1.883   0.000  -2.510  -0.000   0.000
   26   10   11   12        3       0.628   1.883   0.000  -2.510  -0.000   0.000
   19    1    2    3        3       0.628   1.883   0.000  -2.510  -0.000   0.000
   22    3    2   17        3       0.628   1.883   0.000  -2.510  -0.000   0.000
   34   14   12   13        3       0.628   1.883   0.000  -2.510  -0.000   0.000
   28   11   17    2        3       0.628   1.883   0.000  -2.510  -0.000   0.000
   37   17   11   10        3       0.628   1.883   0.000  -2.510  -0.000   0.000
   27   10   11   12        3       0.628   1.883   0.000  -2.510  -0.000   0.000
   21    2    1   20        3       0.628   1.883   0.000  -2.510  -0.000   0.000
   21    2    1   18        3       0.628   1.883   0.000  -2.510  -0.000   0.000
   21    2    1   19        3       0.628   1.883   0.000  -2.510  -0.000   0.000
   26   10    9   24        3       0.628   1.883   0.000  -2.510  -0.000   0.000
   37   17    2   21        3       0.628   1.883   0.000  -2.510  -0.000   0.000
   36   17   11   28        3       0.628   1.883   0.000  -2.510  -0.000   0.000
   27   10    9   25        3       0.628   1.883   0.000  -2.510  -0.000   0.000
   28   11   10   26        3       0.628   1.883   0.000  -2.510  -0.000   0.000
   36   17    2   21        3       0.628   1.883   0.000  -2.510  -0.000   0.000
   26   10    9   25        3       0.628   1.883   0.000  -2.510  -0.000   0.000
   23    3    2   21        3       0.628   1.883   0.000  -2.510  -0.000   0.000
   37   17   11   28        3       0.628   1.883   0.000  -2.510  -0.000   0.000
   27   10    9   24        3       0.628   1.883   0.000  -2.510  -0.000   0.000
   22    3    2   21        3       0.628   1.883   0.000  -2.510  -0.000   0.000
   28   11   10   27        3       0.628   1.883   0.000  -2.510  -0.000   0.000
   27   10    9    8        3       0.979   2.937   0.000  -3.916  -0.000   0.000
   26   10    9    8        3       0.979   2.937   0.000  -3.916  -0.000   0.000
   25    9    8    6        3       0.414   1.243   0.000  -1.657  -0.000   0.000
   24    9    8    6        3       0.414   1.243   0.000  -1.657  -0.000   0.000
    7    6    4    3        3       2.092   0.000  -2.092  -0.000  -0.000   0.000
    7    6    4    5        3      16.736  -3.347  -13.389  -0.000  -0.000   0.000
   16   15   12   14        3       0.000   0.000   0.000  -0.000  -0.000   0.000
   16   15   12   13        3       0.000   0.000   0.000  -0.000  -0.000   0.000
   16   15   12   11        3       0.000   0.000   0.000  -0.000  -0.000   0.000
    5    4    3    2        3       0.000   0.000   0.000  -0.000  -0.000   0.000
    8    6    4    3        3       2.092   0.000  -2.092  -0.000  -0.000   0.000
    8    6    4    5        3      16.736  -3.347  -13.389  -0.000  -0.000   0.000

[ pairs ]
     1     4    1
     2     5    1
     2     6    1
     3     7    1
     3     8    1
     5     7    1
     2    10    1
     1    11    1
     5     8    1
     4     9    1
     3    11    1
     2    12    1
     7     9    1
     6    10    1
     8    11    1
     9    12    1
     4    17    1
     3    18    1
     3    19    1
    10    13    1
     3    20    1
     1    22    1
    10    14    1
     1    23    1
    10    15    1
     4    21    1
     9    17    1
    11    16    1
     5    22    1
     6    22    1
     5    23    1
    13    16    1
     6    23    1
    14    16    1
    13    17    1
     6    24    1
     2    28    1
    14    17    1
     6    25    1
    15    17    1
    11    21    1
     8    26    1
    17    18    1
    11    24    1
     8    27    1
    17    19    1
    11    25    1
    17    20    1
     9    28    1
     1    36    1
    12    26    1
     1    37    1
    18    21    1
    17    22    1
    12    27    1
     3    36    1
    19    21    1
    17    23    1
    11    29    1
     3    37    1
    20    21    1
    13    28    1
    11    30    1
    14    28    1
    11    31    1
    21    22    1
    17    26    1
    15    28    1
    14    29    1
    11    32    1
    21    23    1
    17    27    1
    15    29    1
    14    30    1
    11    33    1
    15    30    1
    14    31    1
    13    32    1
    11    34    1
    15    31    1
    13    33    1
    11    35    1
    10    36    1
    15    32    1
    13    34    1
    10    37    1
    15    33    1
    13    35    1
    12    36    1
    15    34    1
    14    35    1
    12    37    1
    24    26    1
    25    26    1
    24    27    1
    25    27    1
    26    28    1
    27    28    1
    21    36    1
    21    37    1
    28    36    1
    28    37    1

