LIGPARGEN GENERATED GRO FILE
   37
    1UNK    C00    1   0.100   0.100   0.000
    1UNK    C01    2  -0.053   0.100   0.000
    1UNK    C02    3  -0.110   0.100   0.143
    1UNK    C03    4  -0.128   0.236   0.205
    1UNK    O04    5  -0.237   0.288   0.226
    1UNK    C05    6  -0.000   0.310   0.243
    1UNK    O06    7   0.069   0.267   0.333
    1UNK    O07    8   0.032   0.418   0.170
    1UNK    C08    9  -0.041   0.458   0.052
    1UNK    C09   10   0.031   0.405  -0.073
    1UNK    C0A   11  -0.048   0.310  -0.167
    1UNK    C0B   12  -0.138   0.390  -0.270
    1UNK    C0C   13  -0.217   0.296  -0.364
    1UNK    C0D   14  -0.238   0.485  -0.203
    1UNK    C0E   15  -0.051   0.473  -0.364
    1UNK    O0F   16   0.065   0.445  -0.394
    1UNK    C0G   17  -0.126   0.199  -0.095
    1UNK    H0H   18   0.137   0.007   0.045
    1UNK    H0I   19   0.143   0.181   0.059
    1UNK    H0J   20   0.140   0.104  -0.101
    1UNK    H0K   21  -0.078   0.000  -0.039
    1UNK    H0M   22  -0.050   0.038   0.210
    1UNK    H0N   23  -0.210   0.054   0.140
    1UNK    H0O   24  -0.038   0.567   0.051
    1UNK    H0P   25  -0.147   0.431   0.056
    1UNK    H0Q   26   0.125   0.357  -0.044
    1UNK    H0R   27   0.064   0.493  -0.131
    1UNK    H0S   28   0.028   0.259  -0.228
    1UNK    H0T   29  -0.296   0.242  -0.311
    1UNK    H0U   30  -0.151   0.224  -0.412
    1UNK    H0V   31  -0.266   0.353  -0.444
    1UNK    H0W   32  -0.305   0.432  -0.135
    1UNK    H0X   33  -0.301   0.536  -0.277
    1UNK    H0Y   34  -0.187   0.565  -0.147
    1UNK    H0Z   35  -0.100   0.560  -0.412
    1UNK    H10   36  -0.168   0.134  -0.173
    1UNK    H11   37  -0.214   0.241  -0.045
   1.00000   1.00000   1.00000

