LIGPARGEN GENERATED GRO FILE
   36
    1UNK    C00    1   0.100   0.100   0.000
    1UNK    C01    2  -0.051   0.100   0.000
    1UNK    C02    3  -0.123   0.100   0.131
    1UNK    C03    4  -0.118   0.027   0.275
    1UNK    C04    5  -0.112  -0.111   0.341
    1UNK    C05    6  -0.259  -0.174   0.355
    1UNK    C06    7  -0.268  -0.249   0.222
    1UNK    C07    8  -0.383  -0.265   0.126
    1UNK    C08    9  -0.303  -0.314   0.002
    1UNK    C09   10  -0.180  -0.220  -0.003
    1UNK    C0A   11  -0.053  -0.281  -0.059
    1UNK    C0B   12  -0.165  -0.170   0.138
    1UNK    C0C   13  -0.046  -0.193   0.229
    1UNK    C0D   14  -0.201  -0.020   0.155
    1UNK    H0E   15   0.136   0.105  -0.103
    1UNK    H0F   16   0.140   0.009   0.046
    1UNK    H0G   17   0.140   0.187   0.054
    1UNK    H0H   18  -0.084   0.020  -0.065
    1UNK    H0I   19  -0.083   0.191  -0.053
    1UNK    H0J   20  -0.170   0.197   0.142
    1UNK    H0K   21  -0.014   0.057   0.297
    1UNK    H0M   22  -0.059  -0.111   0.437
    1UNK    H0N   23  -0.336  -0.097   0.368
    1UNK    H0O   24  -0.265  -0.243   0.439
    1UNK    H0P   25  -0.233  -0.352   0.243
    1UNK    H0Q   26  -0.435  -0.172   0.104
    1UNK    H0R   27  -0.457  -0.340   0.158
    1UNK    H0S   28  -0.362  -0.309  -0.090
    1UNK    H0T   29  -0.271  -0.418   0.016
    1UNK    H0U   30  -0.210  -0.138  -0.069
    1UNK    H0V   31  -0.027  -0.375  -0.011
    1UNK    H0W   32   0.032  -0.212  -0.047
    1UNK    H0X   33  -0.063  -0.299  -0.167
    1UNK    H0Y   34   0.048  -0.150   0.194
    1UNK    H0Z   35  -0.028  -0.298   0.258
    1UNK    H10   36  -0.308  -0.001   0.155
   1.00000   1.00000   1.00000

