LIGPARGEN GENERATED GRO FILE
   40
    1UNK    C00    1   0.100   0.100   0.000
    1UNK    C01    2  -0.052   0.100   0.000
    1UNK    C02    3  -0.107   0.100   0.143
    1UNK    C03    4  -0.259   0.106   0.144
    1UNK    C04    5  -0.318   0.107   0.286
    1UNK    C05    6  -0.277   0.226   0.372
    1UNK    C06    7  -0.314   0.356   0.304
    1UNK    O07    8  -0.429   0.387   0.275
    1UNK    O08    9  -0.203   0.425   0.270
    1UNK    C09   10  -0.219   0.522   0.165
    1UNK    C0A   11  -0.197   0.664   0.217
    1UNK    C0B   12  -0.298   0.705   0.323
    1UNK    C0C   13  -0.113   0.489   0.060
    1UNK    O0D   14  -0.002   0.445   0.091
    1UNK    C0E   15  -0.152   0.513  -0.085
    1UNK    C0F   16  -0.041   0.477  -0.182
    1UNK    H0G   17   0.138   0.100  -0.102
    1UNK    H0H   18   0.139   0.011   0.051
    1UNK    H0I   19   0.139   0.189   0.051
    1UNK    H0J   20  -0.089   0.012  -0.054
    1UNK    H0K   21  -0.088   0.189  -0.053
    1UNK    H0M   22  -0.065   0.186   0.196
    1UNK    H0N   23  -0.073   0.010   0.195
    1UNK    H0O   24  -0.300   0.020   0.090
    1UNK    H0P   25  -0.293   0.195   0.089
    1UNK    H0Q   26  -0.290   0.014   0.337
    1UNK    H0R   27  -0.428   0.105   0.277
    1UNK    H0S   28  -0.169   0.224   0.393
    1UNK    H0T   29  -0.327   0.223   0.469
    1UNK    H0U   30  -0.318   0.514   0.117
    1UNK    H0V   31  -0.202   0.735   0.133
    1UNK    H0W   32  -0.096   0.672   0.260
    1UNK    H0X   33  -0.400   0.694   0.286
    1UNK    H0Y   34  -0.283   0.810   0.350
    1UNK    H0Z   35  -0.287   0.645   0.414
    1UNK    H10   36  -0.178   0.619  -0.096
    1UNK    H11   37  -0.240   0.452  -0.107
    1UNK    H12   38   0.050   0.535  -0.162
    1UNK    H13   39  -0.072   0.497  -0.285
    1UNK    H14   40  -0.014   0.371  -0.175
   1.00000   1.00000   1.00000

