LIGPARGEN GENERATED GRO FILE
   41
    1UNK    C00    1   0.100   0.100   0.000
    1UNK    C01    2  -0.052   0.100   0.000
    1UNK    C02    3  -0.124   0.100   0.138
    1UNK    C03    4  -0.085   0.223   0.222
    1UNK    C04    5  -0.206   0.289   0.290
    1UNK    C05    6   0.020   0.175   0.322
    1UNK    C06    7   0.029   0.022   0.312
    1UNK    C07    8   0.006  -0.047   0.447
    1UNK    C08    9  -0.146  -0.044   0.460
    1UNK    C09   10  -0.191  -0.088   0.320
    1UNK    C0A   11  -0.337  -0.052   0.292
    1UNK    C0B   12  -0.182  -0.243   0.318
    1UNK    S0C   13  -0.017  -0.307   0.344
    1UNK    O0D   14   0.054  -0.304   0.217
    1UNK    O0E   15  -0.030  -0.432   0.416
    1UNK    C0F   16   0.061  -0.190   0.453
    1UNK    C0G   17  -0.087  -0.024   0.222
    1UNK    H0H   18   0.137   0.105  -0.103
    1UNK    H0I   19   0.141   0.009   0.044
    1UNK    H0J   20   0.141   0.186   0.053
    1UNK    H0K   21  -0.086   0.012  -0.057
    1UNK    H0M   22  -0.086   0.188  -0.056
    1UNK    H0N   23  -0.231   0.101   0.114
    1UNK    H0O   24  -0.042   0.301   0.157
    1UNK    H0P   25  -0.247   0.228   0.370
    1UNK    H0Q   26  -0.286   0.308   0.217
    1UNK    H0R   27  -0.176   0.385   0.334
    1UNK    H0S   28  -0.002   0.210   0.424
    1UNK    H0T   29   0.117   0.219   0.297
    1UNK    H0U   30   0.127  -0.006   0.270
    1UNK    H0V   31   0.054   0.010   0.528
    1UNK    H0W   32  -0.180   0.058   0.483
    1UNK    H0X   33  -0.182  -0.108   0.540
    1UNK    H0Y   34  -0.404  -0.100   0.364
    1UNK    H0Z   35  -0.367  -0.087   0.192
    1UNK    H10   36  -0.356   0.055   0.297
    1UNK    H11   37  -0.219  -0.285   0.224
    1UNK    H12   38  -0.243  -0.284   0.399
    1UNK    H13   39   0.168  -0.192   0.429
    1UNK    H14   40   0.049  -0.230   0.554
    1UNK    H15   41  -0.055  -0.101   0.152
   1.00000   1.00000   1.00000

