LIGPARGEN GENERATED GRO FILE
   33
    1UNK    C00    1   0.100   0.100   0.000
    1UNK    C01    2  -0.052   0.100   0.000
    1UNK    C02    3  -0.106   0.100   0.140
    1UNK    O03    4  -0.039   0.092   0.242
    1UNK    O04    5  -0.242   0.110   0.137
    1UNK    C05    6  -0.306   0.111   0.266
    1UNK    C06    7  -0.303   0.252   0.325
    1UNK    C07    8  -0.363   0.263   0.466
    1UNK    C08    9  -0.292   0.174   0.571
    1UNK    C09   10  -0.143   0.200   0.586
    1UNK    C0A   11  -0.373   0.409   0.510
    1UNK    C0B   12  -0.499   0.413   0.593
    1UNK    C0C   13  -0.581   0.303   0.532
    1UNK    O0D   14  -0.701   0.287   0.546
    1UNK    O0E   15  -0.501   0.220   0.459
    1UNK    H0F   16   0.138   0.100  -0.102
    1UNK    H0G   17   0.139   0.012   0.052
    1UNK    H0H   18   0.139   0.189   0.051
    1UNK    H0I   19  -0.089   0.011  -0.052
    1UNK    H0J   20  -0.088   0.190  -0.052
    1UNK    H0K   21  -0.258   0.037   0.332
    1UNK    H0M   22  -0.409   0.078   0.251
    1UNK    H0N   23  -0.361   0.316   0.256
    1UNK    H0O   24  -0.201   0.293   0.323
    1UNK    H0P   25  -0.308   0.068   0.546
    1UNK    H0Q   26  -0.340   0.187   0.669
    1UNK    H0R   27  -0.088   0.179   0.494
    1UNK    H0S   28  -0.102   0.134   0.664
    1UNK    H0T   29  -0.122   0.303   0.616
    1UNK    H0U   30  -0.387   0.475   0.422
    1UNK    H0V   31  -0.286   0.446   0.564
    1UNK    H0W   32  -0.550   0.509   0.583
    1UNK    H0X   33  -0.480   0.389   0.698
   1.00000   1.00000   1.00000

