
;
; GENERATED BY LigParGen Server
; Jorgensen Lab @ Yale University 
;
[ atomtypes ]
  opls_818  H818     1.0080     0.000    A    2.50000E-01   1.25520E-01
  opls_824  H824     1.0080     0.000    A    2.50000E-01   1.25520E-01
  opls_805  C805    12.0110     0.000    A    3.50000E-01   2.76144E-01
  opls_828  H828     1.0080     0.000    A    2.50000E-01   1.25520E-01
  opls_832  H832     1.0080     0.000    A    2.50000E-01   1.25520E-01
  opls_803  O803    15.9990     0.000    A    2.96000E-01   8.78640E-01
  opls_806  C806    12.0110     0.000    A    3.50000E-01   2.76144E-01
  opls_815  H815     1.0080     0.000    A    2.50000E-01   1.25520E-01
  opls_809  C809    12.0110     0.000    A    3.50000E-01   2.76144E-01
  opls_822  H822     1.0080     0.000    A    2.50000E-01   1.25520E-01
  opls_807  C807    12.0110     0.000    A    3.50000E-01   2.76144E-01
  opls_825  H825     1.0080     0.000    A    2.50000E-01   1.25520E-01
  opls_830  H830     1.0080     0.000    A    2.50000E-01   1.25520E-01
  opls_814  O814    15.9990     0.000    A    2.90000E-01   5.85760E-01
  opls_821  H821     1.0080     0.000    A    2.50000E-01   1.25520E-01
  opls_820  H820     1.0080     0.000    A    2.50000E-01   1.25520E-01
  opls_812  C812    12.0110     0.000    A    3.55000E-01   2.92880E-01
  opls_829  H829     1.0080     0.000    A    2.50000E-01   1.25520E-01
  opls_831  H831     1.0080     0.000    A    2.50000E-01   1.25520E-01
  opls_816  H816     1.0080     0.000    A    2.50000E-01   1.25520E-01
  opls_800  C800    12.0110     0.000    A    3.50000E-01   2.76144E-01
  opls_811  C811    12.0110     0.000    A    3.50000E-01   2.76144E-01
  opls_802  C802    12.0110     0.000    A    3.55000E-01   2.92880E-01
  opls_823  H823     1.0080     0.000    A    2.50000E-01   1.25520E-01
  opls_826  H826     1.0080     0.000    A    2.50000E-01   1.25520E-01
  opls_813  O813    15.9990     0.000    A    2.96000E-01   8.78640E-01
  opls_819  H819     1.0080     0.000    A    2.50000E-01   1.25520E-01
  opls_810  C810    12.0110     0.000    A    3.50000E-01   2.76144E-01
  opls_827  H827     1.0080     0.000    A    2.50000E-01   1.25520E-01
  opls_801  C801    12.0110     0.000    A    3.50000E-01   2.76144E-01
  opls_808  C808    12.0110     0.000    A    3.50000E-01   2.76144E-01
  opls_817  H817     1.0080     0.000    A    2.50000E-01   1.25520E-01
  opls_804  O804    15.9990     0.000    A    2.90000E-01   5.85760E-01
[ moleculetype ]
; Name               nrexcl
UNK                   3
[ atoms ]
;   nr       type  resnr residue  atom   cgnr     charge       mass  
     1   opls_800      1    UNK   C00      1    -0.2368    12.0110 
     2   opls_801      1    UNK   C01      1    -0.1917    12.0110 
     3   opls_802      1    UNK   C02      1     0.4364    12.0110 
     4   opls_803      1    UNK   O03      1    -0.4539    15.9990 
     5   opls_804      1    UNK   O04      1    -0.3616    15.9990 
     6   opls_805      1    UNK   C05      1     0.0068    12.0110 
     7   opls_806      1    UNK   C06      1    -0.2015    12.0110 
     8   opls_807      1    UNK   C07      1     0.1411    12.0110 
     9   opls_808      1    UNK   C08      1    -0.1885    12.0110 
    10   opls_809      1    UNK   C09      1     -0.243    12.0110 
    11   opls_810      1    UNK   C0A      1    -0.2201    12.0110 
    12   opls_811      1    UNK   C0B      1    -0.2536    12.0110 
    13   opls_812      1    UNK   C0C      1     0.4474    12.0110 
    14   opls_813      1    UNK   O0D      1    -0.3967    15.9990 
    15   opls_814      1    UNK   O0E      1    -0.3485    15.9990 
    16   opls_815      1    UNK   H0F      1     0.0962     1.0080 
    17   opls_816      1    UNK   H0G      1     0.0962     1.0080 
    18   opls_817      1    UNK   H0H      1     0.0962     1.0080 
    19   opls_818      1    UNK   H0I      1      0.133     1.0080 
    20   opls_819      1    UNK   H0J      1      0.133     1.0080 
    21   opls_820      1    UNK   H0K      1     0.1281     1.0080 
    22   opls_821      1    UNK   H0M      1     0.1281     1.0080 
    23   opls_822      1    UNK   H0N      1     0.1172     1.0080 
    24   opls_823      1    UNK   H0O      1     0.1172     1.0080 
    25   opls_824      1    UNK   H0P      1     0.1028     1.0080 
    26   opls_825      1    UNK   H0Q      1     0.1028     1.0080 
    27   opls_826      1    UNK   H0R      1     0.0934     1.0080 
    28   opls_827      1    UNK   H0S      1     0.0934     1.0080 
    29   opls_828      1    UNK   H0T      1     0.0934     1.0080 
    30   opls_829      1    UNK   H0U      1     0.1206     1.0080 
    31   opls_830      1    UNK   H0V      1     0.1206     1.0080 
    32   opls_831      1    UNK   H0W      1      0.146     1.0080 
    33   opls_832      1    UNK   H0X      2      0.146     1.0080 
[ bonds ]
    2     1     1      0.1529 224262.400
    3     2     1      0.1522 265265.600
    4     3     1      0.1229 476976.000
    5     3     1      0.1327 179075.200
    6     5     1      0.1410 267776.000
    7     6     1      0.1529 224262.400
    8     7     1      0.1529 224262.400
    9     8     1      0.1529 224262.400
   10     9     1      0.1529 224262.400
   11     8     1      0.1529 224262.400
   12    11     1      0.1529 224262.400
   13    12     1      0.1522 265265.600
   14    13     1      0.1229 476976.000
   15     8     1      0.1410 267776.000
   16     1     1      0.1090 284512.000
   17     1     1      0.1090 284512.000
   18     1     1      0.1090 284512.000
   19     2     1      0.1090 284512.000
   20     2     1      0.1090 284512.000
   21     6     1      0.1090 284512.000
   22     6     1      0.1090 284512.000
   23     7     1      0.1090 284512.000
   24     7     1      0.1090 284512.000
   25     9     1      0.1090 284512.000
   26     9     1      0.1090 284512.000
   27    10     1      0.1090 284512.000
   28    10     1      0.1090 284512.000
   29    10     1      0.1090 284512.000
   30    11     1      0.1090 284512.000
   31    11     1      0.1090 284512.000
   32    12     1      0.1090 284512.000
   33    12     1      0.1090 284512.000
   15    13     1      0.1327 179075.200

[ angles ]
;  ai    aj    ak funct            c0            c1            c2            c3 
    1     2     3     1    111.100    527.184
    2     3     4     1    120.400    669.440
    2     3     5     1    111.400    677.808
    3     5     6     1    116.900    694.544
    5     6     7     1    109.500    418.400
    6     7     8     1    112.700    488.273
    7     8     9     1    112.700    488.273
    8     9    10     1    112.700    488.273
    7     8    11     1    112.700    488.273
    8    11    12     1    112.700    488.273
   11    12    13     1    111.100    527.184
   12    13    14     1    120.400    669.440
    7     8    15     1    109.500    418.400
    2     1    16     1    110.700    313.800
    2     1    17     1    110.700    313.800
    2     1    18     1    110.700    313.800
    1     2    19     1    110.700    313.800
    1     2    20     1    110.700    313.800
    5     6    21     1    109.500    292.880
    5     6    22     1    109.500    292.880
    6     7    23     1    110.700    313.800
    6     7    24     1    110.700    313.800
    8     9    25     1    110.700    313.800
    8     9    26     1    110.700    313.800
    9    10    27     1    110.700    313.800
    9    10    28     1    110.700    313.800
    9    10    29     1    110.700    313.800
    8    11    30     1    110.700    313.800
    8    11    31     1    110.700    313.800
   11    12    32     1    110.700    313.800
   11    12    33     1    110.700    313.800
   23     7    24     1    107.800    276.144
   16     1    17     1    107.800    276.144
   27    10    28     1    107.800    276.144
    3     2    20     1    109.500    292.880
    7     6    22     1    110.700    313.800
   21     6    22     1    107.800    276.144
   28    10    29     1    107.800    276.144
   25     9    26     1    107.800    276.144
   12    11    31     1    110.700    313.800
   10     9    26     1    110.700    313.800
   13    12    33     1    109.500    292.880
   14    13    15     1    123.400    694.544
   12    11    30     1    110.700    313.800
    4     3     5     1    123.400    694.544
    8     7    23     1    110.700    313.800
    3     2    19     1    109.500    292.880
   12    13    15     1    111.400    677.808
    9     8    15     1    109.500    418.400
   19     2    20     1    107.800    276.144
   10     9    25     1    110.700    313.800
   30    11    31     1    107.800    276.144
    9     8    11     1    112.700    488.273
   32    12    33     1    107.800    276.144
   17     1    18     1    107.800    276.144
   16     1    18     1    107.800    276.144
   11     8    15     1    109.500    418.400
   13    12    32     1    109.500    292.880
    8     7    24     1    110.700    313.800
   27    10    29     1    107.800    276.144
    8    15    13     1    116.900    694.544
    7     6    21     1    110.700    313.800

[ dihedrals ]
; IMPROPER DIHEDRAL ANGLES 
;  ai    aj    ak    al funct            c0            c1            c2            c3            c4            c5
    12    13    14    15    4        180.000     43.932     2  
     5     3     2     4    4        180.000     43.932     2  

[ dihedrals ]
; PROPER DIHEDRAL ANGLES
;  ai    aj    ak    al funct            c0            c1            c2            c3            c4            c5
   13   12   11    8        3      -4.960   6.286   1.310  -2.636  -0.000   0.000
   13   15    8    9        3      -2.197   5.201   0.527  -3.531  -0.000   0.000
   13   15    8    7        3      -2.197   5.201   0.527  -3.531  -0.000   0.000
   13   15    8   11        3      -2.197   5.201   0.527  -3.531  -0.000   0.000
   12   13   15    8        3      31.206  -9.768  -21.439  -0.000  -0.000   0.000
    9    8    7    6        3       2.301  -1.464   0.837  -1.674  -0.000   0.000
   10    9    8    7        3       2.301  -1.464   0.837  -1.674  -0.000   0.000
   12   11    8    7        3       2.301  -1.464   0.837  -1.674  -0.000   0.000
   12   11    8    9        3       2.301  -1.464   0.837  -1.674  -0.000   0.000
   11    8    9   10        3       2.301  -1.464   0.837  -1.674  -0.000   0.000
   11    8    7    6        3       2.301  -1.464   0.837  -1.674  -0.000   0.000
    8    7    6    5        3       2.874   0.582   2.092  -5.548  -0.000   0.000
    7    6    5    3        3      -2.197   5.201   0.527  -3.531  -0.000   0.000
    6    5    3    2        3      31.206  -9.768  -21.439  -0.000  -0.000   0.000
    6    5    3    4        3      21.439   0.000  -21.439  -0.000  -0.000   0.000
   19    2    3    4        3       0.000   0.000   0.000  -0.000  -0.000   0.000
   20    2    3    4        3       0.000   0.000   0.000  -0.000  -0.000   0.000
   33   12   13   14        3       0.000   0.000   0.000  -0.000  -0.000   0.000
   32   12   13   14        3       0.000   0.000   0.000  -0.000  -0.000   0.000
   32   12   13   15        3       0.276   0.828   0.000  -1.105  -0.000   0.000
   19    2    3    5        3       0.276   0.828   0.000  -1.105  -0.000   0.000
   20    2    3    5        3       0.276   0.828   0.000  -1.105  -0.000   0.000
   33   12   13   15        3       0.276   0.828   0.000  -1.105  -0.000   0.000
   18    1    2    3        3      -0.209  -0.628   0.000   0.837  -0.000   0.000
   31   11   12   13        3      -0.209  -0.628   0.000   0.837  -0.000   0.000
   16    1    2    3        3      -0.209  -0.628   0.000   0.837  -0.000   0.000
   17    1    2    3        3      -0.209  -0.628   0.000   0.837  -0.000   0.000
   30   11   12   13        3      -0.209  -0.628   0.000   0.837  -0.000   0.000
   33   12   11    8        3       0.628   1.883   0.000  -2.510  -0.000   0.000
   28   10    9    8        3       0.628   1.883   0.000  -2.510  -0.000   0.000
   22    6    7    8        3       0.628   1.883   0.000  -2.510  -0.000   0.000
   29   10    9    8        3       0.628   1.883   0.000  -2.510  -0.000   0.000
   26    9    8    7        3       0.628   1.883   0.000  -2.510  -0.000   0.000
   25    9    8   11        3       0.628   1.883   0.000  -2.510  -0.000   0.000
   21    6    7    8        3       0.628   1.883   0.000  -2.510  -0.000   0.000
   32   12   11    8        3       0.628   1.883   0.000  -2.510  -0.000   0.000
   31   11    8    9        3       0.628   1.883   0.000  -2.510  -0.000   0.000
   23    7    8   11        3       0.628   1.883   0.000  -2.510  -0.000   0.000
   24    7    8   11        3       0.628   1.883   0.000  -2.510  -0.000   0.000
   25    9    8    7        3       0.628   1.883   0.000  -2.510  -0.000   0.000
   31   11    8    7        3       0.628   1.883   0.000  -2.510  -0.000   0.000
   30   11    8    9        3       0.628   1.883   0.000  -2.510  -0.000   0.000
   27   10    9    8        3       0.628   1.883   0.000  -2.510  -0.000   0.000
   30   11    8    7        3       0.628   1.883   0.000  -2.510  -0.000   0.000
   24    7    8    9        3       0.628   1.883   0.000  -2.510  -0.000   0.000
   23    7    8    9        3       0.628   1.883   0.000  -2.510  -0.000   0.000
   26    9    8   11        3       0.628   1.883   0.000  -2.510  -0.000   0.000
   32   12   11   30        3       0.628   1.883   0.000  -2.510  -0.000   0.000
   29   10    9   26        3       0.628   1.883   0.000  -2.510  -0.000   0.000
   23    7    6   21        3       0.628   1.883   0.000  -2.510  -0.000   0.000
   33   12   11   30        3       0.628   1.883   0.000  -2.510  -0.000   0.000
   32   12   11   31        3       0.628   1.883   0.000  -2.510  -0.000   0.000
   24    7    6   21        3       0.628   1.883   0.000  -2.510  -0.000   0.000
   23    7    6   22        3       0.628   1.883   0.000  -2.510  -0.000   0.000
   28   10    9   25        3       0.628   1.883   0.000  -2.510  -0.000   0.000
   27   10    9   25        3       0.628   1.883   0.000  -2.510  -0.000   0.000
   20    2    1   16        3       0.628   1.883   0.000  -2.510  -0.000   0.000
   33   12   11   31        3       0.628   1.883   0.000  -2.510  -0.000   0.000
   20    2    1   17        3       0.628   1.883   0.000  -2.510  -0.000   0.000
   20    2    1   18        3       0.628   1.883   0.000  -2.510  -0.000   0.000
   28   10    9   26        3       0.628   1.883   0.000  -2.510  -0.000   0.000
   29   10    9   25        3       0.628   1.883   0.000  -2.510  -0.000   0.000
   27   10    9   26        3       0.628   1.883   0.000  -2.510  -0.000   0.000
   19    2    1   16        3       0.628   1.883   0.000  -2.510  -0.000   0.000
   19    2    1   18        3       0.628   1.883   0.000  -2.510  -0.000   0.000
   19    2    1   17        3       0.628   1.883   0.000  -2.510  -0.000   0.000
   24    7    6   22        3       0.628   1.883   0.000  -2.510  -0.000   0.000
   30   11    8   15        3       0.979   2.937   0.000  -3.916  -0.000   0.000
   25    9    8   15        3       0.979   2.937   0.000  -3.916  -0.000   0.000
   23    7    6    5        3       0.979   2.937   0.000  -3.916  -0.000   0.000
   24    7    6    5        3       0.979   2.937   0.000  -3.916  -0.000   0.000
   24    7    8   15        3       0.979   2.937   0.000  -3.916  -0.000   0.000
   23    7    8   15        3       0.979   2.937   0.000  -3.916  -0.000   0.000
   26    9    8   15        3       0.979   2.937   0.000  -3.916  -0.000   0.000
   31   11    8   15        3       0.979   2.937   0.000  -3.916  -0.000   0.000
   22    6    5    3        3       0.414   1.243   0.000  -1.657  -0.000   0.000
   21    6    5    3        3       0.414   1.243   0.000  -1.657  -0.000   0.000
   14   13   12   11        3       0.000   0.000   0.000  -0.000  -0.000   0.000
    4    3    2    1        3       0.000   0.000   0.000  -0.000  -0.000   0.000
   14   13   15    8        3      21.439   0.000  -21.439  -0.000  -0.000   0.000
    5    3    2    1        3      -1.157  -3.471   0.000   4.628  -0.000   0.000
   15   13   12   11        3      -1.157  -3.471   0.000   4.628  -0.000   0.000
   15    8    9   10        3       2.874   0.582   2.092  -5.548  -0.000   0.000
   15    8   11   12        3       2.874   0.582   2.092  -5.548  -0.000   0.000
   15    8    7    6        3       2.874   0.582   2.092  -5.548  -0.000   0.000

[ pairs ]
     1     4    1
     1     5    1
     2     6    1
     4     6    1
     3     7    1
     5     8    1
     6     9    1
     7    10    1
     6    11    1
     7    12    1
     3    16    1
     7    13    1
     3    17    1
    10    11    1
     9    12    1
     6    15    1
     3    18    1
     9    13    1
     8    14    1
     4    19    1
     5    19    1
     4    20    1
     3    21    1
    11    14    1
    10    15    1
     5    20    1
     3    22    1
     5    23    1
     8    21    1
     5    24    1
     8    22    1
     9    23    1
     7    25    1
     9    24    1
     7    26    1
    11    23    1
    16    19    1
    11    24    1
     8    27    1
    17    19    1
    16    20    1
    11    25    1
     8    28    1
    18    19    1
    17    20    1
    11    26    1
     8    29    1
     7    30    1
    18    20    1
    15    23    1
     7    31    1
    15    24    1
     9    30    1
    15    25    1
     9    31    1
     8    32    1
    15    26    1
     8    33    1
    13    30    1
    21    23    1
    13    31    1
    22    23    1
    21    24    1
    15    30    1
    22    24    1
    15    31    1
    14    32    1
    15    32    1
    14    33    1
    15    33    1
    25    27    1
    26    27    1
    25    28    1
    26    28    1
    25    29    1
    26    29    1
    30    32    1
    31    32    1
    30    33    1
    31    33    1

