LIGPARGEN GENERATED GRO FILE
   45
    1UNK    C00    1   0.100   0.100   0.000
    1UNK    N01    2  -0.045   0.100   0.000
    1UNK    C02    3  -0.103   0.100   0.134
    1UNK    C03    4  -0.114   0.239   0.202
    1UNK    C04    5  -0.176   0.224   0.343
    1UNK    S05    6  -0.077   0.133   0.461
    1UNK    C06    7  -0.174   0.144   0.609
    1UNK    O07    8  -0.076  -0.007   0.423
    1UNK    O08    9   0.047   0.206   0.483
    1UNK    C09   10  -0.192   0.342   0.108
    1UNK    C0A   11  -0.182   0.485   0.168
    1UNK    C0B   12  -0.341   0.298   0.095
    1UNK    C0C   13  -0.441   0.305   0.208
    1UNK    C0D   14  -0.457   0.395   0.090
    1UNK    C0E   15  -0.123   0.341  -0.038
    1UNK    C0F   16   0.017   0.410  -0.037
    1UNK    C0G   17  -0.206   0.417  -0.145
    1UNK    C0H   18  -0.108   0.196  -0.090
    1UNK    H0I   19   0.137   0.006   0.042
    1UNK    H0J   20   0.143   0.181   0.059
    1UNK    H0K   21   0.140   0.106  -0.102
    1UNK    H0M   22  -0.043   0.033   0.195
    1UNK    H0N   23  -0.202   0.054   0.130
    1UNK    H0O   24  -0.012   0.277   0.216
    1UNK    H0P   25  -0.271   0.170   0.339
    1UNK    H0Q   26  -0.191   0.322   0.389
    1UNK    H0R   27  -0.279   0.126   0.584
    1UNK    H0S   28  -0.162   0.243   0.654
    1UNK    H0T   29  -0.139   0.066   0.678
    1UNK    H0U   30  -0.237   0.495   0.262
    1UNK    H0V   31  -0.222   0.560   0.100
    1UNK    H0W   32  -0.078   0.512   0.189
    1UNK    H0X   33  -0.351   0.211   0.031
    1UNK    H0Y   34  -0.416   0.352   0.302
    1UNK    H0Z   35  -0.509   0.221   0.219
    1UNK    H10   36  -0.443   0.501   0.108
    1UNK    H11   37  -0.539   0.374   0.023
    1UNK    H12   38   0.006   0.520  -0.033
    1UNK    H13   39   0.072   0.388  -0.129
    1UNK    H14   40   0.078   0.381   0.047
    1UNK    H15   41  -0.221   0.522  -0.118
    1UNK    H16   42  -0.304   0.371  -0.160
    1UNK    H17   43  -0.154   0.416  -0.242
    1UNK    H18   44  -0.056   0.195  -0.186
    1UNK    H19   45  -0.207   0.156  -0.115
   1.00000   1.00000   1.00000

