
;
; GENERATED BY LigParGen Server
; Jorgensen Lab @ Yale University 
;
[ atomtypes ]
  opls_818  H818     1.0080     0.000    A    2.50000E-01   1.25520E-01
  opls_814  C814    12.0110     0.000    A    3.50000E-01   2.76144E-01
  opls_824  H824     1.0080     0.000    A    2.50000E-01   1.25520E-01
  opls_801  N801    14.0070     0.000    A    3.30000E-01   7.11280E-01
  opls_804  C804    12.0110     0.000    A    3.50000E-01   2.76144E-01
  opls_808  O808    15.9990     0.000    A    2.96000E-01   7.11280E-01
  opls_843  H843     1.0080     0.000    A    2.50000E-01   1.25520E-01
  opls_807  O807    15.9990     0.000    A    2.96000E-01   7.11280E-01
  opls_836  H836     1.0080     0.000    A    2.50000E-01   1.25520E-01
  opls_805  S805    32.0600     0.000    A    3.55000E-01   1.04600E+00
  opls_828  H828     1.0080     0.000    A    2.50000E-01   1.25520E-01
  opls_802  C802    12.0110     0.000    A    3.50000E-01   2.76144E-01
  opls_827  H827     1.0080     0.000    A    2.50000E-01   1.25520E-01
  opls_809  C809    12.0110     0.000    A    3.50000E-01   2.76144E-01
  opls_838  H838     1.0080     0.000    A    2.50000E-01   1.25520E-01
  opls_822  H822     1.0080     0.000    A    2.50000E-01   1.25520E-01
  opls_803  C803    12.0110     0.000    A    3.50000E-01   2.76144E-01
  opls_825  H825     1.0080     0.000    A    2.50000E-01   1.25520E-01
  opls_815  C815    12.0110     0.000    A    3.50000E-01   2.76144E-01
  opls_830  H830     1.0080     0.000    A    2.50000E-01   1.25520E-01
  opls_816  C816    12.0110     0.000    A    3.50000E-01   2.76144E-01
  opls_842  H842     1.0080     0.000    A    2.50000E-01   1.25520E-01
  opls_820  H820     1.0080     0.000    A    2.50000E-01   1.25520E-01
  opls_826  H826     1.0080     0.000    A    2.50000E-01   1.25520E-01
  opls_837  H837     1.0080     0.000    A    2.50000E-01   1.25520E-01
  opls_821  H821     1.0080     0.000    A    2.50000E-01   1.25520E-01
  opls_834  H834     1.0080     0.000    A    2.50000E-01   1.25520E-01
  opls_831  H831     1.0080     0.000    A    2.50000E-01   1.25520E-01
  opls_832  H832     1.0080     0.000    A    2.50000E-01   1.25520E-01
  opls_800  C800    12.0110     0.000    A    3.50000E-01   2.76144E-01
  opls_813  C813    12.0110     0.000    A    3.45000E-01   3.47272E-01
  opls_806  C806    12.0110     0.000    A    3.50000E-01   2.76144E-01
  opls_823  H823     1.0080     0.000    A    2.50000E-01   1.25520E-01
  opls_811  C811    12.0110     0.000    A    3.45000E-01   3.47272E-01
  opls_835  H835     1.0080     0.000    A    2.50000E-01   1.25520E-01
  opls_841  H841     1.0080     0.000    A    2.50000E-01   1.25520E-01
  opls_819  H819     1.0080     0.000    A    2.50000E-01   1.25520E-01
  opls_810  C810    12.0110     0.000    A    3.50000E-01   2.76144E-01
  opls_833  H833     1.0080     0.000    A    2.50000E-01   1.25520E-01
  opls_839  H839     1.0080     0.000    A    2.50000E-01   1.25520E-01
  opls_817  C817    12.0110     0.000    A    3.50000E-01   2.76144E-01
  opls_840  H840     1.0080     0.000    A    2.50000E-01   1.25520E-01
  opls_812  C812    12.0110     0.000    A    3.45000E-01   3.47272E-01
  opls_829  H829     1.0080     0.000    A    2.50000E-01   1.25520E-01
  opls_844  H844     1.0080     0.000    A    2.50000E-01   1.25520E-01
[ moleculetype ]
; Name               nrexcl
UNK                   3
[ atoms ]
;   nr       type  resnr residue  atom   cgnr     charge       mass  
     1   opls_800      1    UNK   C00      1    -0.0249    12.0110 
     2   opls_801      1    UNK   N01      1    -0.6337    14.0070 
     3   opls_802      1    UNK   C02      1      0.024    12.0110 
     4   opls_803      1    UNK   C03      1    -0.0901    12.0110 
     5   opls_804      1    UNK   C04      1    -0.4835    12.0110 
     6   opls_805      1    UNK   S05      1     1.2933    32.0600 
     7   opls_806      1    UNK   C06      1    -0.5909    12.0110 
     8   opls_807      1    UNK   O07      1    -0.5697    15.9990 
     9   opls_808      1    UNK   O08      1    -0.5697    15.9990 
    10   opls_809      1    UNK   C09      1     0.0269    12.0110 
    11   opls_810      1    UNK   C0A      1    -0.2342    12.0110 
    12   opls_811      1    UNK   C0B      1    -0.1664    12.0110 
    13   opls_812      1    UNK   C0C      1    -0.2525    12.0110 
    14   opls_813      1    UNK   C0D      1    -0.2356    12.0110 
    15   opls_814      1    UNK   C0E      1    -0.0708    12.0110 
    16   opls_815      1    UNK   C0F      1    -0.2326    12.0110 
    17   opls_816      1    UNK   C0G      1    -0.2283    12.0110 
    18   opls_817      1    UNK   C0H      1     0.0431    12.0110 
    19   opls_818      1    UNK   H0I      1      0.082     1.0080 
    20   opls_819      1    UNK   H0J      1      0.082     1.0080 
    21   opls_820      1    UNK   H0K      1      0.082     1.0080 
    22   opls_821      1    UNK   H0M      1     0.1177     1.0080 
    23   opls_822      1    UNK   H0N      1     0.1177     1.0080 
    24   opls_823      1    UNK   H0O      1     0.1145     1.0080 
    25   opls_824      1    UNK   H0P      1     0.1556     1.0080 
    26   opls_825      1    UNK   H0Q      1     0.1556     1.0080 
    27   opls_826      1    UNK   H0R      1     0.1667     1.0080 
    28   opls_827      1    UNK   H0S      1     0.1667     1.0080 
    29   opls_828      1    UNK   H0T      1     0.1667     1.0080 
    30   opls_829      1    UNK   H0U      1      0.085     1.0080 
    31   opls_830      1    UNK   H0V      1      0.085     1.0080 
    32   opls_831      1    UNK   H0W      1      0.085     1.0080 
    33   opls_832      1    UNK   H0X      2      0.138     1.0080 
    34   opls_833      1    UNK   H0Y      2     0.1193     1.0080 
    35   opls_834      1    UNK   H0Z      2     0.1193     1.0080 
    36   opls_835      1    UNK   H10      2     0.1244     1.0080 
    37   opls_836      1    UNK   H11      2     0.1244     1.0080 
    38   opls_837      1    UNK   H12      2     0.0842     1.0080 
    39   opls_838      1    UNK   H13      2     0.0842     1.0080 
    40   opls_839      1    UNK   H14      2     0.0842     1.0080 
    41   opls_840      1    UNK   H15      2     0.0841     1.0080 
    42   opls_841      1    UNK   H16      2     0.0841     1.0080 
    43   opls_842      1    UNK   H17      2     0.0841     1.0080 
    44   opls_843      1    UNK   H18      2     0.1018     1.0080 
    45   opls_844      1    UNK   H19      2     0.1018     1.0080 
[ bonds ]
    2     1     1      0.1448 319657.600
    3     2     1      0.1448 319657.600
    4     3     1      0.1529 224262.400
    5     4     1      0.1529 224262.400
    6     5     1      0.1770 284512.000
    7     6     1      0.1770 284512.000
    8     6     1      0.1440 585760.000
    9     6     1      0.1440 585760.000
   10     4     1      0.1529 224262.400
   11    10     1      0.1529 224262.400
   12    10     1      0.1510 234304.000
   13    12     1      0.1520 217568.000
   14    12     1      0.1520 217568.000
   15    10     1      0.1529 224262.400
   16    15     1      0.1529 224262.400
   17    15     1      0.1529 224262.400
   18     2     1      0.1448 319657.600
   19     1     1      0.1090 284512.000
   20     1     1      0.1090 284512.000
   21     1     1      0.1090 284512.000
   22     3     1      0.1090 284512.000
   23     3     1      0.1090 284512.000
   24     4     1      0.1090 284512.000
   25     5     1      0.1090 284512.000
   26     5     1      0.1090 284512.000
   27     7     1      0.1090 284512.000
   28     7     1      0.1090 284512.000
   29     7     1      0.1090 284512.000
   30    11     1      0.1090 284512.000
   31    11     1      0.1090 284512.000
   32    11     1      0.1090 284512.000
   33    12     1      0.1088 284512.000
   34    13     1      0.1088 284512.000
   35    13     1      0.1088 284512.000
   36    14     1      0.1088 284512.000
   37    14     1      0.1088 284512.000
   38    16     1      0.1090 284512.000
   39    16     1      0.1090 284512.000
   40    16     1      0.1090 284512.000
   41    17     1      0.1090 284512.000
   42    17     1      0.1090 284512.000
   43    17     1      0.1090 284512.000
   44    18     1      0.1090 284512.000
   45    18     1      0.1090 284512.000
   14    13     1      0.1520 217568.000
   18    15     1      0.1529 224262.400

[ angles ]
;  ai    aj    ak funct            c0            c1            c2            c3 
    1     2     3     1    107.200    433.462
    2     3     4     1    109.470    470.282
    3     4     5     1    112.700    488.273
    4     5     6     1    108.600    418.400
    5     6     7     1    102.000    518.816
    5     6     8     1    108.900    619.232
    5     6     9     1    108.900    619.232
    3     4    10     1    112.700    488.273
    4    10    11     1    112.700    488.273
    4    10    12     1    112.700    488.273
   10    12    13     1    117.200    313.800
   10    12    14     1    117.200    313.800
    4    10    15     1    112.700    488.273
   10    15    16     1    112.700    488.273
   10    15    17     1    112.700    488.273
    1     2    18     1    107.200    433.462
    2     1    19     1    109.500    292.880
    2     1    20     1    109.500    292.880
    2     1    21     1    109.500    292.880
    2     3    22     1    109.500    292.880
    2     3    23     1    109.500    292.880
    3     4    24     1    110.700    313.800
    4     5    25     1    110.700    313.800
    4     5    26     1    110.700    313.800
    6     7    27     1    109.500    292.880
    6     7    28     1    109.500    292.880
    6     7    29     1    109.500    292.880
   10    11    30     1    110.700    313.800
   10    11    31     1    110.700    313.800
   10    11    32     1    110.700    313.800
   10    12    33     1    114.300    292.880
   12    13    34     1    117.200    313.800
   12    13    35     1    117.200    313.800
   12    14    36     1    117.200    313.800
   12    14    37     1    117.200    313.800
   15    16    38     1    110.700    313.800
   15    16    39     1    110.700    313.800
   15    16    40     1    110.700    313.800
   15    17    41     1    110.700    313.800
   15    17    42     1    110.700    313.800
   15    17    43     1    110.700    313.800
    2    18    44     1    109.500    292.880
    2    18    45     1    109.500    292.880
   11    10    15     1    112.700    488.273
   13    12    14     1     83.000    251.040
   11    10    12     1    112.700    488.273
   41    17    43     1    107.800    276.144
   22     3    23     1    107.800    276.144
    4     3    23     1    110.700    313.800
   14    13    34     1    117.200    313.800
   19     1    21     1    107.800    276.144
   12    14    13     1     83.000    251.040
   25     5    26     1    107.800    276.144
   30    11    32     1    107.800    276.144
   16    15    17     1    112.700    488.273
    6     5    26     1    109.500    292.880
   30    11    31     1    107.800    276.144
   27     7    28     1    107.800    276.144
   42    17    43     1    107.800    276.144
   13    14    37     1    117.200    313.800
   39    16    40     1    107.800    276.144
    5     4    24     1    110.700    313.800
   14    13    35     1    117.200    313.800
    4     3    22     1    110.700    313.800
   28     7    29     1    107.800    276.144
   44    18    45     1    107.800    276.144
   41    17    42     1    107.800    276.144
    2    18    15     1    109.470    470.282
   10     4    24     1    110.700    313.800
   13    14    36     1    117.200    313.800
   27     7    29     1    107.800    276.144
   16    15    18     1    112.700    488.273
   15    18    44     1    110.700    313.800
   38    16    40     1    107.800    276.144
    8     6     9     1    119.000    870.272
   10    15    18     1    112.700    488.273
   12    10    15     1    112.700    488.273
    3     2    18     1    107.200    433.462
    7     6     9     1    108.900    619.232
   34    13    35     1    114.300    292.880
   31    11    32     1    107.800    276.144
   20     1    21     1    107.800    276.144
   14    12    33     1    117.200    313.800
   15    18    45     1    110.700    313.800
   12    13    14     1     83.000    251.040
    7     6     8     1    108.900    619.232
    6     5    25     1    109.500    292.880
   19     1    20     1    107.800    276.144
   13    12    33     1    117.200    313.800
   36    14    37     1    114.300    292.880
    5     4    10     1    112.700    488.273
   38    16    39     1    107.800    276.144
   17    15    18     1    112.700    488.273

[ dihedrals ]
; IMPROPER DIHEDRAL ANGLES 
;  ai    aj    ak    al funct            c0            c1            c2            c3            c4            c5

[ dihedrals ]
; PROPER DIHEDRAL ANGLES
;  ai    aj    ak    al funct            c0            c1            c2            c3            c4            c5
   16   15   10    4        3       2.301  -1.464   0.837  -1.674  -0.000   0.000
   17   15   10    4        3       2.301  -1.464   0.837  -1.674  -0.000   0.000
   18   15   10    4        3       2.301  -1.464   0.837  -1.674  -0.000   0.000
   17   15   10   11        3       2.301  -1.464   0.837  -1.674  -0.000   0.000
   16   15   10   11        3       2.301  -1.464   0.837  -1.674  -0.000   0.000
   15   10    4    5        3       2.301  -1.464   0.837  -1.674  -0.000   0.000
   15   10    4    3        3       2.301  -1.464   0.837  -1.674  -0.000   0.000
   11   10    4    5        3       2.301  -1.464   0.837  -1.674  -0.000   0.000
   11   10    4    3        3       2.301  -1.464   0.837  -1.674  -0.000   0.000
   18   15   10   11        3       2.301  -1.464   0.837  -1.674  -0.000   0.000
   16   15   10   12        3       2.301  -1.464   0.837  -1.674  -0.000   0.000
   17   15   10   12        3       2.301  -1.464   0.837  -1.674  -0.000   0.000
   18   15   10   12        3       2.301  -1.464   0.837  -1.674  -0.000   0.000
   10   15   18    2        3       3.335  -1.552   2.820  -4.602  -0.000   0.000
   16   15   18    2        3       3.335  -1.552   2.820  -4.602  -0.000   0.000
   10    4    3    2        3       3.335  -1.552   2.820  -4.602  -0.000   0.000
   17   15   18    2        3       3.335  -1.552   2.820  -4.602  -0.000   0.000
    5    4    3    2        3       3.335  -1.552   2.820  -4.602  -0.000   0.000
   10    4    5    6        3       2.784   0.278   0.828  -3.891  -0.000   0.000
   15   10   12   13        3       0.000   0.000   0.000  -0.000  -0.000   0.000
   15   10   12   14        3       0.000   0.000   0.000  -0.000  -0.000   0.000
   15   18    2    3        3       1.789   3.492   0.536  -5.816  -0.000   0.000
   15   18    2    1        3       1.789   3.492   0.536  -5.816  -0.000   0.000
    4    3    2    1        3       1.789   3.492   0.536  -5.816  -0.000   0.000
   18    2    3    4        3       1.789   3.492   0.536  -5.816  -0.000   0.000
    7    6    5    4        3       0.000   0.000   0.000  -0.000  -0.000   0.000
   12   10    4    3        3       2.301  -1.464   0.837  -1.674  -0.000   0.000
   12   10    4    5        3       2.301  -1.464   0.837  -1.674  -0.000   0.000
   14   12   10    4        3       0.000   0.000   0.000  -0.000  -0.000   0.000
   13   12   10   11        3       0.000   0.000   0.000  -0.000  -0.000   0.000
   13   12   10    4        3       0.000   0.000   0.000  -0.000  -0.000   0.000
   14   12   10   11        3       0.000   0.000   0.000  -0.000  -0.000   0.000
   14   12   10   13        3       0.000   0.000   0.000  -0.000  -0.000   0.000
   44   18   15   10        3       0.628   1.883   0.000  -2.510  -0.000   0.000
   38   16   15   18        3       0.628   1.883   0.000  -2.510  -0.000   0.000
   32   11   10    4        3       0.628   1.883   0.000  -2.510  -0.000   0.000
   38   16   15   17        3       0.628   1.883   0.000  -2.510  -0.000   0.000
   43   17   15   10        3       0.628   1.883   0.000  -2.510  -0.000   0.000
   30   11   10   15        3       0.628   1.883   0.000  -2.510  -0.000   0.000
   31   11   10    4        3       0.628   1.883   0.000  -2.510  -0.000   0.000
   44   18   15   17        3       0.628   1.883   0.000  -2.510  -0.000   0.000
   39   16   15   10        3       0.628   1.883   0.000  -2.510  -0.000   0.000
   42   17   15   16        3       0.628   1.883   0.000  -2.510  -0.000   0.000
   42   17   15   18        3       0.628   1.883   0.000  -2.510  -0.000   0.000
   23    3    4    5        3       0.628   1.883   0.000  -2.510  -0.000   0.000
   41   17   15   18        3       0.628   1.883   0.000  -2.510  -0.000   0.000
   40   16   15   18        3       0.628   1.883   0.000  -2.510  -0.000   0.000
   25    5    4   10        3       0.628   1.883   0.000  -2.510  -0.000   0.000
   41   17   15   16        3       0.628   1.883   0.000  -2.510  -0.000   0.000
   22    3    4    5        3       0.628   1.883   0.000  -2.510  -0.000   0.000
   26    5    4    3        3       0.628   1.883   0.000  -2.510  -0.000   0.000
   23    3    4   10        3       0.628   1.883   0.000  -2.510  -0.000   0.000
   45   18   15   17        3       0.628   1.883   0.000  -2.510  -0.000   0.000
   26    5    4   10        3       0.628   1.883   0.000  -2.510  -0.000   0.000
   45   18   15   10        3       0.628   1.883   0.000  -2.510  -0.000   0.000
   40   16   15   17        3       0.628   1.883   0.000  -2.510  -0.000   0.000
   39   16   15   18        3       0.628   1.883   0.000  -2.510  -0.000   0.000
   42   17   15   10        3       0.628   1.883   0.000  -2.510  -0.000   0.000
   43   17   15   16        3       0.628   1.883   0.000  -2.510  -0.000   0.000
   44   18   15   16        3       0.628   1.883   0.000  -2.510  -0.000   0.000
   24    4   10   11        3       0.628   1.883   0.000  -2.510  -0.000   0.000
   39   16   15   17        3       0.628   1.883   0.000  -2.510  -0.000   0.000
   30   11   10    4        3       0.628   1.883   0.000  -2.510  -0.000   0.000
   38   16   15   10        3       0.628   1.883   0.000  -2.510  -0.000   0.000
   41   17   15   10        3       0.628   1.883   0.000  -2.510  -0.000   0.000
   32   11   10   15        3       0.628   1.883   0.000  -2.510  -0.000   0.000
   40   16   15   10        3       0.628   1.883   0.000  -2.510  -0.000   0.000
   22    3    4   10        3       0.628   1.883   0.000  -2.510  -0.000   0.000
   25    5    4    3        3       0.628   1.883   0.000  -2.510  -0.000   0.000
   45   18   15   16        3       0.628   1.883   0.000  -2.510  -0.000   0.000
   43   17   15   18        3       0.628   1.883   0.000  -2.510  -0.000   0.000
   24    4   10   15        3       0.628   1.883   0.000  -2.510  -0.000   0.000
   31   11   10   15        3       0.628   1.883   0.000  -2.510  -0.000   0.000
   30   11   10   12        3       0.628   1.883   0.000  -2.510  -0.000   0.000
   31   11   10   12        3       0.628   1.883   0.000  -2.510  -0.000   0.000
   24    4   10   12        3       0.628   1.883   0.000  -2.510  -0.000   0.000
   32   11   10   12        3       0.628   1.883   0.000  -2.510  -0.000   0.000
   25    5    4   24        3       0.628   1.883   0.000  -2.510  -0.000   0.000
   24    4    3   23        3       0.628   1.883   0.000  -2.510  -0.000   0.000
   26    5    4   24        3       0.628   1.883   0.000  -2.510  -0.000   0.000
   24    4    3   22        3       0.628   1.883   0.000  -2.510  -0.000   0.000
   24    4    3    2        3      -4.096   5.088   2.966  -3.958  -0.000   0.000
   24    4    5    6        3       0.946   2.837   0.000  -3.782  -0.000   0.000
   44   18    2    3        3       1.172   3.515   0.000  -4.686  -0.000   0.000
   22    3    2    1        3       1.172   3.515   0.000  -4.686  -0.000   0.000
   19    1    2   18        3       1.172   3.515   0.000  -4.686  -0.000   0.000
   44   18    2    1        3       1.172   3.515   0.000  -4.686  -0.000   0.000
   20    1    2    3        3       1.172   3.515   0.000  -4.686  -0.000   0.000
   23    3    2    1        3       1.172   3.515   0.000  -4.686  -0.000   0.000
   45   18    2    1        3       1.172   3.515   0.000  -4.686  -0.000   0.000
   21    1    2    3        3       1.172   3.515   0.000  -4.686  -0.000   0.000
   19    1    2    3        3       1.172   3.515   0.000  -4.686  -0.000   0.000
   45   18    2    3        3       1.172   3.515   0.000  -4.686  -0.000   0.000
   20    1    2   18        3       1.172   3.515   0.000  -4.686  -0.000   0.000
   23    3    2   18        3       1.172   3.515   0.000  -4.686  -0.000   0.000
   21    1    2   18        3       1.172   3.515   0.000  -4.686  -0.000   0.000
   22    3    2   18        3       1.172   3.515   0.000  -4.686  -0.000   0.000
   26    5    6    7        3       0.732   2.197   0.000  -2.929  -0.000   0.000
   27    7    6    5        3       0.732   2.197   0.000  -2.929  -0.000   0.000
   29    7    6    5        3       0.732   2.197   0.000  -2.929  -0.000   0.000
   25    5    6    7        3       0.732   2.197   0.000  -2.929  -0.000   0.000
   28    7    6    5        3       0.732   2.197   0.000  -2.929  -0.000   0.000
   25    5    6    9        3       0.732   2.197   0.000  -2.929  -0.000   0.000
   26    5    6    9        3       0.732   2.197   0.000  -2.929  -0.000   0.000
   25    5    6    8        3       0.732   2.197   0.000  -2.929  -0.000   0.000
   27    7    6    9        3       0.732   2.197   0.000  -2.929  -0.000   0.000
   26    5    6    8        3       0.732   2.197   0.000  -2.929  -0.000   0.000
   28    7    6    8        3       0.732   2.197   0.000  -2.929  -0.000   0.000
   28    7    6    9        3       0.732   2.197   0.000  -2.929  -0.000   0.000
   29    7    6    8        3       0.732   2.197   0.000  -2.929  -0.000   0.000
   29    7    6    9        3       0.732   2.197   0.000  -2.929  -0.000   0.000
   27    7    6    8        3       0.732   2.197   0.000  -2.929  -0.000   0.000
   33   12   10    4        3       0.628   1.883   0.000  -2.510  -0.000   0.000
   33   12   10   11        3       0.628   1.883   0.000  -2.510  -0.000   0.000
   33   12   10   15        3       0.628   1.883   0.000  -2.510  -0.000   0.000
   37   14   12   10        3       0.000   0.000   0.000  -0.000  -0.000   0.000
   35   13   12   10        3       0.000   0.000   0.000  -0.000  -0.000   0.000
   36   14   12   10        3       0.000   0.000   0.000  -0.000  -0.000   0.000
   34   13   12   10        3       0.000   0.000   0.000  -0.000  -0.000   0.000
   36   14   13   12        3       0.000   0.000   0.000  -0.000  -0.000   0.000
   35   13   12   14        3       0.000   0.000   0.000  -0.000  -0.000   0.000
   35   13   14   12        3       0.000   0.000   0.000  -0.000  -0.000   0.000
   36   14   12   13        3       0.000   0.000   0.000  -0.000  -0.000   0.000
   37   14   12   13        3       0.000   0.000   0.000  -0.000  -0.000   0.000
   34   13   14   12        3       0.000   0.000   0.000  -0.000  -0.000   0.000
   33   12   14   13        3       0.000   0.000   0.000  -0.000  -0.000   0.000
   33   12   13   14        3       0.000   0.000   0.000  -0.000  -0.000   0.000
   37   14   13   12        3       0.000   0.000   0.000  -0.000  -0.000   0.000
   34   13   12   14        3       0.000   0.000   0.000  -0.000  -0.000   0.000
   37   14   12   33        3       0.000   0.000   0.000  -0.000  -0.000   0.000
   35   13   12   33        3       0.000   0.000   0.000  -0.000  -0.000   0.000
   37   14   13   34        3       0.000   0.000   0.000  -0.000  -0.000   0.000
   34   13   12   33        3       0.000   0.000   0.000  -0.000  -0.000   0.000
   36   14   12   33        3       0.000   0.000   0.000  -0.000  -0.000   0.000
   36   14   13   35        3       0.000   0.000   0.000  -0.000  -0.000   0.000
   37   14   13   35        3       0.000   0.000   0.000  -0.000  -0.000   0.000
   36   14   13   34        3       0.000   0.000   0.000  -0.000  -0.000   0.000
    8    6    5    4        3       0.000   0.000   0.000  -0.000  -0.000   0.000
    9    6    5    4        3       0.000   0.000   0.000  -0.000  -0.000   0.000
    6    5    4    3        3       2.784   0.278   0.828  -3.891  -0.000   0.000

[ pairs ]
     1     4    1
     2     5    1
     3     6    1
     4     7    1
     4     8    1
     2    10    1
     4     9    1
     3    11    1
     3    12    1
     6    10    1
     5    11    1
     1    15    1
     5    12    1
     4    13    1
     4    14    1
     3    15    1
     2    16    1
     2    17    1
     5    15    1
     4    16    1
     4    17    1
     4    18    1
     3    19    1
     3    20    1
     1    22    1
    11    13    1
     3    21    1
     1    23    1
    11    14    1
     2    24    1
    11    16    1
     5    22    1
    13    15    1
    12    16    1
    11    17    1
     5    23    1
     3    25    1
    14    15    1
    12    17    1
    11    18    1
     3    26    1
    12    18    1
     6    24    1
    10    22    1
     7    25    1
     5    27    1
    10    23    1
     8    25    1
     7    26    1
     5    28    1
     9    25    1
     8    26    1
     5    29    1
     4    30    1
    11    24    1
    10    25    1
     9    26    1
     8    27    1
     4    31    1
    12    24    1
    10    26    1
     9    27    1
     8    28    1
     4    32    1
    18    19    1
     9    28    1
     8    29    1
     4    33    1
    18    20    1
     9    29    1
    18    21    1
    15    24    1
    18    22    1
    18    23    1
    12    30    1
    12    31    1
    12    32    1
    11    33    1
    10    34    1
    15    30    1
    10    35    1
     1    44    1
    22    24    1
    15    31    1
    10    36    1
     1    45    1
    23    24    1
    15    32    1
    10    37    1
     3    44    1
    15    33    1
    10    38    1
     3    45    1
    24    25    1
    10    39    1
    24    26    1
    10    40    1
    10    41    1
    10    42    1
    10    43    1
    10    44    1
    17    38    1
    10    45    1
    18    38    1
    17    39    1
    18    39    1
    17    40    1
    16    41    1
    18    40    1
    16    42    1
    18    41    1
    16    43    1
    18    42    1
    16    44    1
    18    43    1
    17    44    1
    16    45    1
    17    45    1
    33    34    1
    33    35    1
    33    36    1
    34    36    1
    33    37    1
    35    36    1
    34    37    1
    35    37    1

