
;
; GENERATED BY LigParGen Server
; Jorgensen Lab @ Yale University 
;
[ atomtypes ]
  opls_826  H826     1.0080     0.000    A    2.50000E-01   1.25520E-01
  opls_816  C816    12.0110     0.000    A    3.45000E-01   3.47272E-01
  opls_814  C814    12.0110     0.000    A    3.50000E-01   2.76144E-01
  opls_824  H824     1.0080     0.000    A    2.50000E-01   1.25520E-01
  opls_815  C815    12.0110     0.000    A    3.45000E-01   3.47272E-01
  opls_805  C805    12.0110     0.000    A    3.50000E-01   2.76144E-01
  opls_843  H843     1.0080     0.000    A    2.50000E-01   1.25520E-01
  opls_810  C810    12.0110     0.000    A    3.45000E-01   3.47272E-01
  opls_836  H836     1.0080     0.000    A    2.50000E-01   1.25520E-01
  opls_834  H834     1.0080     0.000    A    2.50000E-01   1.25520E-01
  opls_828  H828     1.0080     0.000    A    2.50000E-01   1.25520E-01
  opls_851  H851     1.0080     0.000    A    2.50000E-01   1.25520E-01
  opls_812  C812    12.0110     0.000    A    3.50000E-01   2.76144E-01
  opls_806  C806    12.0110     0.000    A    3.50000E-01   2.76144E-01
  opls_827  H827     1.0080     0.000    A    2.50000E-01   1.25520E-01
  opls_809  C809    12.0110     0.000    A    3.50000E-01   2.76144E-01
  opls_838  H838     1.0080     0.000    A    2.50000E-01   1.25520E-01
  opls_822  H822     1.0080     0.000    A    2.50000E-01   1.25520E-01
  opls_807  C807    12.0110     0.000    A    3.50000E-01   2.76144E-01
  opls_830  H830     1.0080     0.000    A    2.50000E-01   1.25520E-01
  opls_802  C802    12.0110     0.000    A    3.45000E-01   3.47272E-01
  opls_821  H821     1.0080     0.000    A    2.50000E-01   1.25520E-01
  opls_842  H842     1.0080     0.000    A    2.50000E-01   1.25520E-01
  opls_820  H820     1.0080     0.000    A    2.50000E-01   1.25520E-01
  opls_803  C803    12.0110     0.000    A    3.45000E-01   3.47272E-01
  opls_837  H837     1.0080     0.000    A    2.50000E-01   1.25520E-01
  opls_829  H829     1.0080     0.000    A    2.50000E-01   1.25520E-01
  opls_831  H831     1.0080     0.000    A    2.50000E-01   1.25520E-01
  opls_832  H832     1.0080     0.000    A    2.50000E-01   1.25520E-01
  opls_800  C800    12.0110     0.000    A    3.50000E-01   2.76144E-01
  opls_819  C819    12.0110     0.000    A    3.45000E-01   3.47272E-01
  opls_846  H846     1.0080     0.000    A    2.50000E-01   1.25520E-01
  opls_848  H848     1.0080     0.000    A    2.50000E-01   1.25520E-01
  opls_823  H823     1.0080     0.000    A    2.50000E-01   1.25520E-01
  opls_833  H833     1.0080     0.000    A    2.50000E-01   1.25520E-01
  opls_813  C813    12.0110     0.000    A    3.50000E-01   2.76144E-01
  opls_811  C811    12.0110     0.000    A    3.45000E-01   3.47272E-01
  opls_835  H835     1.0080     0.000    A    2.50000E-01   1.25520E-01
  opls_841  H841     1.0080     0.000    A    2.50000E-01   1.25520E-01
  opls_825  H825     1.0080     0.000    A    2.50000E-01   1.25520E-01
  opls_804  C804    12.0110     0.000    A    3.50000E-01   2.76144E-01
  opls_839  H839     1.0080     0.000    A    2.50000E-01   1.25520E-01
  opls_817  C817    12.0110     0.000    A    3.50000E-01   2.76144E-01
  opls_801  C801    12.0110     0.000    A    3.50000E-01   2.76144E-01
  opls_808  C808    12.0110     0.000    A    3.50000E-01   2.76144E-01
  opls_850  H850     1.0080     0.000    A    2.50000E-01   1.25520E-01
  opls_840  H840     1.0080     0.000    A    2.50000E-01   1.25520E-01
  opls_849  H849     1.0080     0.000    A    2.50000E-01   1.25520E-01
  opls_847  H847     1.0080     0.000    A    2.50000E-01   1.25520E-01
  opls_818  C818    12.0110     0.000    A    3.45000E-01   3.47272E-01
  opls_844  H844     1.0080     0.000    A    2.50000E-01   1.25520E-01
  opls_845  H845     1.0080     0.000    A    2.50000E-01   1.25520E-01
[ moleculetype ]
; Name               nrexcl
UNK                   3
[ atoms ]
;   nr       type  resnr residue  atom   cgnr     charge       mass  
     1   opls_800      1    UNK   C00      1    -0.2401    12.0110 
     2   opls_801      1    UNK   C01      1    -0.1642    12.0110 
     3   opls_802      1    UNK   C02      1    -0.1419    12.0110 
     4   opls_803      1    UNK   C03      1    -0.2024    12.0110 
     5   opls_804      1    UNK   C04      1    -0.1221    12.0110 
     6   opls_805      1    UNK   C05      1    -0.1818    12.0110 
     7   opls_806      1    UNK   C06      1    -0.1665    12.0110 
     8   opls_807      1    UNK   C07      1    -0.0836    12.0110 
     9   opls_808      1    UNK   C08      1    -0.1855    12.0110 
    10   opls_809      1    UNK   C09      1    -0.1672    12.0110 
    11   opls_810      1    UNK   C0A      1    -0.1294    12.0110 
    12   opls_811      1    UNK   C0B      1    -0.1554    12.0110 
    13   opls_812      1    UNK   C0C      1    -0.1759    12.0110 
    14   opls_813      1    UNK   C0D      1    -0.1827    12.0110 
    15   opls_814      1    UNK   C0E      1    -0.1565    12.0110 
    16   opls_815      1    UNK   C0F      1    -0.1523    12.0110 
    17   opls_816      1    UNK   C0G      1    -0.1108    12.0110 
    18   opls_817      1    UNK   C0H      1    -0.0528    12.0110 
    19   opls_818      1    UNK   C0I      1    -0.1283    12.0110 
    20   opls_819      1    UNK   C0J      1    -0.1323    12.0110 
    21   opls_820      1    UNK   H0K      1     0.0798     1.0080 
    22   opls_821      1    UNK   H0M      1     0.0798     1.0080 
    23   opls_822      1    UNK   H0N      1     0.0798     1.0080 
    24   opls_823      1    UNK   H0O      1     0.0891     1.0080 
    25   opls_824      1    UNK   H0P      1     0.0891     1.0080 
    26   opls_825      1    UNK   H0Q      1     0.1024     1.0080 
    27   opls_826      1    UNK   H0R      1     0.0993     1.0080 
    28   opls_827      1    UNK   H0S      1     0.0922     1.0080 
    29   opls_828      1    UNK   H0T      1     0.0922     1.0080 
    30   opls_829      1    UNK   H0U      1      0.086     1.0080 
    31   opls_830      1    UNK   H0V      1      0.086     1.0080 
    32   opls_831      1    UNK   H0W      1     0.0862     1.0080 
    33   opls_832      1    UNK   H0X      2     0.0862     1.0080 
    34   opls_833      1    UNK   H0Y      2     0.1018     1.0080 
    35   opls_834      1    UNK   H0Z      2     0.0874     1.0080 
    36   opls_835      1    UNK   H10      2     0.0874     1.0080 
    37   opls_836      1    UNK   H11      2      0.091     1.0080 
    38   opls_837      1    UNK   H12      2      0.091     1.0080 
    39   opls_838      1    UNK   H13      2     0.1112     1.0080 
    40   opls_839      1    UNK   H14      2     0.1216     1.0080 
    41   opls_840      1    UNK   H15      2     0.0933     1.0080 
    42   opls_841      1    UNK   H16      2     0.0933     1.0080 
    43   opls_842      1    UNK   H17      2     0.0936     1.0080 
    44   opls_843      1    UNK   H18      2     0.0936     1.0080 
    45   opls_844      1    UNK   H19      2     0.0944     1.0080 
    46   opls_845      1    UNK   H1A      2     0.0944     1.0080 
    47   opls_846      1    UNK   H1B      2     0.1049     1.0080 
    48   opls_847      1    UNK   H1C      2     0.1141     1.0080 
    49   opls_848      1    UNK   H1D      2     0.1102     1.0080 
    50   opls_849      1    UNK   H1E      2     0.1075     1.0080 
    51   opls_850      1    UNK   H1F      2     0.0964     1.0080 
    52   opls_851      1    UNK   H1G      2     0.0964     1.0080 
[ bonds ]
    2     1     1      0.1529 224262.400
    3     2     1      0.1510 234304.000
    4     3     1      0.1520 217568.000
    5     4     1      0.1510 234304.000
    6     5     1      0.1529 224262.400
    7     6     1      0.1529 224262.400
    8     7     1      0.1529 224262.400
    9     8     1      0.1529 224262.400
   10     9     1      0.1529 224262.400
   11    10     1      0.1510 234304.000
   12    11     1      0.1520 217568.000
   13    12     1      0.1510 234304.000
   14    13     1      0.1529 224262.400
   15    14     1      0.1529 224262.400
   16    12     1      0.1520 217568.000
   17    11     1      0.1520 217568.000
   18     8     1      0.1529 224262.400
   19     3     1      0.1520 217568.000
   20     4     1      0.1520 217568.000
   21     1     1      0.1090 284512.000
   22     1     1      0.1090 284512.000
   23     1     1      0.1090 284512.000
   24     2     1      0.1090 284512.000
   25     2     1      0.1090 284512.000
   26     3     1      0.1088 284512.000
   27     4     1      0.1088 284512.000
   28     5     1      0.1090 284512.000
   29     5     1      0.1090 284512.000
   30     6     1      0.1090 284512.000
   31     6     1      0.1090 284512.000
   32     7     1      0.1090 284512.000
   33     7     1      0.1090 284512.000
   34     8     1      0.1090 284512.000
   35     9     1      0.1090 284512.000
   36     9     1      0.1090 284512.000
   37    10     1      0.1090 284512.000
   38    10     1      0.1090 284512.000
   39    11     1      0.1088 284512.000
   40    12     1      0.1088 284512.000
   41    13     1      0.1090 284512.000
   42    13     1      0.1090 284512.000
   43    14     1      0.1090 284512.000
   44    14     1      0.1090 284512.000
   45    15     1      0.1090 284512.000
   46    15     1      0.1090 284512.000
   47    16     1      0.1088 284512.000
   48    17     1      0.1088 284512.000
   49    18     1      0.1090 284512.000
   50    19     1      0.1088 284512.000
   51    20     1      0.1088 284512.000
   52    20     1      0.1088 284512.000
   16    15     1      0.1510 234304.000
   17    16     1      0.1520 217568.000
   18    17     1      0.1510 234304.000
   19    18     1      0.1510 234304.000
   20    19     1      0.1520 217568.000

[ angles ]
;  ai    aj    ak funct            c0            c1            c2            c3 
    1     2     3     1    112.700    488.273
    2     3     4     1    117.200    313.800
    3     4     5     1    117.200    313.800
    4     5     6     1    112.700    488.273
    5     6     7     1    112.700    488.273
    6     7     8     1    112.700    488.273
    7     8     9     1    112.700    488.273
    8     9    10     1    112.700    488.273
    9    10    11     1    112.700    488.273
   10    11    12     1    117.200    313.800
   11    12    13     1    117.200    313.800
   12    13    14     1    112.700    488.273
   13    14    15     1    112.700    488.273
   11    12    16     1     83.000    251.040
   10    11    17     1    117.200    313.800
    7     8    18     1    112.700    488.273
    2     3    19     1    117.200    313.800
    3     4    20     1     83.000    251.040
    2     1    21     1    110.700    313.800
    2     1    22     1    110.700    313.800
    2     1    23     1    110.700    313.800
    1     2    24     1    110.700    313.800
    1     2    25     1    110.700    313.800
    2     3    26     1    114.300    292.880
    3     4    27     1    117.200    313.800
    4     5    28     1    110.700    313.800
    4     5    29     1    110.700    313.800
    5     6    30     1    110.700    313.800
    5     6    31     1    110.700    313.800
    6     7    32     1    110.700    313.800
    6     7    33     1    110.700    313.800
    7     8    34     1    110.700    313.800
    8     9    35     1    110.700    313.800
    8     9    36     1    110.700    313.800
    9    10    37     1    110.700    313.800
    9    10    38     1    110.700    313.800
   10    11    39     1    114.300    292.880
   11    12    40     1    117.200    313.800
   12    13    41     1    110.700    313.800
   12    13    42     1    110.700    313.800
   13    14    43     1    110.700    313.800
   13    14    44     1    110.700    313.800
   14    15    45     1    110.700    313.800
   14    15    46     1    110.700    313.800
   12    16    47     1    117.200    313.800
   11    17    48     1    117.200    313.800
    8    18    49     1    110.700    313.800
    3    19    50     1    117.200    313.800
    4    20    51     1    117.200    313.800
    4    20    52     1    117.200    313.800
   19    20    51     1    117.200    313.800
   17    16    47     1    117.200    313.800
   19    18    49     1    110.700    313.800
   11    10    38     1    110.700    313.800
   43    14    44     1    107.800    276.144
    4     3    19     1     83.000    251.040
    3    19    20     1     83.000    251.040
   18    17    48     1    114.300    292.880
   12    11    17     1     83.000    251.040
   19    20    52     1    117.200    313.800
   16    15    46     1    110.700    313.800
    5     4    27     1    114.300    292.880
   16    15    45     1    110.700    313.800
    7     6    31     1    110.700    313.800
    3    19    18     1    117.200    313.800
   21     1    23     1    107.800    276.144
   45    15    46     1    107.800    276.144
    3     2    25     1    110.700    313.800
   17    11    39     1    117.200    313.800
    8    18    17     1    112.700    488.273
   16    17    18     1    117.200    313.800
   19     3    26     1    117.200    313.800
   14    13    41     1    110.700    313.800
   14    13    42     1    110.700    313.800
   20    19    50     1    117.200    313.800
    9     8    34     1    110.700    313.800
   12    11    39     1    117.200    313.800
   35     9    36     1    107.800    276.144
   41    13    42     1    107.800    276.144
    8     7    32     1    110.700    313.800
    8     7    33     1    110.700    313.800
   18    19    20     1    117.200    313.800
   15    16    17     1    117.200    313.800
   16    17    48     1    117.200    313.800
   11    17    18     1    117.200    313.800
   32     7    33     1    107.800    276.144
    9     8    18     1    112.700    488.273
   11    17    16     1     83.000    251.040
   13    12    16     1    117.200    313.800
   51    20    52     1    114.300    292.880
   17    18    49     1    110.700    313.800
   24     2    25     1    107.800    276.144
   10     9    35     1    110.700    313.800
    4    20    19     1     83.000    251.040
   12    16    17     1     83.000    251.040
    5     4    20     1    117.200    313.800
   37    10    38     1    107.800    276.144
   14    15    16     1    112.700    488.273
   28     5    29     1    107.800    276.144
    4     3    26     1    117.200    313.800
   13    12    40     1    114.300    292.880
   15    16    47     1    114.300    292.880
   18     8    34     1    110.700    313.800
   15    14    43     1    110.700    313.800
    7     6    30     1    110.700    313.800
   16    12    40     1    117.200    313.800
   30     6    31     1    107.800    276.144
   12    16    15     1    117.200    313.800
   20     4    27     1    117.200    313.800
   22     1    23     1    107.800    276.144
   18    19    50     1    114.300    292.880
    8    18    19     1    112.700    488.273
    6     5    28     1    110.700    313.800
   11    10    37     1    110.700    313.800
   10     9    36     1    110.700    313.800
   15    14    44     1    110.700    313.800
   21     1    22     1    107.800    276.144
    3     2    24     1    110.700    313.800
   17    18    19     1    112.700    488.273
    6     5    29     1    110.700    313.800

[ dihedrals ]
; IMPROPER DIHEDRAL ANGLES 
;  ai    aj    ak    al funct            c0            c1            c2            c3            c4            c5

[ dihedrals ]
; PROPER DIHEDRAL ANGLES
;  ai    aj    ak    al funct            c0            c1            c2            c3            c4            c5
   18    8    7    6        3       2.301  -1.464   0.837  -1.674  -0.000   0.000
    8    7    6    5        3       2.301  -1.464   0.837  -1.674  -0.000   0.000
    9    8    7    6        3       2.301  -1.464   0.837  -1.674  -0.000   0.000
   10    9    8    7        3       2.301  -1.464   0.837  -1.674  -0.000   0.000
   18    8    9   10        3       2.301  -1.464   0.837  -1.674  -0.000   0.000
    7    6    5    4        3       2.301  -1.464   0.837  -1.674  -0.000   0.000
   15   14   13   12        3       2.301  -1.464   0.837  -1.674  -0.000   0.000
   14   15   16   12        3       0.000   0.000   0.000  -0.000  -0.000   0.000
    6    5    4    3        3       0.000   0.000   0.000  -0.000  -0.000   0.000
    8   18   19    3        3       0.000   0.000   0.000  -0.000  -0.000   0.000
   14   13   12   11        3       0.000   0.000   0.000  -0.000  -0.000   0.000
   15   16   12   13        3       0.000   0.000   0.000  -0.000  -0.000   0.000
   18   19    3    2        3       0.000   0.000   0.000  -0.000  -0.000   0.000
   18   17   16   15        3       0.000   0.000   0.000  -0.000  -0.000   0.000
    5    4    3    2        3       0.000   0.000   0.000  -0.000  -0.000   0.000
   18   17   11   10        3       0.000   0.000   0.000  -0.000  -0.000   0.000
   13   12   11   10        3       0.000   0.000   0.000  -0.000  -0.000   0.000
   15   16   12   11        3       0.000   0.000   0.000  -0.000  -0.000   0.000
   18   17   11   12        3       0.000   0.000   0.000  -0.000  -0.000   0.000
   18   17   16   12        3       0.000   0.000   0.000  -0.000  -0.000   0.000
   18   19    3    4        3       0.000   0.000   0.000  -0.000  -0.000   0.000
   15   16   17   11        3       0.000   0.000   0.000  -0.000  -0.000   0.000
   18   19   20    4        3       0.000   0.000   0.000  -0.000  -0.000   0.000
   17   18    8    9        3       2.301  -1.464   0.837  -1.674  -0.000   0.000
   16   15   14   13        3       2.301  -1.464   0.837  -1.674  -0.000   0.000
   19   18    8    7        3       2.301  -1.464   0.837  -1.674  -0.000   0.000
   19   18    8    9        3       2.301  -1.464   0.837  -1.674  -0.000   0.000
   17   18    8    7        3       2.301  -1.464   0.837  -1.674  -0.000   0.000
   11   10    9    8        3       2.301  -1.464   0.837  -1.674  -0.000   0.000
   19   18   17   11        3       0.000   0.000   0.000  -0.000  -0.000   0.000
   19   18   17   16        3       0.000   0.000   0.000  -0.000  -0.000   0.000
   17   18   19    3        3       0.000   0.000   0.000  -0.000  -0.000   0.000
    4    3    2    1        3       0.000   0.000   0.000  -0.000  -0.000   0.000
   17   11   10    9        3       0.000   0.000   0.000  -0.000  -0.000   0.000
   16   12   13   14        3       0.000   0.000   0.000  -0.000  -0.000   0.000
   16   17   18    8        3       0.000   0.000   0.000  -0.000  -0.000   0.000
   20    4    5    6        3       0.000   0.000   0.000  -0.000  -0.000   0.000
   11   17   18    8        3       0.000   0.000   0.000  -0.000  -0.000   0.000
   17   16   15   14        3       0.000   0.000   0.000  -0.000  -0.000   0.000
   20   19   18    8        3       0.000   0.000   0.000  -0.000  -0.000   0.000
   19    3    2    1        3       0.000   0.000   0.000  -0.000  -0.000   0.000
   12   11   10    9        3       0.000   0.000   0.000  -0.000  -0.000   0.000
   20   19   18   17        3       0.000   0.000   0.000  -0.000  -0.000   0.000
   16   17   11   10        3       0.000   0.000   0.000  -0.000  -0.000   0.000
   17   11   12   13        3       0.000   0.000   0.000  -0.000  -0.000   0.000
   17   16   12   13        3       0.000   0.000   0.000  -0.000  -0.000   0.000
   16   12   11   10        3       0.000   0.000   0.000  -0.000  -0.000   0.000
   19    3    4    5        3       0.000   0.000   0.000  -0.000  -0.000   0.000
   20    4    3    2        3       0.000   0.000   0.000  -0.000  -0.000   0.000
   19   20    4    5        3       0.000   0.000   0.000  -0.000  -0.000   0.000
   20   19    3    2        3       0.000   0.000   0.000  -0.000  -0.000   0.000
   36    9    8    7        3       0.628   1.883   0.000  -2.510  -0.000   0.000
   34    8    9   10        3       0.628   1.883   0.000  -2.510  -0.000   0.000
   45   15   14   13        3       0.628   1.883   0.000  -2.510  -0.000   0.000
   46   15   14   13        3       0.628   1.883   0.000  -2.510  -0.000   0.000
   36    9    8   18        3       0.628   1.883   0.000  -2.510  -0.000   0.000
   28    5    6    7        3       0.628   1.883   0.000  -2.510  -0.000   0.000
   42   13   14   15        3       0.628   1.883   0.000  -2.510  -0.000   0.000
   33    7    6    5        3       0.628   1.883   0.000  -2.510  -0.000   0.000
   49   18    8    7        3       0.628   1.883   0.000  -2.510  -0.000   0.000
   33    7    8    9        3       0.628   1.883   0.000  -2.510  -0.000   0.000
   35    9    8    7        3       0.628   1.883   0.000  -2.510  -0.000   0.000
   37   10    9    8        3       0.628   1.883   0.000  -2.510  -0.000   0.000
   33    7    8   18        3       0.628   1.883   0.000  -2.510  -0.000   0.000
   29    5    6    7        3       0.628   1.883   0.000  -2.510  -0.000   0.000
   32    7    6    5        3       0.628   1.883   0.000  -2.510  -0.000   0.000
   35    9    8   18        3       0.628   1.883   0.000  -2.510  -0.000   0.000
   31    6    7    8        3       0.628   1.883   0.000  -2.510  -0.000   0.000
   32    7    8   18        3       0.628   1.883   0.000  -2.510  -0.000   0.000
   41   13   14   15        3       0.628   1.883   0.000  -2.510  -0.000   0.000
   30    6    7    8        3       0.628   1.883   0.000  -2.510  -0.000   0.000
   49   18    8    9        3       0.628   1.883   0.000  -2.510  -0.000   0.000
   34    8    7    6        3       0.628   1.883   0.000  -2.510  -0.000   0.000
   32    7    8    9        3       0.628   1.883   0.000  -2.510  -0.000   0.000
   38   10    9    8        3       0.628   1.883   0.000  -2.510  -0.000   0.000
   44   14   13   12        3       0.628   1.883   0.000  -2.510  -0.000   0.000
   31    6    5    4        3       0.628   1.883   0.000  -2.510  -0.000   0.000
   34    8   18   17        3       0.628   1.883   0.000  -2.510  -0.000   0.000
   44   14   15   16        3       0.628   1.883   0.000  -2.510  -0.000   0.000
   43   14   15   16        3       0.628   1.883   0.000  -2.510  -0.000   0.000
   22    1    2    3        3       0.628   1.883   0.000  -2.510  -0.000   0.000
   23    1    2    3        3       0.628   1.883   0.000  -2.510  -0.000   0.000
   30    6    5    4        3       0.628   1.883   0.000  -2.510  -0.000   0.000
   34    8   18   19        3       0.628   1.883   0.000  -2.510  -0.000   0.000
   35    9   10   11        3       0.628   1.883   0.000  -2.510  -0.000   0.000
   21    1    2    3        3       0.628   1.883   0.000  -2.510  -0.000   0.000
   43   14   13   12        3       0.628   1.883   0.000  -2.510  -0.000   0.000
   36    9   10   11        3       0.628   1.883   0.000  -2.510  -0.000   0.000
   25    2    1   22        3       0.628   1.883   0.000  -2.510  -0.000   0.000
   38   10    9   35        3       0.628   1.883   0.000  -2.510  -0.000   0.000
   32    7    6   30        3       0.628   1.883   0.000  -2.510  -0.000   0.000
   44   14   13   42        3       0.628   1.883   0.000  -2.510  -0.000   0.000
   43   14   13   42        3       0.628   1.883   0.000  -2.510  -0.000   0.000
   38   10    9   36        3       0.628   1.883   0.000  -2.510  -0.000   0.000
   37   10    9   35        3       0.628   1.883   0.000  -2.510  -0.000   0.000
   44   14   13   41        3       0.628   1.883   0.000  -2.510  -0.000   0.000
   37   10    9   36        3       0.628   1.883   0.000  -2.510  -0.000   0.000
   33    7    6   30        3       0.628   1.883   0.000  -2.510  -0.000   0.000
   24    2    1   22        3       0.628   1.883   0.000  -2.510  -0.000   0.000
   43   14   13   41        3       0.628   1.883   0.000  -2.510  -0.000   0.000
   31    6    5   29        3       0.628   1.883   0.000  -2.510  -0.000   0.000
   30    6    5   29        3       0.628   1.883   0.000  -2.510  -0.000   0.000
   45   15   14   43        3       0.628   1.883   0.000  -2.510  -0.000   0.000
   30    6    5   28        3       0.628   1.883   0.000  -2.510  -0.000   0.000
   49   18    8   34        3       0.628   1.883   0.000  -2.510  -0.000   0.000
   36    9    8   34        3       0.628   1.883   0.000  -2.510  -0.000   0.000
   25    2    1   21        3       0.628   1.883   0.000  -2.510  -0.000   0.000
   33    7    6   31        3       0.628   1.883   0.000  -2.510  -0.000   0.000
   25    2    1   23        3       0.628   1.883   0.000  -2.510  -0.000   0.000
   31    6    5   28        3       0.628   1.883   0.000  -2.510  -0.000   0.000
   35    9    8   34        3       0.628   1.883   0.000  -2.510  -0.000   0.000
   45   15   14   44        3       0.628   1.883   0.000  -2.510  -0.000   0.000
   46   15   14   43        3       0.628   1.883   0.000  -2.510  -0.000   0.000
   32    7    6   31        3       0.628   1.883   0.000  -2.510  -0.000   0.000
   24    2    1   23        3       0.628   1.883   0.000  -2.510  -0.000   0.000
   46   15   14   44        3       0.628   1.883   0.000  -2.510  -0.000   0.000
   34    8    7   33        3       0.628   1.883   0.000  -2.510  -0.000   0.000
   24    2    1   21        3       0.628   1.883   0.000  -2.510  -0.000   0.000
   34    8    7   32        3       0.628   1.883   0.000  -2.510  -0.000   0.000
   42   13   12   11        3       0.628   1.883   0.000  -2.510  -0.000   0.000
   28    5    4    3        3       0.628   1.883   0.000  -2.510  -0.000   0.000
   38   10   11   12        3       0.628   1.883   0.000  -2.510  -0.000   0.000
   25    2    3   19        3       0.628   1.883   0.000  -2.510  -0.000   0.000
   37   10   11   12        3       0.628   1.883   0.000  -2.510  -0.000   0.000
   38   10   11   17        3       0.628   1.883   0.000  -2.510  -0.000   0.000
   49   18   17   11        3       0.628   1.883   0.000  -2.510  -0.000   0.000
   49   18   19    3        3       0.628   1.883   0.000  -2.510  -0.000   0.000
   28    5    4   20        3       0.628   1.883   0.000  -2.510  -0.000   0.000
   46   15   16   17        3       0.628   1.883   0.000  -2.510  -0.000   0.000
   37   10   11   17        3       0.628   1.883   0.000  -2.510  -0.000   0.000
   46   15   16   12        3       0.628   1.883   0.000  -2.510  -0.000   0.000
   45   15   16   17        3       0.628   1.883   0.000  -2.510  -0.000   0.000
   24    2    3   19        3       0.628   1.883   0.000  -2.510  -0.000   0.000
   25    2    3    4        3       0.628   1.883   0.000  -2.510  -0.000   0.000
   49   18   17   16        3       0.628   1.883   0.000  -2.510  -0.000   0.000
   45   15   16   12        3       0.628   1.883   0.000  -2.510  -0.000   0.000
   42   13   12   16        3       0.628   1.883   0.000  -2.510  -0.000   0.000
   24    2    3    4        3       0.628   1.883   0.000  -2.510  -0.000   0.000
   29    5    4   20        3       0.628   1.883   0.000  -2.510  -0.000   0.000
   29    5    4    3        3       0.628   1.883   0.000  -2.510  -0.000   0.000
   41   13   12   11        3       0.628   1.883   0.000  -2.510  -0.000   0.000
   41   13   12   16        3       0.628   1.883   0.000  -2.510  -0.000   0.000
   49   18   19   20        3       0.628   1.883   0.000  -2.510  -0.000   0.000
   41   13   12   40        3       0.628   1.883   0.000  -2.510  -0.000   0.000
   29    5    4   27        3       0.628   1.883   0.000  -2.510  -0.000   0.000
   42   13   12   40        3       0.628   1.883   0.000  -2.510  -0.000   0.000
   28    5    4   27        3       0.628   1.883   0.000  -2.510  -0.000   0.000
   49   18   17   48        3       0.628   1.883   0.000  -2.510  -0.000   0.000
   40   12   13   14        3       0.628   1.883   0.000  -2.510  -0.000   0.000
   47   16   15   14        3       0.628   1.883   0.000  -2.510  -0.000   0.000
   48   17   18    8        3       0.628   1.883   0.000  -2.510  -0.000   0.000
   27    4    5    6        3       0.628   1.883   0.000  -2.510  -0.000   0.000
   39   11   10    9        3       0.628   1.883   0.000  -2.510  -0.000   0.000
   50   19   18    8        3       0.628   1.883   0.000  -2.510  -0.000   0.000
   26    3    2    1        3       0.628   1.883   0.000  -2.510  -0.000   0.000
   50   19   18   17        3       0.000   0.000   0.000  -0.000  -0.000   0.000
   48   17   18   19        3       0.000   0.000   0.000  -0.000  -0.000   0.000
   26    3    2   24        3       0.628   1.883   0.000  -2.510  -0.000   0.000
   47   16   15   45        3       0.628   1.883   0.000  -2.510  -0.000   0.000
   39   11   10   37        3       0.628   1.883   0.000  -2.510  -0.000   0.000
   26    3    2   25        3       0.628   1.883   0.000  -2.510  -0.000   0.000
   39   11   10   38        3       0.628   1.883   0.000  -2.510  -0.000   0.000
   50   19   18   49        3       0.628   1.883   0.000  -2.510  -0.000   0.000
   47   16   15   46        3       0.628   1.883   0.000  -2.510  -0.000   0.000
   51   20   19   18        3       0.000   0.000   0.000  -0.000  -0.000   0.000
   26    3    4    5        3       0.000   0.000   0.000  -0.000  -0.000   0.000
   47   16   17   18        3       0.000   0.000   0.000  -0.000  -0.000   0.000
   52   20    4    5        3       0.000   0.000   0.000  -0.000  -0.000   0.000
   50   19    3    2        3       0.000   0.000   0.000  -0.000  -0.000   0.000
   48   17   11   10        3       0.000   0.000   0.000  -0.000  -0.000   0.000
   40   12   11   10        3       0.000   0.000   0.000  -0.000  -0.000   0.000
   26    3   19   18        3       0.000   0.000   0.000  -0.000  -0.000   0.000
   51   20    4    5        3       0.000   0.000   0.000  -0.000  -0.000   0.000
   40   12   16   15        3       0.000   0.000   0.000  -0.000  -0.000   0.000
   47   16   12   13        3       0.000   0.000   0.000  -0.000  -0.000   0.000
   48   17   16   15        3       0.000   0.000   0.000  -0.000  -0.000   0.000
   39   11   17   18        3       0.000   0.000   0.000  -0.000  -0.000   0.000
   27    4    3    2        3       0.000   0.000   0.000  -0.000  -0.000   0.000
   52   20   19   18        3       0.000   0.000   0.000  -0.000  -0.000   0.000
   39   11   12   13        3       0.000   0.000   0.000  -0.000  -0.000   0.000
   40   12   16   17        3       0.000   0.000   0.000  -0.000  -0.000   0.000
   51   20   19    3        3       0.000   0.000   0.000  -0.000  -0.000   0.000
   40   12   11   17        3       0.000   0.000   0.000  -0.000  -0.000   0.000
   52   20    4    3        3       0.000   0.000   0.000  -0.000  -0.000   0.000
   27    4    3   19        3       0.000   0.000   0.000  -0.000  -0.000   0.000
   39   11   17   16        3       0.000   0.000   0.000  -0.000  -0.000   0.000
   50   19   20    4        3       0.000   0.000   0.000  -0.000  -0.000   0.000
   47   16   17   11        3       0.000   0.000   0.000  -0.000  -0.000   0.000
   39   11   12   16        3       0.000   0.000   0.000  -0.000  -0.000   0.000
   51   20    4    3        3       0.000   0.000   0.000  -0.000  -0.000   0.000
   48   17   16   12        3       0.000   0.000   0.000  -0.000  -0.000   0.000
   50   19    3    4        3       0.000   0.000   0.000  -0.000  -0.000   0.000
   52   20   19    3        3       0.000   0.000   0.000  -0.000  -0.000   0.000
   26    3   19   20        3       0.000   0.000   0.000  -0.000  -0.000   0.000
   27    4   20   19        3       0.000   0.000   0.000  -0.000  -0.000   0.000
   47   16   12   11        3       0.000   0.000   0.000  -0.000  -0.000   0.000
   26    3    4   20        3       0.000   0.000   0.000  -0.000  -0.000   0.000
   48   17   11   12        3       0.000   0.000   0.000  -0.000  -0.000   0.000
   52   20   19   50        3       0.000   0.000   0.000  -0.000  -0.000   0.000
   52   20    4   27        3       0.000   0.000   0.000  -0.000  -0.000   0.000
   51   20    4   27        3       0.000   0.000   0.000  -0.000  -0.000   0.000
   27    4    3   26        3       0.000   0.000   0.000  -0.000  -0.000   0.000
   48   17   16   47        3       0.000   0.000   0.000  -0.000  -0.000   0.000
   40   12   11   39        3       0.000   0.000   0.000  -0.000  -0.000   0.000
   51   20   19   50        3       0.000   0.000   0.000  -0.000  -0.000   0.000
   48   17   11   39        3       0.000   0.000   0.000  -0.000  -0.000   0.000
   47   16   12   40        3       0.000   0.000   0.000  -0.000  -0.000   0.000
   50   19    3   26        3       0.000   0.000   0.000  -0.000  -0.000   0.000

[ pairs ]
     1     4    1
     2     5    1
     3     6    1
     4     7    1
     3     8    1
     5     8    1
     6     9    1
     7    10    1
     8    11    1
     3    17    1
     2    18    1
     1    19    1
     9    12    1
     4    18    1
     2    20    1
    10    13    1
     8    16    1
     7    17    1
     6    18    1
     5    19    1
     3    21    1
    11    14    1
     3    22    1
    11    15    1
    10    16    1
     9    17    1
     7    19    1
     6    20    1
     3    23    1
     1    26    1
    10    18    1
     9    19    1
     8    20    1
     4    24    1
     4    25    1
     2    27    1
    13    17    1
    12    18    1
    11    19    1
    14    17    1
     5    26    1
     3    28    1
     3    29    1
    15    18    1
     6    27    1
     4    30    1
    16    19    1
     7    28    1
     4    31    1
     7    29    1
    17    20    1
     5    32    1
     8    30    1
     5    33    1
     8    31    1
     6    34    1
     9    32    1
     9    33    1
     7    35    1
    19    24    1
     7    36    1
    19    25    1
    18    26    1
    10    34    1
    21    24    1
     8    37    1
    22    24    1
    21    25    1
    20    26    1
    19    27    1
    11    35    1
     8    38    1
    23    24    1
    22    25    1
    11    36    1
    23    25    1
    20    28    1
     9    39    1
    20    29    1
    12    37    1
    24    26    1
    18    32    1
    12    38    1
    10    40    1
    25    26    1
    18    33    1
    17    34    1
    13    39    1
    11    41    1
     3    49    1
     2    50    1
    26    27    1
    19    34    1
    18    35    1
    11    42    1
    18    36    1
    17    37    1
    14    40    1
     4    50    1
     3    51    1
    27    28    1
    17    38    1
    16    39    1
    15    40    1
    12    43    1
     3    52    1
    27    29    1
    15    41    1
    12    44    1
     8    48    1
     7    49    1
     5    51    1
    18    39    1
    17    40    1
    16    41    1
    15    42    1
    12    45    1
     5    52    1
    28    30    1
    16    42    1
    13    45    1
    12    46    1
    11    47    1
    10    48    1
     9    49    1
     8    50    1
    29    30    1
    28    31    1
    16    43    1
    13    46    1
    29    31    1
    16    44    1
    13    47    1
    12    48    1
    11    49    1
    14    47    1
    30    32    1
    17    45    1
    31    32    1
    30    33    1
    17    46    1
    15    48    1
    31    33    1
    18    47    1
    16    49    1
    32    34    1
    33    34    1
    19    48    1
    17    50    1
    34    35    1
    20    49    1
    18    51    1
    34    36    1
    18    52    1
    35    37    1
    36    37    1
    35    38    1
    36    38    1
    37    39    1
    26    50    1
    38    39    1
    27    51    1
    39    40    1
    27    52    1
    40    41    1
    40    42    1
    34    49    1
    41    43    1
    42    43    1
    41    44    1
    42    44    1
    40    47    1
    39    48    1
    43    45    1
    44    45    1
    43    46    1
    44    46    1
    45    47    1
    46    47    1
    47    48    1
    48    49    1
    49    50    1
    50    51    1
    50    52    1

