LIGPARGEN GENERATED GRO FILE
   52
    1UNK    C00    1   0.100   0.100   0.000
    1UNK    C01    2  -0.053   0.100   0.000
    1UNK    C02    3  -0.104   0.100   0.144
    1UNK    C03    4  -0.254   0.092   0.201
    1UNK    C04    5  -0.366   0.149   0.119
    1UNK    C05    6  -0.439   0.028   0.054
    1UNK    C06    7  -0.345  -0.083  -0.004
    1UNK    C07    8  -0.272  -0.185   0.095
    1UNK    C08    9  -0.265  -0.317   0.013
    1UNK    C09   10  -0.227  -0.438   0.097
    1UNK    C0A   11  -0.100  -0.414   0.175
    1UNK    C0B   12   0.032  -0.403   0.092
    1UNK    C0C   13   0.120  -0.527   0.091
    1UNK    C0D   14   0.239  -0.485   0.176
    1UNK    C0E   15   0.177  -0.395   0.282
    1UNK    C0F   16   0.083  -0.305   0.201
    1UNK    C0G   17  -0.069  -0.272   0.232
    1UNK    C0H   18  -0.125  -0.155   0.147
    1UNK    C0I   19  -0.088  -0.028   0.233
    1UNK    C0J   20  -0.183   0.058   0.334
    1UNK    H0K   21   0.138   0.078  -0.100
    1UNK    H0M   22   0.141   0.025   0.069
    1UNK    H0N   23   0.139   0.198   0.031
    1UNK    H0O   24  -0.086   0.014  -0.058
    1UNK    H0P   25  -0.089   0.189  -0.053
    1UNK    H0Q   26  -0.056   0.190   0.186
    1UNK    H0R   27  -0.306  -0.002   0.212
    1UNK    H0S   28  -0.328   0.216   0.041
    1UNK    H0T   29  -0.436   0.206   0.181
    1UNK    H0U   30  -0.504   0.066  -0.026
    1UNK    H0V   31  -0.505  -0.018   0.128
    1UNK    H0W   32  -0.274  -0.038  -0.074
    1UNK    H0X   33  -0.413  -0.141  -0.068
    1UNK    H0Y   34  -0.338  -0.204   0.181
    1UNK    H0Z   35  -0.362  -0.340  -0.033
    1UNK    H10   36  -0.194  -0.304  -0.070
    1UNK    H11   37  -0.214  -0.525   0.032
    1UNK    H12   38  -0.309  -0.461   0.166
    1UNK    H13   39  -0.093  -0.491   0.254
    1UNK    H14   40   0.022  -0.356  -0.007
    1UNK    H15   41   0.150  -0.554  -0.011
    1UNK    H16   42   0.069  -0.613   0.135
    1UNK    H17   43   0.309  -0.427   0.114
    1UNK    H18   44   0.292  -0.571   0.217
    1UNK    H19   45   0.253  -0.337   0.335
    1UNK    H1A   46   0.122  -0.455   0.356
    1UNK    H1B   47   0.140  -0.221   0.160
    1UNK    H1C   48  -0.094  -0.263   0.339
    1UNK    H1D   49  -0.063  -0.152   0.056
    1UNK    H1E   50   0.014  -0.038   0.273
    1UNK    H1F   51  -0.136   0.144   0.385
    1UNK    H1G   52  -0.240   0.002   0.408
   1.00000   1.00000   1.00000

