LIGPARGEN GENERATED GRO FILE
   48
    1UNK    C00    1   0.100   0.100   0.000
    1UNK    C01    2  -0.052   0.100   0.000
    1UNK    C02    3  -0.106   0.100   0.143
    1UNK    C03    4  -0.260   0.100   0.148
    1UNK    C04    5  -0.306   0.100   0.294
    1UNK    C05    6  -0.459   0.106   0.317
    1UNK    C06    7  -0.529  -0.016   0.250
    1UNK    C07    8  -0.683  -0.026   0.264
    1UNK    C08    9  -0.756   0.091   0.198
    1UNK    C09   10  -0.731  -0.158   0.201
    1UNK    C0A   11  -0.492   0.122   0.471
    1UNK    C0B   12  -0.437   0.004   0.555
    1UNK    C0C   13  -0.481   0.002   0.702
    1UNK    C0D   14  -0.440   0.256   0.528
    1UNK    O0E   15  -0.490   0.366   0.451
    1UNK    C0F   16  -0.443   0.490   0.503
    1UNK    H0G   17   0.138   0.100  -0.103
    1UNK    H0H   18   0.139   0.011   0.050
    1UNK    H0I   19   0.139   0.189   0.051
    1UNK    H0J   20  -0.088   0.012  -0.054
    1UNK    H0K   21  -0.089   0.188  -0.054
    1UNK    H0M   22  -0.068   0.188   0.196
    1UNK    H0N   23  -0.069   0.012   0.195
    1UNK    H0O   24  -0.296   0.011   0.095
    1UNK    H0P   25  -0.299   0.188   0.096
    1UNK    H0Q   26  -0.258   0.185   0.342
    1UNK    H0R   27  -0.265   0.010   0.341
    1UNK    H0S   28  -0.496   0.196   0.266
    1UNK    H0T   29  -0.484  -0.108   0.289
    1UNK    H0U   30  -0.506  -0.015   0.143
    1UNK    H0V   31  -0.709  -0.029   0.370
    1UNK    H0W   32  -0.751   0.084   0.089
    1UNK    H0X   33  -0.714   0.187   0.227
    1UNK    H0Y   34  -0.861   0.090   0.227
    1UNK    H0Z   35  -0.710  -0.161   0.093
    1UNK    H10   36  -0.839  -0.169   0.215
    1UNK    H11   37  -0.682  -0.244   0.247
    1UNK    H12   38  -0.601   0.124   0.481
    1UNK    H13   39  -0.328   0.007   0.554
    1UNK    H14   40  -0.467  -0.092   0.511
    1UNK    H15   41  -0.475   0.100   0.750
    1UNK    H16   42  -0.417  -0.066   0.758
    1UNK    H17   43  -0.585  -0.033   0.710
    1UNK    H18   44  -0.331   0.259   0.529
    1UNK    H19   45  -0.476   0.270   0.630
    1UNK    H1A   46  -0.488   0.571   0.445
    1UNK    H1B   47  -0.334   0.496   0.492
    1UNK    H1C   48  -0.472   0.501   0.608
   1.00000   1.00000   1.00000

