LIGPARGEN GENERATED GRO FILE
   34
    1UNK    C00    1   0.100   0.100   0.000
    1UNK    C01    2  -0.051   0.100   0.000
    1UNK    C02    3  -0.115   0.100   0.141
    1UNK    C03    4  -0.268   0.100   0.128
    1UNK    C04    5  -0.305  -0.048   0.112
    1UNK    C05    6  -0.455  -0.067   0.132
    1UNK    C06    7  -0.210  -0.120   0.210
    1UNK    C07    8  -0.277  -0.221   0.302
    1UNK    C08    9  -0.198  -0.294   0.408
    1UNK    C09   10  -0.072  -0.160   0.160
    1UNK    C0A   11  -0.089  -0.026   0.226
    1UNK    C0B   12  -0.015   0.001   0.354
    1UNK    H0C   13   0.137   0.100  -0.104
    1UNK    H0D   14   0.141   0.011   0.049
    1UNK    H0E   15   0.140   0.189   0.049
    1UNK    H0F   16  -0.087   0.016  -0.060
    1UNK    H0G   17  -0.085   0.190  -0.054
    1UNK    H0H   18  -0.084   0.191   0.193
    1UNK    H0I   19  -0.305   0.162   0.045
    1UNK    H0J   20  -0.311   0.140   0.221
    1UNK    H0K   21  -0.282  -0.082   0.010
    1UNK    H0M   22  -0.487  -0.034   0.231
    1UNK    H0N   23  -0.484  -0.171   0.119
    1UNK    H0O   24  -0.511  -0.007   0.058
    1UNK    H0P   25  -0.320  -0.298   0.236
    1UNK    H0Q   26  -0.362  -0.173   0.353
    1UNK    H0R   27  -0.109  -0.344   0.369
    1UNK    H0S   28  -0.261  -0.372   0.452
    1UNK    H0T   29  -0.168  -0.227   0.489
    1UNK    H0U   30  -0.058  -0.169   0.053
    1UNK    H0V   31  -0.013  -0.233   0.214
    1UNK    H0W   32   0.074   0.062   0.332
    1UNK    H0X   33   0.022  -0.090   0.402
    1UNK    H0Y   34  -0.077   0.056   0.425
   1.00000   1.00000   1.00000

