LIGPARGEN GENERATED GRO FILE
   44
    1UNK    C00    1   0.100   0.100   0.000
    1UNK    C01    2  -0.054   0.100   0.000
    1UNK    C02    3  -0.101   0.100   0.146
    1UNK    C03    4  -0.114   0.219  -0.082
    1UNK    C04    5  -0.059   0.212  -0.226
    1UNK    C05    6  -0.272   0.224  -0.074
    1UNK    C06    7  -0.344   0.338  -0.151
    1UNK    C07    8  -0.312   0.318  -0.299
    1UNK    N08    9  -0.287   0.301  -0.421
    1UNK    C09   10  -0.498   0.342  -0.136
    1UNK    C0A   11  -0.577   0.457  -0.212
    1UNK    C0B   12  -0.526   0.595  -0.166
    1UNK    C0C   13  -0.558   0.453  -0.366
    1UNK    C0D   14  -0.731   0.445  -0.186
    1UNK    C0E   15  -0.795   0.314  -0.234
    1UNK    C0F   16  -0.767   0.470  -0.040
    1UNK    O0G   17  -0.775   0.382   0.045
    1UNK    H0H   18   0.140   0.027   0.071
    1UNK    H0I   19   0.139   0.199   0.028
    1UNK    H0J   20   0.141   0.072  -0.098
    1UNK    H0K   21  -0.087   0.006  -0.046
    1UNK    H0M   22  -0.080   0.196   0.194
    1UNK    H0N   23  -0.050   0.022   0.203
    1UNK    H0O   24  -0.208   0.080   0.153
    1UNK    H0P   25  -0.077   0.313  -0.038
    1UNK    H0Q   26  -0.109   0.134  -0.284
    1UNK    H0R   27   0.048   0.192  -0.231
    1UNK    H0S   28  -0.069   0.309  -0.276
    1UNK    H0T   29  -0.300   0.235   0.031
    1UNK    H0U   30  -0.311   0.127  -0.107
    1UNK    H0V   31  -0.300   0.433  -0.119
    1UNK    H0W   32  -0.519   0.351  -0.028
    1UNK    H0X   33  -0.537   0.245  -0.167
    1UNK    H0Y   34  -0.421   0.611  -0.194
    1UNK    H0Z   35  -0.532   0.606  -0.057
    1UNK    H10   36  -0.584   0.676  -0.212
    1UNK    H11   37  -0.463   0.496  -0.397
    1UNK    H12   38  -0.635   0.513  -0.417
    1UNK    H13   39  -0.566   0.351  -0.405
    1UNK    H14   40  -0.782   0.526  -0.241
    1UNK    H15   41  -0.755   0.227  -0.182
    1UNK    H16   42  -0.781   0.300  -0.341
    1UNK    H17   43  -0.903   0.316  -0.215
    1UNK    H18   44  -0.781   0.576  -0.013
   1.00000   1.00000   1.00000

