
;
; GENERATED BY LigParGen Server
; Jorgensen Lab @ Yale University 
;
[ atomtypes ]
  opls_814  N814    14.0070     0.000    A    3.20000E-01   7.11280E-01
  opls_818  H818     1.0080     0.000    A    2.50000E-01   1.25520E-01
  opls_809  C809    12.0110     0.000    A    3.45000E-01   3.47272E-01
  opls_824  H824     1.0080     0.000    A    2.50000E-01   1.25520E-01
  opls_804  C804    12.0110     0.000    A    3.50000E-01   2.76144E-01
  opls_836  H836     1.0080     0.000    A    2.50000E-01   1.25520E-01
  opls_834  H834     1.0080     0.000    A    2.50000E-01   1.25520E-01
  opls_810  C810    12.0110     0.000    A    3.50000E-01   2.76144E-01
  opls_828  H828     1.0080     0.000    A    2.50000E-01   1.25520E-01
  opls_801  O801    15.9990     0.000    A    2.90000E-01   5.85760E-01
  opls_815  N815    14.0070     0.000    A    3.30000E-01   7.11280E-01
  opls_803  O803    15.9990     0.000    A    2.96000E-01   8.78640E-01
  opls_811  C811    12.0110     0.000    A    3.50000E-01   2.76144E-01
  opls_827  H827     1.0080     0.000    A    2.50000E-01   1.25520E-01
  opls_838  H838     1.0080     0.000    A    2.50000E-01   1.25520E-01
  opls_822  H822     1.0080     0.000    A    2.50000E-01   1.25520E-01
  opls_825  H825     1.0080     0.000    A    2.50000E-01   1.25520E-01
  opls_826  H826     1.0080     0.000    A    2.50000E-01   1.25520E-01
  opls_830  H830     1.0080     0.000    A    2.50000E-01   1.25520E-01
  opls_821  H821     1.0080     0.000    A    2.50000E-01   1.25520E-01
  opls_820  H820     1.0080     0.000    A    2.50000E-01   1.25520E-01
  opls_807  C807    12.0110     0.000    A    3.45000E-01   3.47272E-01
  opls_837  H837     1.0080     0.000    A    2.50000E-01   1.25520E-01
  opls_829  H829     1.0080     0.000    A    2.50000E-01   1.25520E-01
  opls_831  H831     1.0080     0.000    A    2.50000E-01   1.25520E-01
  opls_832  H832     1.0080     0.000    A    2.50000E-01   1.25520E-01
  opls_800  C800    12.0110     0.000    A    3.50000E-01   2.76144E-01
  opls_805  C805    12.0110     0.000    A    3.50000E-01   2.76144E-01
  opls_823  H823     1.0080     0.000    A    2.50000E-01   1.25520E-01
  opls_802  C802    12.0110     0.000    A    3.55000E-01   2.92880E-01
  opls_833  H833     1.0080     0.000    A    2.50000E-01   1.25520E-01
  opls_806  C806    12.0110     0.000    A    3.45000E-01   3.47272E-01
  opls_835  H835     1.0080     0.000    A    2.50000E-01   1.25520E-01
  opls_841  H841     1.0080     0.000    A    2.50000E-01   1.25520E-01
  opls_819  H819     1.0080     0.000    A    2.50000E-01   1.25520E-01
  opls_816  C816    12.0110     0.000    A    3.50000E-01   2.76144E-01
  opls_839  H839     1.0080     0.000    A    2.50000E-01   1.25520E-01
  opls_817  C817    12.0110     0.000    A    3.50000E-01   2.76144E-01
  opls_808  C808    12.0110     0.000    A    3.50000E-01   2.76144E-01
  opls_840  H840     1.0080     0.000    A    2.50000E-01   1.25520E-01
  opls_812  C812    12.0110     0.000    A    3.45000E-01   3.47272E-01
  opls_813  C813    12.0110     0.000    A    3.30000E-01   2.76144E-01
[ moleculetype ]
; Name               nrexcl
UNK                   3
[ atoms ]
;   nr       type  resnr residue  atom   cgnr     charge       mass  
     1   opls_800      1    UNK   C00      1    -0.0593    12.0110 
     2   opls_801      1    UNK   O01      1    -0.3531    15.9990 
     3   opls_802      1    UNK   C02      1     0.4429    12.0110 
     4   opls_803      1    UNK   O03      1    -0.4465    15.9990 
     5   opls_804      1    UNK   C04      1    -0.1126    12.0110 
     6   opls_805      1    UNK   C05      1    -0.2353    12.0110 
     7   opls_806      1    UNK   C06      1     -0.084    12.0110 
     8   opls_807      1    UNK   C07      1    -0.1335    12.0110 
     9   opls_808      1    UNK   C08      1    -0.2283    12.0110 
    10   opls_809      1    UNK   C09      1    -0.0348    12.0110 
    11   opls_810      1    UNK   C0A      1     -0.234    12.0110 
    12   opls_811      1    UNK   C0B      1    -0.2065    12.0110 
    13   opls_812      1    UNK   C0C      1     0.1948    12.0110 
    14   opls_813      1    UNK   C0D      1     0.1521    12.0110 
    15   opls_814      1    UNK   N0E      1    -0.3528    14.0070 
    16   opls_815      1    UNK   N0F      1     -0.479    14.0070 
    17   opls_816      1    UNK   C0G      1    -0.0899    12.0110 
    18   opls_817      1    UNK   C0H      1    -0.0911    12.0110 
    19   opls_818      1    UNK   H0I      1     0.1049     1.0080 
    20   opls_819      1    UNK   H0J      1     0.1049     1.0080 
    21   opls_820      1    UNK   H0K      1     0.1049     1.0080 
    22   opls_821      1    UNK   H0M      1     0.1313     1.0080 
    23   opls_822      1    UNK   H0N      1     0.0971     1.0080 
    24   opls_823      1    UNK   H0O      1     0.0971     1.0080 
    25   opls_824      1    UNK   H0P      1     0.0971     1.0080 
    26   opls_825      1    UNK   H0Q      1     0.1395     1.0080 
    27   opls_826      1    UNK   H0R      1     0.1039     1.0080 
    28   opls_827      1    UNK   H0S      1     0.0947     1.0080 
    29   opls_828      1    UNK   H0T      1     0.0947     1.0080 
    30   opls_829      1    UNK   H0U      1     0.0947     1.0080 
    31   opls_830      1    UNK   H0V      1     0.0911     1.0080 
    32   opls_831      1    UNK   H0W      1     0.0911     1.0080 
    33   opls_832      1    UNK   H0X      2     0.0911     1.0080 
    34   opls_833      1    UNK   H0Y      2     0.0895     1.0080 
    35   opls_834      1    UNK   H0Z      2     0.0895     1.0080 
    36   opls_835      1    UNK   H10      2     0.0895     1.0080 
    37   opls_836      1    UNK   H11      2     0.0905     1.0080 
    38   opls_837      1    UNK   H12      2     0.0905     1.0080 
    39   opls_838      1    UNK   H13      2     0.0905     1.0080 
    40   opls_839      1    UNK   H14      2     0.0909     1.0080 
    41   opls_840      1    UNK   H15      2     0.0909     1.0080 
    42   opls_841      1    UNK   H16      2     0.0909     1.0080 
[ bonds ]
    2     1     1      0.1410 267776.000
    3     2     1      0.1327 179075.200
    4     3     1      0.1229 476976.000
    5     3     1      0.1522 265265.600
    6     5     1      0.1529 224262.400
    7     5     1      0.1510 234304.000
    8     7     1      0.1520 217568.000
    9     8     1      0.1510 234304.000
   10     8     1      0.1520 217568.000
   11    10     1      0.1510 234304.000
   12    10     1      0.1510 234304.000
   13     7     1      0.1520 217568.000
   14    13     1      0.1451 334720.000
   15    14     1      0.1157 543920.000
   16    13     1      0.1448 319657.600
   17    16     1      0.1448 319657.600
   18    16     1      0.1448 319657.600
   19     1     1      0.1090 284512.000
   20     1     1      0.1090 284512.000
   21     1     1      0.1090 284512.000
   22     5     1      0.1090 284512.000
   23     6     1      0.1090 284512.000
   24     6     1      0.1090 284512.000
   25     6     1      0.1090 284512.000
   26     7     1      0.1088 284512.000
   27     8     1      0.1088 284512.000
   28     9     1      0.1090 284512.000
   29     9     1      0.1090 284512.000
   30     9     1      0.1090 284512.000
   31    11     1      0.1090 284512.000
   32    11     1      0.1090 284512.000
   33    11     1      0.1090 284512.000
   34    12     1      0.1090 284512.000
   35    12     1      0.1090 284512.000
   36    12     1      0.1090 284512.000
   37    17     1      0.1090 284512.000
   38    17     1      0.1090 284512.000
   39    17     1      0.1090 284512.000
   40    18     1      0.1090 284512.000
   41    18     1      0.1090 284512.000
   42    18     1      0.1090 284512.000
   13    10     1      0.1520 217568.000

[ angles ]
;  ai    aj    ak funct            c0            c1            c2            c3 
    1     2     3     1    116.900    694.544
    2     3     4     1    123.400    694.544
    2     3     5     1    111.400    677.808
    3     5     6     1    111.100    527.184
    3     5     7     1    111.100    527.184
    5     7     8     1    117.200    313.800
    7     8     9     1    117.200    313.800
    7     8    10     1     83.000    251.040
    8    10    11     1    117.200    313.800
    8    10    12     1    117.200    313.800
    5     7    13     1    117.200    313.800
    7    13    14     1    109.430    358.401
   13    14    15     1    180.000   1255.200
    7    13    16     1    117.200    313.800
   13    16    17     1    107.200    433.462
   13    16    18     1    107.200    433.462
    2     1    19     1    109.500    292.880
    2     1    20     1    109.500    292.880
    2     1    21     1    109.500    292.880
    3     5    22     1    109.500    292.880
    5     6    23     1    110.700    313.800
    5     6    24     1    110.700    313.800
    5     6    25     1    110.700    313.800
    5     7    26     1    114.300    292.880
    7     8    27     1    117.200    313.800
    8     9    28     1    110.700    313.800
    8     9    29     1    110.700    313.800
    8     9    30     1    110.700    313.800
   10    11    31     1    110.700    313.800
   10    11    32     1    110.700    313.800
   10    11    33     1    110.700    313.800
   10    12    34     1    110.700    313.800
   10    12    35     1    110.700    313.800
   10    12    36     1    110.700    313.800
   16    17    37     1    109.500    292.880
   16    17    38     1    109.500    292.880
   16    17    39     1    109.500    292.880
   16    18    40     1    109.500    292.880
   16    18    41     1    109.500    292.880
   16    18    42     1    109.500    292.880
   19     1    20     1    107.800    276.144
   37    17    39     1    107.800    276.144
   29     9    30     1    107.800    276.144
   38    17    39     1    107.800    276.144
    6     5    22     1    110.700    313.800
   40    18    42     1    107.800    276.144
    7    13    10     1     83.000    251.040
   10    13    14     1    109.430    358.401
   41    18    42     1    107.800    276.144
   12    10    13     1    117.200    313.800
    9     8    10     1    117.200    313.800
    8     7    26     1    117.200    313.800
   31    11    32     1    107.800    276.144
    8     7    13     1     83.000    251.040
   34    12    36     1    107.800    276.144
   17    16    18     1    107.200    433.462
   28     9    30     1    107.800    276.144
    4     3     5     1    120.400    669.440
   32    11    33     1    107.800    276.144
   19     1    21     1    107.800    276.144
   10    13    16     1    117.200    313.800
   37    17    38     1    107.800    276.144
   10     8    27     1    117.200    313.800
    6     5     7     1    112.700    488.273
   31    11    33     1    107.800    276.144
   34    12    35     1    107.800    276.144
   13     7    26     1    117.200    313.800
   28     9    29     1    107.800    276.144
   23     6    24     1    107.800    276.144
   11    10    13     1    117.200    313.800
   24     6    25     1    107.800    276.144
   14    13    16     1    109.430    358.401
   23     6    25     1    107.800    276.144
   20     1    21     1    107.800    276.144
    7     5    22     1    110.700    313.800
   11    10    12     1    114.300    292.880
   40    18    41     1    107.800    276.144
    9     8    27     1    114.300    292.880
    8    10    13     1     83.000    251.040
   35    12    36     1    107.800    276.144

[ dihedrals ]
; IMPROPER DIHEDRAL ANGLES 
;  ai    aj    ak    al funct            c0            c1            c2            c3            c4            c5
     5     3     2     4    4        180.000     43.932     2  

[ dihedrals ]
; PROPER DIHEDRAL ANGLES
;  ai    aj    ak    al funct            c0            c1            c2            c3            c4            c5
    5    3    2    1        3      31.206  -9.768  -21.439  -0.000  -0.000   0.000
    6    5    3    4        3       0.000   0.000   0.000  -0.000  -0.000   0.000
    6    5    3    2        3      -1.157  -3.471   0.000   4.628  -0.000   0.000
   11   10    8    9        3       0.000   0.000   0.000  -0.000  -0.000   0.000
    9    8    7    5        3       0.000   0.000   0.000  -0.000  -0.000   0.000
   12   10    8    9        3       0.000   0.000   0.000  -0.000  -0.000   0.000
   12   10    8    7        3       0.000   0.000   0.000  -0.000  -0.000   0.000
   11   10   13    7        3       0.000   0.000   0.000  -0.000  -0.000   0.000
   12   10   13    7        3       0.000   0.000   0.000  -0.000  -0.000   0.000
   11   10    8    7        3       0.000   0.000   0.000  -0.000  -0.000   0.000
   17   16   13    7        3       1.789   3.492   0.536  -5.816  -0.000   0.000
   17   16   13   10        3       1.789   3.492   0.536  -5.816  -0.000   0.000
   18   16   13    7        3       1.789   3.492   0.536  -5.816  -0.000   0.000
   18   16   13   10        3       1.789   3.492   0.536  -5.816  -0.000   0.000
   17   16   13   14        3       1.789   3.492   0.536  -5.816  -0.000   0.000
   18   16   13   14        3       1.789   3.492   0.536  -5.816  -0.000   0.000
    7    5    3    4        3       0.000   0.000   0.000  -0.000  -0.000   0.000
    7    5    3    2        3      -1.157  -3.471   0.000   4.628  -0.000   0.000
    8    7    5    3        3      -4.960   6.286   1.310  -2.636  -0.000   0.000
   13    7    5    3        3      -4.960   6.286   1.310  -2.636  -0.000   0.000
   13    7    5    6        3       0.000   0.000   0.000  -0.000  -0.000   0.000
    8    7    5    6        3       0.000   0.000   0.000  -0.000  -0.000   0.000
   10    8    7    5        3       0.000   0.000   0.000  -0.000  -0.000   0.000
   13   10    8    9        3       0.000   0.000   0.000  -0.000  -0.000   0.000
   10   13    7    5        3       0.000   0.000   0.000  -0.000  -0.000   0.000
   13    7    8    9        3       0.000   0.000   0.000  -0.000  -0.000   0.000
   14   13   10   12        3       0.000   0.000   0.000  -0.000  -0.000   0.000
   14   13    7    5        3       0.000   0.000   0.000  -0.000  -0.000   0.000
   14   13   10   11        3       0.000   0.000   0.000  -0.000  -0.000   0.000
   14   13   10    8        3       0.000   0.000   0.000  -0.000  -0.000   0.000
   14   13    7    8        3       0.000   0.000   0.000  -0.000  -0.000   0.000
   22    5    3    4        3       0.000   0.000   0.000  -0.000  -0.000   0.000
   22    5    3    2        3       0.276   0.828   0.000  -1.105  -0.000   0.000
   25    6    5    3        3      -0.209  -0.628   0.000   0.837  -0.000   0.000
   23    6    5    3        3      -0.209  -0.628   0.000   0.837  -0.000   0.000
   24    6    5    3        3      -0.209  -0.628   0.000   0.837  -0.000   0.000
   23    6    5    7        3       0.628   1.883   0.000  -2.510  -0.000   0.000
   25    6    5    7        3       0.628   1.883   0.000  -2.510  -0.000   0.000
   24    6    5    7        3       0.628   1.883   0.000  -2.510  -0.000   0.000
   25    6    5   22        3       0.628   1.883   0.000  -2.510  -0.000   0.000
   24    6    5   22        3       0.628   1.883   0.000  -2.510  -0.000   0.000
   23    6    5   22        3       0.628   1.883   0.000  -2.510  -0.000   0.000
   32   11   10   12        3       0.628   1.883   0.000  -2.510  -0.000   0.000
   36   12   10   11        3       0.628   1.883   0.000  -2.510  -0.000   0.000
   31   11   10   12        3       0.628   1.883   0.000  -2.510  -0.000   0.000
   33   11   10   12        3       0.628   1.883   0.000  -2.510  -0.000   0.000
   34   12   10   11        3       0.628   1.883   0.000  -2.510  -0.000   0.000
   35   12   10   11        3       0.628   1.883   0.000  -2.510  -0.000   0.000
   30    9    8   10        3       0.628   1.883   0.000  -2.510  -0.000   0.000
   33   11   10    8        3       0.628   1.883   0.000  -2.510  -0.000   0.000
   36   12   10   13        3       0.628   1.883   0.000  -2.510  -0.000   0.000
   29    9    8   10        3       0.628   1.883   0.000  -2.510  -0.000   0.000
   28    9    8    7        3       0.628   1.883   0.000  -2.510  -0.000   0.000
   30    9    8    7        3       0.628   1.883   0.000  -2.510  -0.000   0.000
   31   11   10    8        3       0.628   1.883   0.000  -2.510  -0.000   0.000
   34   12   10    8        3       0.628   1.883   0.000  -2.510  -0.000   0.000
   22    5    7    8        3       0.628   1.883   0.000  -2.510  -0.000   0.000
   35   12   10    8        3       0.628   1.883   0.000  -2.510  -0.000   0.000
   33   11   10   13        3       0.628   1.883   0.000  -2.510  -0.000   0.000
   28    9    8   10        3       0.628   1.883   0.000  -2.510  -0.000   0.000
   29    9    8    7        3       0.628   1.883   0.000  -2.510  -0.000   0.000
   32   11   10    8        3       0.628   1.883   0.000  -2.510  -0.000   0.000
   36   12   10    8        3       0.628   1.883   0.000  -2.510  -0.000   0.000
   35   12   10   13        3       0.628   1.883   0.000  -2.510  -0.000   0.000
   22    5    7   13        3       0.628   1.883   0.000  -2.510  -0.000   0.000
   31   11   10   13        3       0.628   1.883   0.000  -2.510  -0.000   0.000
   34   12   10   13        3       0.628   1.883   0.000  -2.510  -0.000   0.000
   32   11   10   13        3       0.628   1.883   0.000  -2.510  -0.000   0.000
   28    9    8   27        3       0.628   1.883   0.000  -2.510  -0.000   0.000
   30    9    8   27        3       0.628   1.883   0.000  -2.510  -0.000   0.000
   29    9    8   27        3       0.628   1.883   0.000  -2.510  -0.000   0.000
   41   18   16   17        3       1.172   3.515   0.000  -4.686  -0.000   0.000
   38   17   16   18        3       1.172   3.515   0.000  -4.686  -0.000   0.000
   40   18   16   17        3       1.172   3.515   0.000  -4.686  -0.000   0.000
   42   18   16   17        3       1.172   3.515   0.000  -4.686  -0.000   0.000
   39   17   16   18        3       1.172   3.515   0.000  -4.686  -0.000   0.000
   37   17   16   18        3       1.172   3.515   0.000  -4.686  -0.000   0.000
   41   18   16   13        3       1.172   3.515   0.000  -4.686  -0.000   0.000
   42   18   16   13        3       1.172   3.515   0.000  -4.686  -0.000   0.000
   37   17   16   13        3       1.172   3.515   0.000  -4.686  -0.000   0.000
   38   17   16   13        3       1.172   3.515   0.000  -4.686  -0.000   0.000
   40   18   16   13        3       1.172   3.515   0.000  -4.686  -0.000   0.000
   39   17   16   13        3       1.172   3.515   0.000  -4.686  -0.000   0.000
   20    1    2    3        3       0.414   1.243   0.000  -1.657  -0.000   0.000
   21    1    2    3        3       0.414   1.243   0.000  -1.657  -0.000   0.000
   19    1    2    3        3       0.414   1.243   0.000  -1.657  -0.000   0.000
   26    7    5    3        3      -0.209  -0.628   0.000   0.837  -0.000   0.000
   26    7    5    6        3       0.628   1.883   0.000  -2.510  -0.000   0.000
   26    7    5   22        3       0.628   1.883   0.000  -2.510  -0.000   0.000
   26    7    8    9        3       0.000   0.000   0.000  -0.000  -0.000   0.000
   27    8   10   12        3       0.000   0.000   0.000  -0.000  -0.000   0.000
   27    8   10   11        3       0.000   0.000   0.000  -0.000  -0.000   0.000
   27    8    7    5        3       0.000   0.000   0.000  -0.000  -0.000   0.000
   27    8   10   13        3       0.000   0.000   0.000  -0.000  -0.000   0.000
   26    7   13   10        3       0.000   0.000   0.000  -0.000  -0.000   0.000
   27    8    7   13        3       0.000   0.000   0.000  -0.000  -0.000   0.000
   26    7    8   10        3       0.000   0.000   0.000  -0.000  -0.000   0.000
   26    7   13   14        3       0.000   0.000   0.000  -0.000  -0.000   0.000
   27    8    7   26        3       0.000   0.000   0.000  -0.000  -0.000   0.000
   26    7   13   16        3       0.000   0.000   0.000  -0.000  -0.000   0.000
   16   13   10   11        3       0.000   0.000   0.000  -0.000  -0.000   0.000
   16   13   10   12        3       0.000   0.000   0.000  -0.000  -0.000   0.000
   16   13    7    5        3       0.000   0.000   0.000  -0.000  -0.000   0.000
   16   13   10    8        3       0.000   0.000   0.000  -0.000  -0.000   0.000
   16   13    7    8        3       0.000   0.000   0.000  -0.000  -0.000   0.000
   16   13   14   15        3       0.000   0.000   0.000  -0.000  -0.000   0.000
   15   14   13    7        3       0.000   0.000   0.000  -0.000  -0.000   0.000
   15   14   13   10        3       0.000   0.000   0.000  -0.000  -0.000   0.000
    4    3    2    1        3      21.439   0.000  -21.439  -0.000  -0.000   0.000

[ pairs ]
     1     4    1
     1     5    1
     2     6    1
     2     7    1
     4     6    1
     4     7    1
     3     8    1
     6     8    1
     5     9    1
     5    10    1
     3    13    1
     7    11    1
     7    12    1
     6    13    1
     5    14    1
     9    11    1
     9    12    1
     5    16    1
     9    13    1
     8    14    1
     7    15    1
     3    19    1
     3    20    1
     8    16    1
     7    17    1
     3    21    1
     2    22    1
    11    14    1
    10    15    1
     7    18    1
    12    14    1
     4    22    1
     3    23    1
    11    16    1
    10    17    1
     3    24    1
    12    16    1
    10    18    1
     3    25    1
     3    26    1
     8    22    1
     7    23    1
    15    16    1
    14    17    1
     7    24    1
    14    18    1
     7    25    1
     6    26    1
     5    27    1
    13    22    1
     9    26    1
     7    28    1
    10    26    1
     7    29    1
     7    30    1
    11    27    1
    10    28    1
    12    27    1
    10    29    1
     8    31    1
    14    26    1
    13    27    1
    10    30    1
     8    32    1
     8    33    1
    16    26    1
     8    34    1
    12    31    1
     8    35    1
    13    31    1
    12    32    1
     8    36    1
    22    23    1
    13    32    1
    12    33    1
    11    34    1
    22    24    1
    13    33    1
    11    35    1
    22    25    1
    13    34    1
    11    36    1
    22    26    1
    13    35    1
    13    36    1
    13    37    1
    13    38    1
    13    39    1
    26    27    1
    13    40    1
    13    41    1
    27    28    1
    18    37    1
    13    42    1
    27    29    1
    18    38    1
    27    30    1
    18    39    1
    17    40    1
    17    41    1
    17    42    1

