LIGPARGEN GENERATED GRO FILE
   42
    1UNK    C00    1   0.100   0.100   0.000
    1UNK    O01    2  -0.043   0.100   0.000
    1UNK    C02    3  -0.099   0.100   0.124
    1UNK    O03    4  -0.036   0.089   0.229
    1UNK    C04    5  -0.249   0.115   0.114
    1UNK    C05    6  -0.313   0.038   0.231
    1UNK    C06    7  -0.306   0.259   0.110
    1UNK    C07    8  -0.276   0.361   0.227
    1UNK    C08    9  -0.145   0.362   0.303
    1UNK    C09   10  -0.302   0.478   0.125
    1UNK    C0A   11  -0.205   0.598   0.131
    1UNK    C0B   12  -0.446   0.530   0.152
    1UNK    C0C   13  -0.271   0.374   0.006
    1UNK    C0D   14  -0.135   0.379  -0.047
    1UNK    N0E   15  -0.029   0.389  -0.094
    1UNK    N0F   16  -0.379   0.381  -0.098
    1UNK    C0G   17  -0.376   0.509  -0.171
    1UNK    C0H   18  -0.364   0.273  -0.198
    1UNK    H0I   19   0.134   0.135  -0.098
    1UNK    H0J   20   0.137  -0.002   0.016
    1UNK    H0K   21   0.141   0.168   0.076
    1UNK    H0M   22  -0.280   0.062   0.023
    1UNK    H0N   23  -0.291   0.085   0.327
    1UNK    H0O   24  -0.275  -0.065   0.235
    1UNK    H0P   25  -0.422   0.033   0.220
    1UNK    H0Q   26  -0.415   0.241   0.107
    1UNK    H0R   27  -0.354   0.352   0.304
    1UNK    H0S   28  -0.057   0.365   0.237
    1UNK    H0T   29  -0.136   0.273   0.367
    1UNK    H0U   30  -0.140   0.448   0.370
    1UNK    H0V   31  -0.220   0.656   0.222
    1UNK    H0W   32  -0.221   0.664   0.045
    1UNK    H0X   33  -0.100   0.567   0.129
    1UNK    H0Y   34  -0.450   0.578   0.250
    1UNK    H0Z   35  -0.519   0.449   0.152
    1UNK    H10   36  -0.477   0.605   0.079
    1UNK    H11   37  -0.392   0.595  -0.106
    1UNK    H12   38  -0.459   0.512  -0.243
    1UNK    H13   39  -0.283   0.525  -0.226
    1UNK    H14   40  -0.369   0.174  -0.152
    1UNK    H15   41  -0.271   0.281  -0.255
    1UNK    H16   42  -0.447   0.277  -0.270
   1.00000   1.00000   1.00000

