
;
; GENERATED BY LigParGen Server
; Jorgensen Lab @ Yale University 
;
[ atomtypes ]
  opls_810  H810     1.0080     0.000    A    2.50000E-01   1.25520E-01
  opls_805  C805    12.0110     0.000    A    3.55000E-01   2.92880E-01
  opls_808  C808    12.0110     0.000    A    3.50000E-01   2.76144E-01
  opls_803  C803    12.0110     0.000    A    3.55000E-01   2.92880E-01
  opls_818  H818     1.0080     0.000    A    2.50000E-01   1.25520E-01
  opls_811  H811     1.0080     0.000    A    2.42000E-01   1.25520E-01
  opls_817  H817     1.0080     0.000    A    2.50000E-01   1.25520E-01
  opls_807  C807    12.0110     0.000    A    3.50000E-01   2.76144E-01
  opls_804  C804    12.0110     0.000    A    3.55000E-01   2.92880E-01
  opls_802  C802    12.0110     0.000    A    3.55000E-01   2.92880E-01
  opls_806  N806    14.0070     0.000    A    3.25000E-01   7.11280E-01
  opls_814  H814     1.0080     0.000    A    2.50000E-01   1.25520E-01
  opls_801  C801    12.0110     0.000    A    3.30000E-01   2.76144E-01
  opls_813  H813     1.0080     0.000    A    2.50000E-01   1.25520E-01
  opls_812  H812     1.0080     0.000    A    2.42000E-01   1.25520E-01
  opls_800  C800    12.0110     0.000    A    3.30000E-01   2.76144E-01
  opls_809  S809    32.0600     0.000    A    3.60000E-01   1.48532E+00
  opls_816  H816     1.0080     0.000    A    2.50000E-01   1.25520E-01
  opls_815  H815     1.0080     0.000    A    2.50000E-01   1.25520E-01
[ moleculetype ]
; Name               nrexcl
UNK                   3
[ atoms ]
;   nr       type  resnr residue  atom   cgnr     charge       mass  
     1   opls_800      1    UNK   C00      1    -0.2372    12.0110 
     2   opls_801      1    UNK   C01      1    -0.1010    12.0110 
     3   opls_802      1    UNK   C02      1    -0.1345    12.0110 
     4   opls_803      1    UNK   C03      1    -0.0702    12.0110 
     5   opls_804      1    UNK   C04      1    -0.3017    12.0110 
     6   opls_805      1    UNK   C05      1     0.2105    12.0110 
     7   opls_806      1    UNK   N06      1    -0.7278    14.0070 
     8   opls_807      1    UNK   C07      1     0.0613    12.0110 
     9   opls_808      1    UNK   C08      1     0.0528    12.0110 
    10   opls_809      1    UNK   S09      1     0.0927    32.0600 
    11   opls_810      1    UNK   H0A      1     0.2574     1.0080 
    12   opls_811      1    UNK   H0B      1     0.1809     1.0080 
    13   opls_812      1    UNK   H0C      1     0.1713     1.0080 
    14   opls_813      1    UNK   H0D      1     0.0894     1.0080 
    15   opls_814      1    UNK   H0E      1     0.0894     1.0080 
    16   opls_815      1    UNK   H0F      1     0.0894     1.0080 
    17   opls_816      1    UNK   H0G      1     0.0925     1.0080 
    18   opls_817      1    UNK   H0H      1     0.0925     1.0080 
    19   opls_818      1    UNK   H0I      1     0.0925     1.0080 
[ bonds ]
    2     1     1      0.1210 962320.000
    3     2     1      0.1310 280771.504
    4     3     1      0.1367 456892.800
    5     4     1      0.1424 392459.200
    6     5     1      0.1367 456892.800
    7     6     1      0.1381 357313.600
    8     7     1      0.1449 282001.600
    9     7     1      0.1449 282001.600
   10     3     1      0.1740 209200.000
   11     1     1      0.1080 351456.000
   12     4     1      0.1080 307105.600
   13     5     1      0.1080 307105.600
   14     8     1      0.1090 284512.000
   15     8     1      0.1090 284512.000
   16     8     1      0.1090 284512.000
   17     9     1      0.1090 284512.000
   18     9     1      0.1090 284512.000
   19     9     1      0.1090 284512.000
   10     6     1      0.1740 209200.000

[ angles ]
;  ai    aj    ak funct            c0            c1            c2            c3 
    1     2     3     1    156.000    924.413
    2     3     4     1    111.170    585.760
    3     4     5     1    107.300    585.760
    4     5     6     1    107.300    585.760
    5     6     7     1    111.170    585.760
    6     7     8     1    118.330    404.760
    6     7     9     1    118.330    404.760
    2     3    10     1    111.170    585.760
    2     1    11     1    180.000    937.216
    3     4    12     1    125.700    292.880
    4     5    13     1    127.500    292.880
    7     8    14     1    109.500    292.880
    7     8    15     1    109.500    292.880
    7     8    16     1    109.500    292.880
    7     9    17     1    109.500    292.880
    7     9    18     1    109.500    292.880
    7     9    19     1    109.500    292.880
   12     4     5     1    127.500    292.880
   16     8    15     1    107.800    276.144
   18     9    17     1    107.800    276.144
    9     7     8     1    118.000    418.400
   10     3     4     1    111.170    585.760
   13     5     6     1    125.700    292.880
   19     9    18     1    107.800    276.144
    6    10     3     1     97.000    619.232
   10     6     5     1    111.170    585.760
   10     6     7     1    125.000    585.760
   15     8    14     1    107.800    276.144
   16     8    14     1    107.800    276.144
   19     9    17     1    107.800    276.144

[ dihedrals ]
; IMPROPER DIHEDRAL ANGLES 
;  ai    aj    ak    al funct            c0            c1            c2            c3            c4            c5
     9     7     6     8    4        180.000     10.460     2  
    12     4     3     5    4        180.000     10.460     2  
    13     5     4     6    4        180.000     10.460     2  
    10     3     2     4    4        180.000     10.460     2  

[ dihedrals ]
; PROPER DIHEDRAL ANGLES
;  ai    aj    ak    al funct            c0            c1            c2            c3            c4            c5
    6    5    4    3        3       9.079   0.000  -9.079  -0.000  -0.000   0.000
    3    4    5   13        3      30.334   0.000  -30.334  -0.000  -0.000   0.000
    6    5    4   12        3      30.334   0.000  -30.334  -0.000  -0.000   0.000
    6    7    9   19        3       0.000   0.000   0.000  -0.000  -0.000   0.000
    6    7    8   16        3       0.000   0.000   0.000  -0.000  -0.000   0.000
    6    7    9   18        3       0.000   0.000   0.000  -0.000  -0.000   0.000
    6    7    8   15        3       0.000   0.000   0.000  -0.000  -0.000   0.000
    3   10    6    5        3       0.000   0.000   0.000  -0.000  -0.000   0.000
    3   10    6    7        3      30.334   0.000  -30.334  -0.000  -0.000   0.000
    4    3    2    1        3       0.000   0.000   0.000  -0.000  -0.000   0.000
    5    6    7    9        3      30.288  -4.812  -25.476  -0.000  -0.000   0.000
    4    3   10    6        3       0.000   0.000   0.000  -0.000  -0.000   0.000
    5    4    3    2        3       9.079   0.000  -9.079  -0.000  -0.000   0.000
    5    4    3   10        3       8.786   0.000  -8.786  -0.000  -0.000   0.000
    4    5    6   10        3       8.786   0.000  -8.786  -0.000  -0.000   0.000
    8    7    6    5        3      30.288  -4.812  -25.476  -0.000  -0.000   0.000
    8    7    6   10        3      27.196   0.000  -27.196  -0.000  -0.000   0.000
    9    7    6   10        3      27.196   0.000  -27.196  -0.000  -0.000   0.000
    8    7    9   17        3       0.000   0.000   0.000  -0.000  -0.000   0.000
    9    7    8   15        3       0.000   0.000   0.000  -0.000  -0.000   0.000
    8    7    9   18        3       0.000   0.000   0.000  -0.000  -0.000   0.000
    9    7    8   14        3       0.000   0.000   0.000  -0.000  -0.000   0.000
    8    7    9   19        3       0.000   0.000   0.000  -0.000  -0.000   0.000
    9    7    8   16        3       0.000   0.000   0.000  -0.000  -0.000   0.000
    2    3    4   12        3      30.334   0.000  -30.334  -0.000  -0.000   0.000
    2    3   10    6        3       0.000   0.000   0.000  -0.000  -0.000   0.000
    1    2    3   10        3       0.000   0.000   0.000  -0.000  -0.000   0.000
   12    4    5   13        3      30.334   0.000  -30.334  -0.000  -0.000   0.000
   14    8    7    6        3       0.000   0.000   0.000  -0.000  -0.000   0.000
   17    9    7    6        3       0.000   0.000   0.000  -0.000  -0.000   0.000
   11    1    2    3        3       0.000   0.000   0.000  -0.000  -0.000   0.000
    7    6    5    4        3       4.602   0.000  -4.602  -0.000  -0.000   0.000
    7    6    5   13        3      30.334   0.000  -30.334  -0.000  -0.000   0.000
    7    5    6   10        3      20.920   0.000  -20.920  -0.000  -0.000   0.000
   10    6    5   13        3      30.334   0.000  -30.334  -0.000  -0.000   0.000
   10    3    4   12        3      30.334   0.000  -30.334  -0.000  -0.000   0.000

[ pairs ]
     1     4    1
     2     5    1
     2     6    1
     3     7    1
     4     7    1
     1    10    1
     5     8    1
     5     9    1
     3    11    1
     2    12    1
     3    13    1
     8    10    1
     6    12    1
     9    10    1
     7    13    1
     6    14    1
     6    15    1
    10    12    1
     6    16    1
    10    13    1
     9    14    1
     6    17    1
     9    15    1
     6    18    1
    12    13    1
     9    16    1
     8    17    1
     6    19    1
     8    18    1
     8    19    1

