LIGPARGEN GENERATED GRO FILE
   19
    1UNK    C00    1   0.100   0.100   0.000
    1UNK    C01    2  -0.020   0.100   0.000
    1UNK    C02    3  -0.162   0.100   0.007
    1UNK    C03    4  -0.248   0.100  -0.101
    1UNK    C04    5  -0.385   0.100  -0.059
    1UNK    C05    6  -0.402   0.100   0.079
    1UNK    N06    7  -0.520   0.100   0.149
    1UNK    C07    8  -0.651   0.100   0.084
    1UNK    C08    9  -0.525   0.100   0.295
    1UNK    S09   10  -0.246   0.100   0.154
    1UNK    H0A   11   0.206   0.100   0.005
    1UNK    H0B   12  -0.215   0.100  -0.204
    1UNK    H0C   13  -0.466   0.100  -0.131
    1UNK    H0D   14  -0.647   0.100  -0.025
    1UNK    H0E   15  -0.707   0.189   0.115
    1UNK    H0F   16  -0.707   0.011   0.115
    1UNK    H0G   17  -0.428   0.100   0.345
    1UNK    H0H   18  -0.579   0.011   0.330
    1UNK    H0I   19  -0.579   0.189   0.331
   1.00000   1.00000   1.00000

