
;
; GENERATED BY LigParGen Server
; Jorgensen Lab @ Yale University 
;
[ atomtypes ]
  opls_807  O807    15.9990     0.000    A    2.96000E-01   8.78640E-01
  opls_818  H818     1.0080     0.000    A    2.50000E-01   1.25520E-01
  opls_824  H824     1.0080     0.000    A    2.50000E-01   1.25520E-01
  opls_805  C805    12.0110     0.000    A    3.50000E-01   2.76144E-01
  opls_833  H833     1.0080     0.000    A    2.50000E-01   1.25520E-01
  opls_836  H836     1.0080     0.000    A    2.50000E-01   1.25520E-01
  opls_834  H834     1.0080     0.000    A    2.50000E-01   1.25520E-01
  opls_810  C810    12.0110     0.000    A    3.50000E-01   2.76144E-01
  opls_828  H828     1.0080     0.000    A    2.50000E-01   1.25520E-01
  opls_812  C812    12.0110     0.000    A    3.50000E-01   2.76144E-01
  opls_802  C802    12.0110     0.000    A    3.50000E-01   2.76144E-01
  opls_815  H815     1.0080     0.000    A    2.50000E-01   1.25520E-01
  opls_809  C809    12.0110     0.000    A    3.50000E-01   2.76144E-01
  opls_830  H830     1.0080     0.000    A    2.50000E-01   1.25520E-01
  opls_822  H822     1.0080     0.000    A    2.50000E-01   1.25520E-01
  opls_803  C803    12.0110     0.000    A    3.50000E-01   2.76144E-01
  opls_825  H825     1.0080     0.000    A    2.50000E-01   1.25520E-01
  opls_814  H814     1.0080     0.000    A    2.50000E-01   1.25520E-01
  opls_821  H821     1.0080     0.000    A    2.50000E-01   1.25520E-01
  opls_820  H820     1.0080     0.000    A    2.50000E-01   1.25520E-01
  opls_837  H837     1.0080     0.000    A    2.50000E-01   1.25520E-01
  opls_829  H829     1.0080     0.000    A    2.50000E-01   1.25520E-01
  opls_831  H831     1.0080     0.000    A    2.50000E-01   1.25520E-01
  opls_832  H832     1.0080     0.000    A    2.50000E-01   1.25520E-01
  opls_816  H816     1.0080     0.000    A    2.50000E-01   1.25520E-01
  opls_800  C800    12.0110     0.000    A    3.50000E-01   2.76144E-01
  opls_811  C811    12.0110     0.000    A    3.50000E-01   2.76144E-01
  opls_806  C806    12.0110     0.000    A    3.55000E-01   2.92880E-01
  opls_823  H823     1.0080     0.000    A    2.50000E-01   1.25520E-01
  opls_813  C813    12.0110     0.000    A    3.50000E-01   2.76144E-01
  opls_826  H826     1.0080     0.000    A    2.50000E-01   1.25520E-01
  opls_835  H835     1.0080     0.000    A    2.50000E-01   1.25520E-01
  opls_819  H819     1.0080     0.000    A    2.50000E-01   1.25520E-01
  opls_804  C804    12.0110     0.000    A    3.50000E-01   2.76144E-01
  opls_827  H827     1.0080     0.000    A    2.50000E-01   1.25520E-01
  opls_801  C801    12.0110     0.000    A    3.50000E-01   2.76144E-01
  opls_808  C808    12.0110     0.000    A    3.50000E-01   2.76144E-01
  opls_817  H817     1.0080     0.000    A    2.50000E-01   1.25520E-01
[ moleculetype ]
; Name               nrexcl
UNK                   3
[ atoms ]
;   nr       type  resnr residue  atom   cgnr     charge       mass  
     1   opls_800      1    UNK   C00      1    -0.2388    12.0110 
     2   opls_801      1    UNK   C01      1    -0.1098    12.0110 
     3   opls_802      1    UNK   C02      1     -0.159    12.0110 
     4   opls_803      1    UNK   C03      1    -0.0901    12.0110 
     5   opls_804      1    UNK   C04      1    -0.2244    12.0110 
     6   opls_805      1    UNK   C05      1    -0.2278    12.0110 
     7   opls_806      1    UNK   C06      1     0.3854    12.0110 
     8   opls_807      1    UNK   O07      1    -0.4586    15.9990 
     9   opls_808      1    UNK   C08      1    -0.2263    12.0110 
    10   opls_809      1    UNK   C09      1    -0.0784    12.0110 
    11   opls_810      1    UNK   C0A      1    -0.0413    12.0110 
    12   opls_811      1    UNK   C0B      1     -0.237    12.0110 
    13   opls_812      1    UNK   C0C      1    -0.2332    12.0110 
    14   opls_813      1    UNK   C0D      1    -0.2358    12.0110 
    15   opls_814      1    UNK   H0E      1     0.0821     1.0080 
    16   opls_815      1    UNK   H0F      1     0.0821     1.0080 
    17   opls_816      1    UNK   H0G      1     0.0821     1.0080 
    18   opls_817      1    UNK   H0H      1     0.1022     1.0080 
    19   opls_818      1    UNK   H0I      1     0.0934     1.0080 
    20   opls_819      1    UNK   H0J      1     0.0934     1.0080 
    21   opls_820      1    UNK   H0K      1     0.0894     1.0080 
    22   opls_821      1    UNK   H0M      1     0.0894     1.0080 
    23   opls_822      1    UNK   H0N      1     0.0894     1.0080 
    24   opls_823      1    UNK   H0O      1      0.091     1.0080 
    25   opls_824      1    UNK   H0P      1      0.091     1.0080 
    26   opls_825      1    UNK   H0Q      1      0.091     1.0080 
    27   opls_826      1    UNK   H0R      1     0.1229     1.0080 
    28   opls_827      1    UNK   H0S      1     0.1229     1.0080 
    29   opls_828      1    UNK   H0T      1     0.0961     1.0080 
    30   opls_829      1    UNK   H0U      1     0.0839     1.0080 
    31   opls_830      1    UNK   H0V      1     0.0839     1.0080 
    32   opls_831      1    UNK   H0W      1     0.0839     1.0080 
    33   opls_832      1    UNK   H0X      2     0.0822     1.0080 
    34   opls_833      1    UNK   H0Y      2     0.0822     1.0080 
    35   opls_834      1    UNK   H0Z      2     0.0822     1.0080 
    36   opls_835      1    UNK   H10      2     0.0862     1.0080 
    37   opls_836      1    UNK   H11      2     0.0862     1.0080 
    38   opls_837      1    UNK   H12      2     0.0862     1.0080 
[ bonds ]
    2     1     1      0.1529 224262.400
    3     2     1      0.1529 224262.400
    4     3     1      0.1529 224262.400
    5     4     1      0.1529 224262.400
    6     4     1      0.1529 224262.400
    7     4     1      0.1522 265265.600
    8     7     1      0.1229 476976.000
    9     7     1      0.1522 265265.600
   10     2     1      0.1529 224262.400
   11    10     1      0.1529 224262.400
   12    11     1      0.1529 224262.400
   13    11     1      0.1529 224262.400
   14    11     1      0.1529 224262.400
   15     1     1      0.1090 284512.000
   16     1     1      0.1090 284512.000
   17     1     1      0.1090 284512.000
   18     2     1      0.1090 284512.000
   19     3     1      0.1090 284512.000
   20     3     1      0.1090 284512.000
   21     5     1      0.1090 284512.000
   22     5     1      0.1090 284512.000
   23     5     1      0.1090 284512.000
   24     6     1      0.1090 284512.000
   25     6     1      0.1090 284512.000
   26     6     1      0.1090 284512.000
   27     9     1      0.1090 284512.000
   28     9     1      0.1090 284512.000
   29    10     1      0.1090 284512.000
   30    12     1      0.1090 284512.000
   31    12     1      0.1090 284512.000
   32    12     1      0.1090 284512.000
   33    13     1      0.1090 284512.000
   34    13     1      0.1090 284512.000
   35    13     1      0.1090 284512.000
   36    14     1      0.1090 284512.000
   37    14     1      0.1090 284512.000
   38    14     1      0.1090 284512.000
   10     9     1      0.1529 224262.400

[ angles ]
;  ai    aj    ak funct            c0            c1            c2            c3 
    1     2     3     1    112.700    488.273
    2     3     4     1    112.700    488.273
    3     4     5     1    112.700    488.273
    3     4     6     1    112.700    488.273
    3     4     7     1    111.100    527.184
    4     7     8     1    120.400    669.440
    4     7     9     1    116.000    585.760
    1     2    10     1    112.700    488.273
    2    10    11     1    112.700    488.273
   10    11    12     1    112.700    488.273
   10    11    13     1    112.700    488.273
   10    11    14     1    112.700    488.273
    2     1    15     1    110.700    313.800
    2     1    16     1    110.700    313.800
    2     1    17     1    110.700    313.800
    1     2    18     1    110.700    313.800
    2     3    19     1    110.700    313.800
    2     3    20     1    110.700    313.800
    4     5    21     1    110.700    313.800
    4     5    22     1    110.700    313.800
    4     5    23     1    110.700    313.800
    4     6    24     1    110.700    313.800
    4     6    25     1    110.700    313.800
    4     6    26     1    110.700    313.800
    7     9    27     1    109.500    292.880
    7     9    28     1    109.500    292.880
    2    10    29     1    110.700    313.800
   11    12    30     1    110.700    313.800
   11    12    31     1    110.700    313.800
   11    12    32     1    110.700    313.800
   11    13    33     1    110.700    313.800
   11    13    34     1    110.700    313.800
   11    13    35     1    110.700    313.800
   11    14    36     1    110.700    313.800
   11    14    37     1    110.700    313.800
   11    14    38     1    110.700    313.800
   25     6    26     1    107.800    276.144
   33    13    34     1    107.800    276.144
    5     4     6     1    112.700    488.273
   10     2    18     1    110.700    313.800
   37    14    38     1    107.800    276.144
   22     5    23     1    107.800    276.144
    3     2    18     1    110.700    313.800
    9    10    29     1    110.700    313.800
    5     4     7     1    111.100    527.184
   21     5    22     1    107.800    276.144
    6     4     7     1    111.100    527.184
   24     6    25     1    107.800    276.144
   11    10    29     1    110.700    313.800
   34    13    35     1    107.800    276.144
    4     3    19     1    110.700    313.800
    8     7     9     1    120.400    669.440
   24     6    26     1    107.800    276.144
   30    12    32     1    107.800    276.144
   21     5    23     1    107.800    276.144
   15     1    16     1    107.800    276.144
   33    13    35     1    107.800    276.144
   27     9    28     1    107.800    276.144
    2    10     9     1    112.700    488.273
   15     1    17     1    107.800    276.144
   16     1    17     1    107.800    276.144
   12    11    13     1    112.700    488.273
    9    10    11     1    112.700    488.273
   19     3    20     1    107.800    276.144
   10     9    28     1    110.700    313.800
   13    11    14     1    112.700    488.273
    4     3    20     1    110.700    313.800
    7     9    10     1    111.100    527.184
   36    14    37     1    107.800    276.144
   30    12    31     1    107.800    276.144
   31    12    32     1    107.800    276.144
   12    11    14     1    112.700    488.273
   10     9    27     1    110.700    313.800
   36    14    38     1    107.800    276.144
    3     2    10     1    112.700    488.273

[ dihedrals ]
; IMPROPER DIHEDRAL ANGLES 
;  ai    aj    ak    al funct            c0            c1            c2            c3            c4            c5
     9     7     4     8    4        180.000     43.932     2  

[ dihedrals ]
; PROPER DIHEDRAL ANGLES
;  ai    aj    ak    al funct            c0            c1            c2            c3            c4            c5
    7    9   10    2        3      -4.960   6.286   1.310  -2.636  -0.000   0.000
    7    4    3    2        3      -4.960   6.286   1.310  -2.636  -0.000   0.000
    9    7    4    3        3       0.818  -7.906   0.602   6.485  -0.000   0.000
    9    7    4    5        3       0.818  -7.906   0.602   6.485  -0.000   0.000
    9    7    4    6        3       0.818  -7.906   0.602   6.485  -0.000   0.000
   10    9    7    4        3       0.818  -7.906   0.602   6.485  -0.000   0.000
   10    9    7    8        3       0.000   0.000   0.000  -0.000  -0.000   0.000
   11   10    9    7        3      -4.960   6.286   1.310  -2.636  -0.000   0.000
    4    3    2    1        3       2.301  -1.464   0.837  -1.674  -0.000   0.000
   11   10    2    1        3       2.301  -1.464   0.837  -1.674  -0.000   0.000
    9   10    2    3        3       2.301  -1.464   0.837  -1.674  -0.000   0.000
    9   10    2    1        3       2.301  -1.464   0.837  -1.674  -0.000   0.000
   14   11   10    2        3       2.301  -1.464   0.837  -1.674  -0.000   0.000
   13   11   10    9        3       2.301  -1.464   0.837  -1.674  -0.000   0.000
   12   11   10    9        3       2.301  -1.464   0.837  -1.674  -0.000   0.000
   13   11   10    2        3       2.301  -1.464   0.837  -1.674  -0.000   0.000
   14   11   10    9        3       2.301  -1.464   0.837  -1.674  -0.000   0.000
    6    4    3    2        3       2.301  -1.464   0.837  -1.674  -0.000   0.000
   11   10    2    3        3       2.301  -1.464   0.837  -1.674  -0.000   0.000
   10    2    3    4        3       2.301  -1.464   0.837  -1.674  -0.000   0.000
   12   11   10    2        3       2.301  -1.464   0.837  -1.674  -0.000   0.000
    5    4    3    2        3       2.301  -1.464   0.837  -1.674  -0.000   0.000
   28    9    7    4        3       0.575   1.726   0.000  -2.301  -0.000   0.000
   27    9    7    4        3       0.575   1.726   0.000  -2.301  -0.000   0.000
   28    9    7    8        3       0.000   0.000   0.000  -0.000  -0.000   0.000
   27    9    7    8        3       0.000   0.000   0.000  -0.000  -0.000   0.000
   22    5    4    7        3      -0.209  -0.628   0.000   0.837  -0.000   0.000
   19    3    4    7        3      -0.209  -0.628   0.000   0.837  -0.000   0.000
   25    6    4    7        3      -0.209  -0.628   0.000   0.837  -0.000   0.000
   29   10    9    7        3      -0.209  -0.628   0.000   0.837  -0.000   0.000
   23    5    4    7        3      -0.209  -0.628   0.000   0.837  -0.000   0.000
   20    3    4    7        3      -0.209  -0.628   0.000   0.837  -0.000   0.000
   24    6    4    7        3      -0.209  -0.628   0.000   0.837  -0.000   0.000
   21    5    4    7        3      -0.209  -0.628   0.000   0.837  -0.000   0.000
   26    6    4    7        3      -0.209  -0.628   0.000   0.837  -0.000   0.000
   36   14   11   12        3       0.628   1.883   0.000  -2.510  -0.000   0.000
   31   12   11   13        3       0.628   1.883   0.000  -2.510  -0.000   0.000
   30   12   11   14        3       0.628   1.883   0.000  -2.510  -0.000   0.000
   23    5    4    3        3       0.628   1.883   0.000  -2.510  -0.000   0.000
   38   14   11   10        3       0.628   1.883   0.000  -2.510  -0.000   0.000
   16    1    2   10        3       0.628   1.883   0.000  -2.510  -0.000   0.000
   18    2   10    9        3       0.628   1.883   0.000  -2.510  -0.000   0.000
   29   10    2    3        3       0.628   1.883   0.000  -2.510  -0.000   0.000
   29   10    2    1        3       0.628   1.883   0.000  -2.510  -0.000   0.000
   19    3    4    6        3       0.628   1.883   0.000  -2.510  -0.000   0.000
   20    3    4    5        3       0.628   1.883   0.000  -2.510  -0.000   0.000
   37   14   11   13        3       0.628   1.883   0.000  -2.510  -0.000   0.000
   38   14   11   12        3       0.628   1.883   0.000  -2.510  -0.000   0.000
   15    1    2   10        3       0.628   1.883   0.000  -2.510  -0.000   0.000
   28    9   10   11        3       0.628   1.883   0.000  -2.510  -0.000   0.000
   16    1    2    3        3       0.628   1.883   0.000  -2.510  -0.000   0.000
   34   13   11   10        3       0.628   1.883   0.000  -2.510  -0.000   0.000
   32   12   11   14        3       0.628   1.883   0.000  -2.510  -0.000   0.000
   20    3    4    6        3       0.628   1.883   0.000  -2.510  -0.000   0.000
   22    5    4    6        3       0.628   1.883   0.000  -2.510  -0.000   0.000
   31   12   11   10        3       0.628   1.883   0.000  -2.510  -0.000   0.000
   17    1    2    3        3       0.628   1.883   0.000  -2.510  -0.000   0.000
   18    2    3    4        3       0.628   1.883   0.000  -2.510  -0.000   0.000
   27    9   10   11        3       0.628   1.883   0.000  -2.510  -0.000   0.000
   28    9   10    2        3       0.628   1.883   0.000  -2.510  -0.000   0.000
   15    1    2    3        3       0.628   1.883   0.000  -2.510  -0.000   0.000
   26    6    4    5        3       0.628   1.883   0.000  -2.510  -0.000   0.000
   19    3    4    5        3       0.628   1.883   0.000  -2.510  -0.000   0.000
   19    3    2   10        3       0.628   1.883   0.000  -2.510  -0.000   0.000
   32   12   11   10        3       0.628   1.883   0.000  -2.510  -0.000   0.000
   25    6    4    3        3       0.628   1.883   0.000  -2.510  -0.000   0.000
   21    5    4    6        3       0.628   1.883   0.000  -2.510  -0.000   0.000
   22    5    4    3        3       0.628   1.883   0.000  -2.510  -0.000   0.000
   33   13   11   12        3       0.628   1.883   0.000  -2.510  -0.000   0.000
   18    2   10   11        3       0.628   1.883   0.000  -2.510  -0.000   0.000
   36   14   11   10        3       0.628   1.883   0.000  -2.510  -0.000   0.000
   21    5    4    3        3       0.628   1.883   0.000  -2.510  -0.000   0.000
   35   13   11   12        3       0.628   1.883   0.000  -2.510  -0.000   0.000
   33   13   11   14        3       0.628   1.883   0.000  -2.510  -0.000   0.000
   25    6    4    5        3       0.628   1.883   0.000  -2.510  -0.000   0.000
   29   10   11   13        3       0.628   1.883   0.000  -2.510  -0.000   0.000
   38   14   11   13        3       0.628   1.883   0.000  -2.510  -0.000   0.000
   27    9   10    2        3       0.628   1.883   0.000  -2.510  -0.000   0.000
   31   12   11   14        3       0.628   1.883   0.000  -2.510  -0.000   0.000
   34   13   11   14        3       0.628   1.883   0.000  -2.510  -0.000   0.000
   24    6    4    3        3       0.628   1.883   0.000  -2.510  -0.000   0.000
   24    6    4    5        3       0.628   1.883   0.000  -2.510  -0.000   0.000
   32   12   11   13        3       0.628   1.883   0.000  -2.510  -0.000   0.000
   37   14   11   10        3       0.628   1.883   0.000  -2.510  -0.000   0.000
   34   13   11   12        3       0.628   1.883   0.000  -2.510  -0.000   0.000
   29   10   11   14        3       0.628   1.883   0.000  -2.510  -0.000   0.000
   26    6    4    3        3       0.628   1.883   0.000  -2.510  -0.000   0.000
   36   14   11   13        3       0.628   1.883   0.000  -2.510  -0.000   0.000
   20    3    2   10        3       0.628   1.883   0.000  -2.510  -0.000   0.000
   19    3    2    1        3       0.628   1.883   0.000  -2.510  -0.000   0.000
   29   10   11   12        3       0.628   1.883   0.000  -2.510  -0.000   0.000
   17    1    2   10        3       0.628   1.883   0.000  -2.510  -0.000   0.000
   23    5    4    6        3       0.628   1.883   0.000  -2.510  -0.000   0.000
   33   13   11   10        3       0.628   1.883   0.000  -2.510  -0.000   0.000
   30   12   11   13        3       0.628   1.883   0.000  -2.510  -0.000   0.000
   35   13   11   14        3       0.628   1.883   0.000  -2.510  -0.000   0.000
   37   14   11   12        3       0.628   1.883   0.000  -2.510  -0.000   0.000
   30   12   11   10        3       0.628   1.883   0.000  -2.510  -0.000   0.000
   20    3    2    1        3       0.628   1.883   0.000  -2.510  -0.000   0.000
   35   13   11   10        3       0.628   1.883   0.000  -2.510  -0.000   0.000
   29   10    9   28        3       0.628   1.883   0.000  -2.510  -0.000   0.000
   29   10    2   18        3       0.628   1.883   0.000  -2.510  -0.000   0.000
   18    2    1   15        3       0.628   1.883   0.000  -2.510  -0.000   0.000
   18    2    1   17        3       0.628   1.883   0.000  -2.510  -0.000   0.000
   18    2    1   16        3       0.628   1.883   0.000  -2.510  -0.000   0.000
   20    3    2   18        3       0.628   1.883   0.000  -2.510  -0.000   0.000
   29   10    9   27        3       0.628   1.883   0.000  -2.510  -0.000   0.000
   19    3    2   18        3       0.628   1.883   0.000  -2.510  -0.000   0.000
    8    7    4    3        3       0.000   0.000   0.000  -0.000  -0.000   0.000
    8    7    4    5        3       0.000   0.000   0.000  -0.000  -0.000   0.000
    8    7    4    6        3       0.000   0.000   0.000  -0.000  -0.000   0.000

[ pairs ]
     1     4    1
     2     5    1
     2     6    1
     2     7    1
     1     9    1
     3     8    1
     3     9    1
     1    11    1
     5     8    1
     6     8    1
     5     9    1
     4    10    1
     3    11    1
     2    12    1
     6     9    1
     2    13    1
     2    14    1
     8    10    1
     7    11    1
     3    15    1
     3    16    1
     3    17    1
     1    19    1
     9    12    1
     1    20    1
     9    13    1
     4    18    1
     9    14    1
     5    19    1
     3    21    1
    10    15    1
     6    19    1
     5    20    1
     3    22    1
    10    16    1
     7    19    1
     6    20    1
     3    23    1
    10    17    1
     9    18    1
     7    20    1
     6    21    1
     3    24    1
     7    21    1
     6    22    1
     3    25    1
    11    18    1
    10    19    1
     7    22    1
     6    23    1
     5    24    1
     3    26    1
     2    27    1
    10    20    1
     7    23    1
     5    25    1
     2    28    1
     1    29    1
     7    24    1
     5    26    1
     4    27    1
     7    25    1
     4    28    1
     3    29    1
    15    18    1
     7    26    1
    16    18    1
    17    18    1
     8    27    1
     8    28    1
     7    29    1
    18    19    1
    18    20    1
    11    27    1
    11    28    1
    10    30    1
    12    29    1
    10    31    1
    13    29    1
    10    32    1
    14    29    1
    13    30    1
    10    33    1
    14    30    1
    13    31    1
    10    34    1
    14    31    1
    13    32    1
    12    33    1
    10    35    1
    14    32    1
    12    34    1
    10    36    1
    18    29    1
    14    33    1
    12    35    1
    10    37    1
    14    34    1
    12    36    1
    10    38    1
    14    35    1
    13    36    1
    12    37    1
    13    37    1
    12    38    1
    13    38    1
    27    29    1
    28    29    1

