LIGPARGEN GENERATED GRO FILE
   38
    1UNK    C00    1   0.100   0.100   0.000
    1UNK    C01    2  -0.054   0.100   0.000
    1UNK    C02    3  -0.109   0.100   0.143
    1UNK    C03    4  -0.115   0.236   0.217
    1UNK    C04    5   0.019   0.270   0.283
    1UNK    C05    6  -0.222   0.225   0.328
    1UNK    C06    7  -0.152   0.350   0.122
    1UNK    O07    8  -0.217   0.448   0.161
    1UNK    C08    9  -0.093   0.349  -0.017
    1UNK    C09   10  -0.111   0.214  -0.089
    1UNK    C0A   11  -0.256   0.191  -0.151
    1UNK    C0B   12  -0.286   0.301  -0.257
    1UNK    C0C   13  -0.262   0.056  -0.225
    1UNK    C0D   14  -0.371   0.195  -0.049
    1UNK    H0E   15   0.139   0.022   0.066
    1UNK    H0F   16   0.143   0.195   0.032
    1UNK    H0G   17   0.138   0.080  -0.101
    1UNK    H0H   18  -0.080   0.003  -0.044
    1UNK    H0I   19  -0.053   0.028   0.204
    1UNK    H0J   20  -0.210   0.057   0.139
    1UNK    H0K   21   0.060   0.184   0.338
    1UNK    H0M   22   0.007   0.352   0.355
    1UNK    H0N   23   0.094   0.304   0.211
    1UNK    H0O   24  -0.200   0.141   0.395
    1UNK    H0P   25  -0.322   0.209   0.285
    1UNK    H0Q   26  -0.227   0.316   0.388
    1UNK    H0R   27   0.013   0.373  -0.007
    1UNK    H0S   28  -0.137   0.431  -0.074
    1UNK    H0T   29  -0.045   0.219  -0.177
    1UNK    H0U   30  -0.206   0.307  -0.331
    1UNK    H0V   31  -0.298   0.400  -0.211
    1UNK    H0W   32  -0.379   0.279  -0.310
    1UNK    H0X   33  -0.185   0.050  -0.303
    1UNK    H0Y   34  -0.360   0.043  -0.275
    1UNK    H0Z   35  -0.250  -0.029  -0.158
    1UNK    H10   36  -0.377   0.291   0.003
    1UNK    H11   37  -0.365   0.115   0.024
    1UNK    H12   38  -0.468   0.182  -0.100
   1.00000   1.00000   1.00000

