
;
; GENERATED BY LigParGen Server
; Jorgensen Lab @ Yale University 
;
[ atomtypes ]
  opls_818  H818     1.0080     0.000    A    2.50000E-01   1.25520E-01
  opls_804  C804    12.0110     0.000    A    3.45000E-01   3.47272E-01
  opls_824  H824     1.0080     0.000    A    2.50000E-01   1.25520E-01
  opls_811  S811    32.0600     0.000    A    3.55000E-01   1.04600E+00
  opls_836  H836     1.0080     0.000    A    2.50000E-01   1.25520E-01
  opls_834  H834     1.0080     0.000    A    2.50000E-01   1.25520E-01
  opls_828  H828     1.0080     0.000    A    2.50000E-01   1.25520E-01
  opls_802  C802    12.0110     0.000    A    3.50000E-01   2.76144E-01
  opls_827  H827     1.0080     0.000    A    2.50000E-01   1.25520E-01
  opls_801  C801    12.0110     0.000    A    3.50000E-01   2.76144E-01
  opls_838  H838     1.0080     0.000    A    2.50000E-01   1.25520E-01
  opls_822  H822     1.0080     0.000    A    2.50000E-01   1.25520E-01
  opls_803  C803    12.0110     0.000    A    3.50000E-01   2.76144E-01
  opls_825  H825     1.0080     0.000    A    2.50000E-01   1.25520E-01
  opls_826  H826     1.0080     0.000    A    2.50000E-01   1.25520E-01
  opls_830  H830     1.0080     0.000    A    2.50000E-01   1.25520E-01
  opls_810  C810    12.0110     0.000    A    3.50000E-01   2.76144E-01
  opls_812  O812    15.9990     0.000    A    2.96000E-01   7.11280E-01
  opls_820  H820     1.0080     0.000    A    2.50000E-01   1.25520E-01
  opls_837  H837     1.0080     0.000    A    2.50000E-01   1.25520E-01
  opls_821  H821     1.0080     0.000    A    2.50000E-01   1.25520E-01
  opls_805  C805    12.0110     0.000    A    3.45000E-01   3.47272E-01
  opls_831  H831     1.0080     0.000    A    2.50000E-01   1.25520E-01
  opls_832  H832     1.0080     0.000    A    2.50000E-01   1.25520E-01
  opls_800  C800    12.0110     0.000    A    3.50000E-01   2.76144E-01
  opls_814  C814    12.0110     0.000    A    3.45000E-01   3.47272E-01
  opls_806  C806    12.0110     0.000    A    3.50000E-01   2.76144E-01
  opls_823  H823     1.0080     0.000    A    2.50000E-01   1.25520E-01
  opls_815  C815    12.0110     0.000    A    3.45000E-01   3.47272E-01
  opls_835  H835     1.0080     0.000    A    2.50000E-01   1.25520E-01
  opls_813  O813    15.9990     0.000    A    2.96000E-01   7.11280E-01
  opls_819  H819     1.0080     0.000    A    2.50000E-01   1.25520E-01
  opls_816  C816    12.0110     0.000    A    3.50000E-01   2.76144E-01
  opls_833  H833     1.0080     0.000    A    2.50000E-01   1.25520E-01
  opls_839  H839     1.0080     0.000    A    2.50000E-01   1.25520E-01
  opls_809  C809    12.0110     0.000    A    3.50000E-01   2.76144E-01
  opls_808  C808    12.0110     0.000    A    3.50000E-01   2.76144E-01
  opls_817  H817     1.0080     0.000    A    2.50000E-01   1.25520E-01
  opls_829  H829     1.0080     0.000    A    2.50000E-01   1.25520E-01
  opls_840  H840     1.0080     0.000    A    2.50000E-01   1.25520E-01
  opls_807  C807    12.0110     0.000    A    3.50000E-01   2.76144E-01
[ moleculetype ]
; Name               nrexcl
UNK                   3
[ atoms ]
;   nr       type  resnr residue  atom   cgnr     charge       mass  
     1   opls_800      1    UNK   C00      1    -0.2373    12.0110 
     2   opls_801      1    UNK   C01      1    -0.1207    12.0110 
     3   opls_802      1    UNK   C02      1    -0.2348    12.0110 
     4   opls_803      1    UNK   C03      1    -0.1506    12.0110 
     5   opls_804      1    UNK   C04      1    -0.0561    12.0110 
     6   opls_805      1    UNK   C05      1    -0.1167    12.0110 
     7   opls_806      1    UNK   C06      1    -0.1645    12.0110 
     8   opls_807      1    UNK   C07      1     -0.175    12.0110 
     9   opls_808      1    UNK   C08      1    -0.1718    12.0110 
    10   opls_809      1    UNK   C09      1     -0.062    12.0110 
    11   opls_810      1    UNK   C0A      1    -0.5113    12.0110 
    12   opls_811      1    UNK   S0B      1     1.3163    32.0600 
    13   opls_812      1    UNK   O0C      1    -0.5663    15.9990 
    14   opls_813      1    UNK   O0D      1    -0.5663    15.9990 
    15   opls_814      1    UNK   C0E      1    -0.4682    12.0110 
    16   opls_815      1    UNK   C0F      1     -0.029    12.0110 
    17   opls_816      1    UNK   C0G      1    -0.2239    12.0110 
    18   opls_817      1    UNK   H0H      1     0.0802     1.0080 
    19   opls_818      1    UNK   H0I      1     0.0802     1.0080 
    20   opls_819      1    UNK   H0J      1     0.0802     1.0080 
    21   opls_820      1    UNK   H0K      1     0.1166     1.0080 
    22   opls_821      1    UNK   H0M      1     0.0822     1.0080 
    23   opls_822      1    UNK   H0N      1     0.0822     1.0080 
    24   opls_823      1    UNK   H0O      1     0.0822     1.0080 
    25   opls_824      1    UNK   H0P      1     0.1046     1.0080 
    26   opls_825      1    UNK   H0Q      1     0.1046     1.0080 
    27   opls_826      1    UNK   H0R      1     0.1031     1.0080 
    28   opls_827      1    UNK   H0S      1     0.1061     1.0080 
    29   opls_828      1    UNK   H0T      1     0.0989     1.0080 
    30   opls_829      1    UNK   H0U      1     0.0989     1.0080 
    31   opls_830      1    UNK   H0V      1     0.0968     1.0080 
    32   opls_831      1    UNK   H0W      1     0.0968     1.0080 
    33   opls_832      1    UNK   H0X      2     0.0967     1.0080 
    34   opls_833      1    UNK   H0Y      2     0.0967     1.0080 
    35   opls_834      1    UNK   H0Z      2     0.1186     1.0080 
    36   opls_835      1    UNK   H10      2      0.175     1.0080 
    37   opls_836      1    UNK   H11      2      0.175     1.0080 
    38   opls_837      1    UNK   H12      2      0.185     1.0080 
    39   opls_838      1    UNK   H13      2     0.0924     1.0080 
    40   opls_839      1    UNK   H14      2     0.0924     1.0080 
    41   opls_840      1    UNK   H15      2     0.0924     1.0080 
[ bonds ]
    2     1     1      0.1529 224262.400
    3     2     1      0.1529 224262.400
    4     2     1      0.1529 224262.400
    5     4     1      0.1510 234304.000
    6     5     1      0.1520 217568.000
    7     6     1      0.1510 234304.000
    8     7     1      0.1529 224262.400
    9     8     1      0.1529 224262.400
   10     9     1      0.1529 224262.400
   11    10     1      0.1529 224262.400
   12    11     1      0.1770 284512.000
   13    12     1      0.1440 585760.000
   14    12     1      0.1440 585760.000
   15     5     1      0.1520 217568.000
   16     6     1      0.1520 217568.000
   17    16     1      0.1510 234304.000
   18     1     1      0.1090 284512.000
   19     1     1      0.1090 284512.000
   20     1     1      0.1090 284512.000
   21     2     1      0.1090 284512.000
   22     3     1      0.1090 284512.000
   23     3     1      0.1090 284512.000
   24     3     1      0.1090 284512.000
   25     4     1      0.1090 284512.000
   26     4     1      0.1090 284512.000
   27     5     1      0.1088 284512.000
   28     6     1      0.1088 284512.000
   29     7     1      0.1090 284512.000
   30     7     1      0.1090 284512.000
   31     8     1      0.1090 284512.000
   32     8     1      0.1090 284512.000
   33     9     1      0.1090 284512.000
   34     9     1      0.1090 284512.000
   35    10     1      0.1090 284512.000
   36    11     1      0.1090 284512.000
   37    11     1      0.1090 284512.000
   38    15     1      0.1088 284512.000
   39    17     1      0.1090 284512.000
   40    17     1      0.1090 284512.000
   41    17     1      0.1090 284512.000
   16    10     1      0.1510 234304.000
   15    12     1      0.1770 284512.000
   16    15     1      0.1520 217568.000

[ angles ]
;  ai    aj    ak funct            c0            c1            c2            c3 
    1     2     3     1    112.700    488.273
    1     2     4     1    112.700    488.273
    2     4     5     1    112.700    488.273
    4     5     6     1    117.200    313.800
    5     6     7     1    117.200    313.800
    6     7     8     1    112.700    488.273
    7     8     9     1    112.700    488.273
    8     9    10     1    112.700    488.273
    9    10    11     1    112.700    488.273
   10    11    12     1    108.600    418.400
   11    12    13     1    108.900    619.232
   11    12    14     1    108.900    619.232
    4     5    15     1    117.200    313.800
    5     6    16     1     83.000    251.040
    6    16    17     1    117.200    313.800
    2     1    18     1    110.700    313.800
    2     1    19     1    110.700    313.800
    2     1    20     1    110.700    313.800
    1     2    21     1    110.700    313.800
    2     3    22     1    110.700    313.800
    2     3    23     1    110.700    313.800
    2     3    24     1    110.700    313.800
    2     4    25     1    110.700    313.800
    2     4    26     1    110.700    313.800
    4     5    27     1    114.300    292.880
    5     6    28     1    117.200    313.800
    6     7    29     1    110.700    313.800
    6     7    30     1    110.700    313.800
    7     8    31     1    110.700    313.800
    7     8    32     1    110.700    313.800
    8     9    33     1    110.700    313.800
    8     9    34     1    110.700    313.800
    9    10    35     1    110.700    313.800
   10    11    36     1    110.700    313.800
   10    11    37     1    110.700    313.800
    5    15    38     1    117.200    313.800
   16    17    39     1    110.700    313.800
   16    17    40     1    110.700    313.800
   16    17    41     1    110.700    313.800
   13    12    14     1    119.000    870.272
   12    11    37     1    109.500    292.880
   31     8    32     1    107.800    276.144
   16    10    35     1    110.700    313.800
    9     8    31     1    110.700    313.800
   25     4    26     1    107.800    276.144
   16     6    28     1    117.200    313.800
   10     9    33     1    110.700    313.800
   10    16    17     1    114.300    292.880
    4     2    21     1    110.700    313.800
    5    15    16     1     83.000    251.040
   16    15    38     1    117.200    313.800
   29     7    30     1    107.800    276.144
    8     7    30     1    110.700    313.800
    9    10    16     1    112.700    488.273
    5     4    26     1    110.700    313.800
   13    12    15     1    108.900    619.232
   11    12    15     1    102.000    518.816
   39    17    40     1    107.800    276.144
    5    15    12     1    128.000    460.240
    6    16    10     1    117.200    313.800
   18     1    19     1    107.800    276.144
   22     3    24     1    107.800    276.144
   11    10    35     1    110.700    313.800
   10    16    15     1    117.200    313.800
   36    11    37     1    107.800    276.144
    5     4    25     1    110.700    313.800
    7     6    16     1    117.200    313.800
   15    16    17     1    117.200    313.800
   12    15    38     1    108.000    313.800
   11    10    16     1    112.700    488.273
   22     3    23     1    107.800    276.144
    6    16    15     1     83.000    251.040
    7     6    28     1    114.300    292.880
   12    11    36     1    109.500    292.880
   14    12    15     1    108.900    619.232
    6     5    27     1    117.200    313.800
    8     7    29     1    110.700    313.800
   39    17    41     1    107.800    276.144
   23     3    24     1    107.800    276.144
   40    17    41     1    107.800    276.144
   18     1    20     1    107.800    276.144
   12    15    16     1    128.000    460.240
    9     8    32     1    110.700    313.800
    3     2    21     1    110.700    313.800
   33     9    34     1    107.800    276.144
   10     9    34     1    110.700    313.800
    6     5    15     1     83.000    251.040
    3     2     4     1    112.700    488.273
   19     1    20     1    107.800    276.144
   15     5    27     1    117.200    313.800

[ dihedrals ]
; IMPROPER DIHEDRAL ANGLES 
;  ai    aj    ak    al funct            c0            c1            c2            c3            c4            c5

[ dihedrals ]
; PROPER DIHEDRAL ANGLES
;  ai    aj    ak    al funct            c0            c1            c2            c3            c4            c5
   11   10    9    8        3       2.301  -1.464   0.837  -1.674  -0.000   0.000
   10    9    8    7        3       2.301  -1.464   0.837  -1.674  -0.000   0.000
    9    8    7    6        3       2.301  -1.464   0.837  -1.674  -0.000   0.000
   11   10   16    6        3       0.000   0.000   0.000  -0.000  -0.000   0.000
    9   10   16    6        3       0.000   0.000   0.000  -0.000  -0.000   0.000
    8    7    6    5        3       0.000   0.000   0.000  -0.000  -0.000   0.000
   17   16   10   11        3       2.301  -1.464   0.837  -1.674  -0.000   0.000
   17   16   10    9        3       2.301  -1.464   0.837  -1.674  -0.000   0.000
    7    6    5    4        3       0.000   0.000   0.000  -0.000  -0.000   0.000
   10   16    6    7        3       0.000   0.000   0.000  -0.000  -0.000   0.000
   17   16    6    7        3       0.000   0.000   0.000  -0.000  -0.000   0.000
   17   16   15    5        3       0.000   0.000   0.000  -0.000  -0.000   0.000
   10   16   15    5        3       0.000   0.000   0.000  -0.000  -0.000   0.000
   17   16    6    5        3       0.000   0.000   0.000  -0.000  -0.000   0.000
   10   16    6    5        3       0.000   0.000   0.000  -0.000  -0.000   0.000
   17   16   15   12        3       0.000   0.000   0.000  -0.000  -0.000   0.000
   11   12   15    5        3       0.000   0.000   0.000  -0.000  -0.000   0.000
   16   10    9    8        3       2.301  -1.464   0.837  -1.674  -0.000   0.000
    5    4    2    3        3       2.301  -1.464   0.837  -1.674  -0.000   0.000
    5    4    2    1        3       2.301  -1.464   0.837  -1.674  -0.000   0.000
   16   10   11   12        3       2.784   0.278   0.828  -3.891  -0.000   0.000
   15   16   10   11        3       0.000   0.000   0.000  -0.000  -0.000   0.000
   16    6    7    8        3       0.000   0.000   0.000  -0.000  -0.000   0.000
   15   16   10    9        3       0.000   0.000   0.000  -0.000  -0.000   0.000
    6    5    4    2        3       0.000   0.000   0.000  -0.000  -0.000   0.000
   15    5    4    2        3       0.000   0.000   0.000  -0.000  -0.000   0.000
   16   15    5    4        3       0.000   0.000   0.000  -0.000  -0.000   0.000
   15    5    6    7        3       0.000   0.000   0.000  -0.000  -0.000   0.000
   15   16    6    7        3       0.000   0.000   0.000  -0.000  -0.000   0.000
   16    6    5    4        3       0.000   0.000   0.000  -0.000  -0.000   0.000
   16   15   12   11        3       0.000   0.000   0.000  -0.000  -0.000   0.000
   16   15   12   13        3       0.000   0.000   0.000  -0.000  -0.000   0.000
   16   15   12   14        3       0.000   0.000   0.000  -0.000  -0.000   0.000
   15   12   11   10        3       0.000   0.000   0.000  -0.000  -0.000   0.000
   34    9   10   11        3       0.628   1.883   0.000  -2.510  -0.000   0.000
   25    4    2    3        3       0.628   1.883   0.000  -2.510  -0.000   0.000
   36   11   10    9        3       0.628   1.883   0.000  -2.510  -0.000   0.000
   32    8    9   10        3       0.628   1.883   0.000  -2.510  -0.000   0.000
   26    4    2    3        3       0.628   1.883   0.000  -2.510  -0.000   0.000
   34    9    8    7        3       0.628   1.883   0.000  -2.510  -0.000   0.000
   30    7    8    9        3       0.628   1.883   0.000  -2.510  -0.000   0.000
   29    7    8    9        3       0.628   1.883   0.000  -2.510  -0.000   0.000
   24    3    2    4        3       0.628   1.883   0.000  -2.510  -0.000   0.000
   31    8    9   10        3       0.628   1.883   0.000  -2.510  -0.000   0.000
   19    1    2    3        3       0.628   1.883   0.000  -2.510  -0.000   0.000
   33    9   10   11        3       0.628   1.883   0.000  -2.510  -0.000   0.000
   25    4    2    1        3       0.628   1.883   0.000  -2.510  -0.000   0.000
   23    3    2    1        3       0.628   1.883   0.000  -2.510  -0.000   0.000
   24    3    2    1        3       0.628   1.883   0.000  -2.510  -0.000   0.000
   20    1    2    3        3       0.628   1.883   0.000  -2.510  -0.000   0.000
   19    1    2    4        3       0.628   1.883   0.000  -2.510  -0.000   0.000
   22    3    2    4        3       0.628   1.883   0.000  -2.510  -0.000   0.000
   20    1    2    4        3       0.628   1.883   0.000  -2.510  -0.000   0.000
   23    3    2    4        3       0.628   1.883   0.000  -2.510  -0.000   0.000
   26    4    2    1        3       0.628   1.883   0.000  -2.510  -0.000   0.000
   22    3    2    1        3       0.628   1.883   0.000  -2.510  -0.000   0.000
   33    9    8    7        3       0.628   1.883   0.000  -2.510  -0.000   0.000
   18    1    2    4        3       0.628   1.883   0.000  -2.510  -0.000   0.000
   35   10    9    8        3       0.628   1.883   0.000  -2.510  -0.000   0.000
   37   11   10    9        3       0.628   1.883   0.000  -2.510  -0.000   0.000
   18    1    2    3        3       0.628   1.883   0.000  -2.510  -0.000   0.000
   31    8    7    6        3       0.628   1.883   0.000  -2.510  -0.000   0.000
   34    9   10   16        3       0.628   1.883   0.000  -2.510  -0.000   0.000
   36   11   10   16        3       0.628   1.883   0.000  -2.510  -0.000   0.000
   33    9   10   16        3       0.628   1.883   0.000  -2.510  -0.000   0.000
   37   11   10   16        3       0.628   1.883   0.000  -2.510  -0.000   0.000
   32    8    7    6        3       0.628   1.883   0.000  -2.510  -0.000   0.000
   21    2    4    5        3       0.628   1.883   0.000  -2.510  -0.000   0.000
   31    8    7   30        3       0.628   1.883   0.000  -2.510  -0.000   0.000
   32    8    7   29        3       0.628   1.883   0.000  -2.510  -0.000   0.000
   23    3    2   21        3       0.628   1.883   0.000  -2.510  -0.000   0.000
   25    4    2   21        3       0.628   1.883   0.000  -2.510  -0.000   0.000
   26    4    2   21        3       0.628   1.883   0.000  -2.510  -0.000   0.000
   35   10    9   34        3       0.628   1.883   0.000  -2.510  -0.000   0.000
   36   11   10   35        3       0.628   1.883   0.000  -2.510  -0.000   0.000
   34    9    8   31        3       0.628   1.883   0.000  -2.510  -0.000   0.000
   31    8    7   29        3       0.628   1.883   0.000  -2.510  -0.000   0.000
   37   11   10   35        3       0.628   1.883   0.000  -2.510  -0.000   0.000
   21    2    1   20        3       0.628   1.883   0.000  -2.510  -0.000   0.000
   33    9    8   32        3       0.628   1.883   0.000  -2.510  -0.000   0.000
   32    8    7   30        3       0.628   1.883   0.000  -2.510  -0.000   0.000
   21    2    1   18        3       0.628   1.883   0.000  -2.510  -0.000   0.000
   21    2    1   19        3       0.628   1.883   0.000  -2.510  -0.000   0.000
   34    9    8   32        3       0.628   1.883   0.000  -2.510  -0.000   0.000
   22    3    2   21        3       0.628   1.883   0.000  -2.510  -0.000   0.000
   24    3    2   21        3       0.628   1.883   0.000  -2.510  -0.000   0.000
   35   10    9   33        3       0.628   1.883   0.000  -2.510  -0.000   0.000
   33    9    8   31        3       0.628   1.883   0.000  -2.510  -0.000   0.000
   35   10   11   12        3       0.946   2.837   0.000  -3.782  -0.000   0.000
   39   17   16   10        3       0.628   1.883   0.000  -2.510  -0.000   0.000
   35   10   16   17        3       0.628   1.883   0.000  -2.510  -0.000   0.000
   40   17   16   10        3       0.628   1.883   0.000  -2.510  -0.000   0.000
   41   17   16   10        3       0.628   1.883   0.000  -2.510  -0.000   0.000
   25    4    5    6        3       0.628   1.883   0.000  -2.510  -0.000   0.000
   40   17   16   15        3       0.628   1.883   0.000  -2.510  -0.000   0.000
   35   10   16    6        3       0.628   1.883   0.000  -2.510  -0.000   0.000
   39   17   16    6        3       0.628   1.883   0.000  -2.510  -0.000   0.000
   41   17   16    6        3       0.628   1.883   0.000  -2.510  -0.000   0.000
   40   17   16    6        3       0.628   1.883   0.000  -2.510  -0.000   0.000
   29    7    6    5        3       0.628   1.883   0.000  -2.510  -0.000   0.000
   41   17   16   15        3       0.628   1.883   0.000  -2.510  -0.000   0.000
   30    7    6    5        3       0.628   1.883   0.000  -2.510  -0.000   0.000
   25    4    5   15        3       0.628   1.883   0.000  -2.510  -0.000   0.000
   35   10   16   15        3       0.628   1.883   0.000  -2.510  -0.000   0.000
   39   17   16   15        3       0.628   1.883   0.000  -2.510  -0.000   0.000
   30    7    6   16        3       0.628   1.883   0.000  -2.510  -0.000   0.000
   26    4    5   15        3       0.628   1.883   0.000  -2.510  -0.000   0.000
   29    7    6   16        3       0.628   1.883   0.000  -2.510  -0.000   0.000
   26    4    5    6        3       0.628   1.883   0.000  -2.510  -0.000   0.000
   30    7    6   28        3       0.628   1.883   0.000  -2.510  -0.000   0.000
   29    7    6   28        3       0.628   1.883   0.000  -2.510  -0.000   0.000
   37   11   12   15        3       0.732   2.197   0.000  -2.929  -0.000   0.000
   36   11   12   15        3       0.732   2.197   0.000  -2.929  -0.000   0.000
   37   11   12   13        3       0.732   2.197   0.000  -2.929  -0.000   0.000
   36   11   12   14        3       0.732   2.197   0.000  -2.929  -0.000   0.000
   36   11   12   13        3       0.732   2.197   0.000  -2.929  -0.000   0.000
   37   11   12   14        3       0.732   2.197   0.000  -2.929  -0.000   0.000
   28    6    7    8        3       0.628   1.883   0.000  -2.510  -0.000   0.000
   27    5    4    2        3       0.628   1.883   0.000  -2.510  -0.000   0.000
   27    5    4   25        3       0.628   1.883   0.000  -2.510  -0.000   0.000
   27    5    4   26        3       0.628   1.883   0.000  -2.510  -0.000   0.000
   28    6    5    4        3       0.000   0.000   0.000  -0.000  -0.000   0.000
   38   15   16   17        3       0.000   0.000   0.000  -0.000  -0.000   0.000
   38   15    5    4        3       0.000   0.000   0.000  -0.000  -0.000   0.000
   38   15   16   10        3       0.000   0.000   0.000  -0.000  -0.000   0.000
   28    6   16   17        3       0.000   0.000   0.000  -0.000  -0.000   0.000
   28    6   16   10        3       0.000   0.000   0.000  -0.000  -0.000   0.000
   27    5    6    7        3       0.000   0.000   0.000  -0.000  -0.000   0.000
   38   15   16    6        3       0.000   0.000   0.000  -0.000  -0.000   0.000
   28    6   16   15        3       0.000   0.000   0.000  -0.000  -0.000   0.000
   28    6    5   15        3       0.000   0.000   0.000  -0.000  -0.000   0.000
   27    5    6   16        3       0.000   0.000   0.000  -0.000  -0.000   0.000
   27    5   15   16        3       0.000   0.000   0.000  -0.000  -0.000   0.000
   38   15    5    6        3       0.000   0.000   0.000  -0.000  -0.000   0.000
   38   15    5   27        3       0.000   0.000   0.000  -0.000  -0.000   0.000
   28    6    5   27        3       0.000   0.000   0.000  -0.000  -0.000   0.000
   27    5   15   12        3       0.000   0.000   0.000  -0.000  -0.000   0.000
   38   15   12   11        3       0.732   2.197   0.000  -2.929  -0.000   0.000
   38   15   12   13        3       0.732   2.197   0.000  -2.929  -0.000   0.000
   38   15   12   14        3       0.732   2.197   0.000  -2.929  -0.000   0.000
   13   12   11   10        3       0.000   0.000   0.000  -0.000  -0.000   0.000
   14   12   11   10        3       0.000   0.000   0.000  -0.000  -0.000   0.000
   13   12   15    5        3       0.000   0.000   0.000  -0.000  -0.000   0.000
   14   12   15    5        3       0.000   0.000   0.000  -0.000  -0.000   0.000
   12   11   10    9        3       2.784   0.278   0.828  -3.891  -0.000   0.000
   12   15    5    4        3       0.000   0.000   0.000  -0.000  -0.000   0.000
   12   15   16   10        3       0.000   0.000   0.000  -0.000  -0.000   0.000
   12   15   16    6        3       0.000   0.000   0.000  -0.000  -0.000   0.000
   12   15    5    6        3       0.000   0.000   0.000  -0.000  -0.000   0.000

[ pairs ]
     1     5    1
     3     5    1
     2     6    1
     4     7    1
     5     8    1
     6     9    1
     5    10    1
     5    11    1
     4    12    1
     7    10    1
     6    11    1
     2    15    1
     6    12    1
     5    13    1
     8    11    1
     5    14    1
     4    16    1
     9    12    1
     3    18    1
     7    15    1
     5    17    1
     4    18    1
     3    19    1
    10    13    1
     4    19    1
     3    20    1
     1    22    1
    10    14    1
     9    15    1
     8    16    1
     7    17    1
     4    20    1
     1    23    1
     1    24    1
     9    17    1
     5    21    1
     4    22    1
     1    25    1
     4    23    1
     1    26    1
    11    17    1
     4    24    1
     3    25    1
    13    16    1
    12    17    1
     3    26    1
     2    27    1
    14    16    1
     6    25    1
     6    26    1
     4    28    1
     7    27    1
     5    29    1
     5    30    1
     8    28    1
     6    31    1
    10    28    1
     9    29    1
     6    32    1
    18    21    1
    12    27    1
     9    30    1
    19    21    1
    15    25    1
     7    33    1
    20    21    1
    15    26    1
    10    31    1
     7    34    1
     6    35    1
    10    32    1
     4    38    1
    21    22    1
    16    27    1
    15    28    1
     8    35    1
    21    23    1
    11    33    1
     6    38    1
    21    24    1
    17    28    1
    16    29    1
    11    34    1
     9    36    1
     6    39    1
    21    25    1
    16    30    1
     9    37    1
     6    40    1
    21    26    1
    12    35    1
     6    41    1
    10    38    1
    16    33    1
    13    36    1
    11    38    1
    10    39    1
    16    34    1
    15    35    1
    14    36    1
    13    37    1
    10    40    1
    15    36    1
    14    37    1
    13    38    1
    10    41    1
    25    27    1
    17    35    1
    16    36    1
    15    37    1
    14    38    1
    26    27    1
    16    37    1
    15    39    1
    27    28    1
    17    38    1
    15    40    1
    15    41    1
    28    29    1
    28    30    1
    29    31    1
    30    31    1
    29    32    1
    30    32    1
    31    33    1
    32    33    1
    31    34    1
    27    38    1
    32    34    1
    33    35    1
    34    35    1
    35    36    1
    35    37    1

