LIGPARGEN GENERATED GRO FILE
   41
    1UNK    C00    1   0.100   0.100   0.000
    1UNK    C01    2  -0.053   0.100   0.000
    1UNK    C02    3  -0.103   0.100   0.145
    1UNK    C03    4  -0.116   0.219  -0.075
    1UNK    C04    5  -0.055   0.248  -0.212
    1UNK    C05    6  -0.108   0.373  -0.289
    1UNK    C06    7  -0.238   0.443  -0.252
    1UNK    C07    8  -0.315   0.478  -0.379
    1UNK    C08    9  -0.355   0.347  -0.445
    1UNK    C09   10  -0.235   0.267  -0.497
    1UNK    C0A   11  -0.268   0.117  -0.498
    1UNK    S0B   12  -0.165   0.033  -0.379
    1UNK    O0C   13  -0.247  -0.001  -0.265
    1UNK    O0D   14  -0.092  -0.069  -0.452
    1UNK    C0E   15  -0.056   0.167  -0.343
    1UNK    C0F   16  -0.102   0.292  -0.422
    1UNK    C0G   17   0.010   0.341  -0.513
    1UNK    H0H   18   0.139   0.020   0.064
    1UNK    H0I   19   0.140   0.195   0.037
    1UNK    H0J   20   0.139   0.083  -0.101
    1UNK    H0K   21  -0.086   0.007  -0.047
    1UNK    H0M   22  -0.080   0.195   0.195
    1UNK    H0N   23  -0.055   0.021   0.204
    1UNK    H0O   24  -0.211   0.084   0.150
    1UNK    H0P   25  -0.101   0.309  -0.013
    1UNK    H0Q   26  -0.224   0.204  -0.082
    1UNK    H0R   27   0.051   0.270  -0.189
    1UNK    H0S   28  -0.031   0.453  -0.287
    1UNK    H0T   29  -0.217   0.535  -0.196
    1UNK    H0U   30  -0.301   0.381  -0.188
    1UNK    H0V   31  -0.254   0.539  -0.447
    1UNK    H0W   32  -0.405   0.535  -0.353
    1UNK    H0X   33  -0.424   0.367  -0.528
    1UNK    H0Y   34  -0.412   0.288  -0.372
    1UNK    H0Z   35  -0.222   0.298  -0.602
    1UNK    H10   36  -0.248   0.074  -0.597
    1UNK    H11   37  -0.372   0.096  -0.473
    1UNK    H12   38   0.046   0.134  -0.367
    1UNK    H13   39   0.038   0.264  -0.586
    1UNK    H14   40   0.100   0.365  -0.456
    1UNK    H15   41  -0.020   0.432  -0.567
   1.00000   1.00000   1.00000

