LIGPARGEN GENERATED GRO FILE
   48
    1UNK    C00    1   0.100   0.100   0.000
    1UNK    C01    2  -0.053   0.100   0.000
    1UNK    C02    3  -0.104   0.100   0.144
    1UNK    C03    4  -0.105   0.219  -0.083
    1UNK    C04    5  -0.259   0.225  -0.087
    1UNK    C05    6  -0.320   0.342  -0.169
    1UNK    C06    7  -0.278   0.331  -0.317
    1UNK    C07    8  -0.476   0.353  -0.147
    1UNK    C08    9  -0.535   0.470  -0.230
    1UNK    C09   10  -0.548   0.224  -0.194
    1UNK    C0A   11  -0.514   0.376   0.003
    1UNK    C0B   12  -0.450   0.499   0.068
    1UNK    C0C   13  -0.485   0.514   0.216
    1UNK    O0D   14  -0.557   0.432   0.273
    1UNK    N0E   15  -0.430   0.624   0.281
    1UNK    C0F   16  -0.348   0.727   0.218
    1UNK    C0G   17  -0.454   0.641   0.423
    1UNK    H0H   18   0.139   0.014   0.055
    1UNK    H0I   19   0.140   0.191   0.047
    1UNK    H0J   20   0.139   0.095  -0.102
    1UNK    H0K   21  -0.086   0.007  -0.048
    1UNK    H0M   22  -0.083   0.195   0.194
    1UNK    H0N   23  -0.057   0.020   0.202
    1UNK    H0O   24  -0.212   0.083   0.148
    1UNK    H0P   25  -0.066   0.209  -0.185
    1UNK    H0Q   26  -0.067   0.313  -0.042
    1UNK    H0R   27  -0.293   0.233   0.016
    1UNK    H0S   28  -0.295   0.129  -0.126
    1UNK    H0T   29  -0.274   0.435  -0.133
    1UNK    H0U   30  -0.313   0.237  -0.362
    1UNK    H0V   31  -0.170   0.335  -0.327
    1UNK    H0W   32  -0.317   0.414  -0.376
    1UNK    H0X   33  -0.526   0.453  -0.337
    1UNK    H0Y   34  -0.485   0.565  -0.207
    1UNK    H0Z   35  -0.642   0.482  -0.209
    1UNK    H10   36  -0.531   0.205  -0.301
    1UNK    H11   37  -0.657   0.233  -0.180
    1UNK    H12   38  -0.516   0.136  -0.138
    1UNK    H13   39  -0.489   0.286   0.062
    1UNK    H14   40  -0.623   0.385   0.012
    1UNK    H15   41  -0.486   0.589   0.017
    1UNK    H16   42  -0.341   0.493   0.061
    1UNK    H17   43  -0.332   0.711   0.111
    1UNK    H18   44  -0.250   0.729   0.267
    1UNK    H19   45  -0.398   0.824   0.231
    1UNK    H1A   46  -0.512   0.559   0.466
    1UNK    H1B   47  -0.509   0.735   0.438
    1UNK    H1C   48  -0.357   0.646   0.475
   1.00000   1.00000   1.00000

