
;
; GENERATED BY LigParGen Server
; Jorgensen Lab @ Yale University 
;
[ atomtypes ]
  opls_807  O807    15.9990     0.000    A    2.96000E-01   8.78640E-01
  opls_818  H818     1.0080     0.000    A    2.50000E-01   1.25520E-01
  opls_824  H824     1.0080     0.000    A    2.50000E-01   1.25520E-01
  opls_802  C802    12.0110     0.000    A    3.45000E-01   3.47272E-01
  opls_805  C805    12.0110     0.000    A    3.50000E-01   2.76144E-01
  opls_810  C810    12.0110     0.000    A    3.50000E-01   2.76144E-01
  opls_828  H828     1.0080     0.000    A    2.50000E-01   1.25520E-01
  opls_812  O812    15.9990     0.000    A    2.90000E-01   5.85760E-01
  opls_803  C803    12.0110     0.000    A    3.45000E-01   3.47272E-01
  opls_815  H815     1.0080     0.000    A    2.50000E-01   1.25520E-01
  opls_809  C809    12.0110     0.000    A    3.50000E-01   2.76144E-01
  opls_830  H830     1.0080     0.000    A    2.50000E-01   1.25520E-01
  opls_822  H822     1.0080     0.000    A    2.50000E-01   1.25520E-01
  opls_825  H825     1.0080     0.000    A    2.50000E-01   1.25520E-01
  opls_826  H826     1.0080     0.000    A    2.50000E-01   1.25520E-01
  opls_814  H814     1.0080     0.000    A    2.50000E-01   1.25520E-01
  opls_821  H821     1.0080     0.000    A    2.50000E-01   1.25520E-01
  opls_820  H820     1.0080     0.000    A    2.50000E-01   1.25520E-01
  opls_829  H829     1.0080     0.000    A    2.50000E-01   1.25520E-01
  opls_831  H831     1.0080     0.000    A    2.50000E-01   1.25520E-01
  opls_832  H832     1.0080     0.000    A    2.50000E-01   1.25520E-01
  opls_816  H816     1.0080     0.000    A    2.50000E-01   1.25520E-01
  opls_800  C800    12.0110     0.000    A    3.50000E-01   2.76144E-01
  opls_823  H823     1.0080     0.000    A    2.50000E-01   1.25520E-01
  opls_806  C806    12.0110     0.000    A    3.55000E-01   2.92880E-01
  opls_833  H833     1.0080     0.000    A    2.50000E-01   1.25520E-01
  opls_813  C813    12.0110     0.000    A    3.50000E-01   2.76144E-01
  opls_811  C811    12.0110     0.000    A    3.45000E-01   3.47272E-01
  opls_819  H819     1.0080     0.000    A    2.50000E-01   1.25520E-01
  opls_804  C804    12.0110     0.000    A    3.50000E-01   2.76144E-01
  opls_827  H827     1.0080     0.000    A    2.50000E-01   1.25520E-01
  opls_801  C801    12.0110     0.000    A    3.50000E-01   2.76144E-01
  opls_808  C808    12.0110     0.000    A    3.50000E-01   2.76144E-01
  opls_817  H817     1.0080     0.000    A    2.50000E-01   1.25520E-01
[ moleculetype ]
; Name               nrexcl
UNK                   3
[ atoms ]
;   nr       type  resnr residue  atom   cgnr     charge       mass  
     1   opls_800      1    UNK   C00      1    -0.2344    12.0110 
     2   opls_801      1    UNK   C01      1    -0.1492    12.0110 
     3   opls_802      1    UNK   C02      1    -0.1637    12.0110 
     4   opls_803      1    UNK   C03      1     -0.148    12.0110 
     5   opls_804      1    UNK   C04      1    -0.1299    12.0110 
     6   opls_805      1    UNK   C05      1    -0.2293    12.0110 
     7   opls_806      1    UNK   C06      1     0.3716    12.0110 
     8   opls_807      1    UNK   O07      1    -0.4418    15.9990 
     9   opls_808      1    UNK   C08      1    -0.2377    12.0110 
    10   opls_809      1    UNK   C09      1    -0.1637    12.0110 
    11   opls_810      1    UNK   C0A      1     -0.156    12.0110 
    12   opls_811      1    UNK   C0B      1     0.0403    12.0110 
    13   opls_812      1    UNK   O0C      1    -0.3543    15.9990 
    14   opls_813      1    UNK   C0D      1    -0.0494    12.0110 
    15   opls_814      1    UNK   H0E      1     0.0842     1.0080 
    16   opls_815      1    UNK   H0F      1     0.0842     1.0080 
    17   opls_816      1    UNK   H0G      1     0.0842     1.0080 
    18   opls_817      1    UNK   H0H      1     0.0969     1.0080 
    19   opls_818      1    UNK   H0I      1     0.0969     1.0080 
    20   opls_819      1    UNK   H0J      1      0.142     1.0080 
    21   opls_820      1    UNK   H0K      1     0.1574     1.0080 
    22   opls_821      1    UNK   H0M      1      0.117     1.0080 
    23   opls_822      1    UNK   H0N      1     0.0937     1.0080 
    24   opls_823      1    UNK   H0O      1     0.0937     1.0080 
    25   opls_824      1    UNK   H0P      1     0.0937     1.0080 
    26   opls_825      1    UNK   H0Q      1     0.1184     1.0080 
    27   opls_826      1    UNK   H0R      1     0.1184     1.0080 
    28   opls_827      1    UNK   H0S      1     0.1022     1.0080 
    29   opls_828      1    UNK   H0T      1     0.1022     1.0080 
    30   opls_829      1    UNK   H0U      1     0.1047     1.0080 
    31   opls_830      1    UNK   H0V      1     0.1047     1.0080 
    32   opls_831      1    UNK   H0W      1     0.0837     1.0080 
    33   opls_832      1    UNK   H0X      2     0.0837     1.0080 
    34   opls_833      1    UNK   H0Y      2     0.0837     1.0080 
[ bonds ]
    2     1     1      0.1529 224262.400
    3     2     1      0.1510 234304.000
    4     3     1      0.1520 217568.000
    5     4     1      0.1510 234304.000
    6     5     1      0.1529 224262.400
    7     5     1      0.1522 265265.600
    8     7     1      0.1229 476976.000
    9     7     1      0.1522 265265.600
   10     9     1      0.1529 224262.400
   11    10     1      0.1529 224262.400
   12     3     1      0.1520 217568.000
   13    12     1      0.1410 267776.000
   14    13     1      0.1410 267776.000
   15     1     1      0.1090 284512.000
   16     1     1      0.1090 284512.000
   17     1     1      0.1090 284512.000
   18     2     1      0.1090 284512.000
   19     2     1      0.1090 284512.000
   20     3     1      0.1088 284512.000
   21     4     1      0.1088 284512.000
   22     5     1      0.1090 284512.000
   23     6     1      0.1090 284512.000
   24     6     1      0.1090 284512.000
   25     6     1      0.1090 284512.000
   26     9     1      0.1090 284512.000
   27     9     1      0.1090 284512.000
   28    10     1      0.1090 284512.000
   29    10     1      0.1090 284512.000
   30    11     1      0.1090 284512.000
   31    11     1      0.1090 284512.000
   32    14     1      0.1090 284512.000
   33    14     1      0.1090 284512.000
   34    14     1      0.1090 284512.000
   12     4     1      0.1520 217568.000
   12    11     1      0.1510 234304.000

[ angles ]
;  ai    aj    ak funct            c0            c1            c2            c3 
    1     2     3     1    112.700    488.273
    2     3     4     1    117.200    313.800
    3     4     5     1    117.200    313.800
    4     5     6     1    112.700    488.273
    4     5     7     1    111.100    527.184
    5     7     8     1    120.400    669.440
    5     7     9     1    116.000    585.760
    7     9    10     1    111.100    527.184
    9    10    11     1    112.700    488.273
    2     3    12     1    117.200    313.800
    3    12    13     1    109.500    418.400
   12    13    14     1    109.500    502.080
    2     1    15     1    110.700    313.800
    2     1    16     1    110.700    313.800
    2     1    17     1    110.700    313.800
    1     2    18     1    110.700    313.800
    1     2    19     1    110.700    313.800
    2     3    20     1    114.300    292.880
    3     4    21     1    117.200    313.800
    4     5    22     1    110.700    313.800
    5     6    23     1    110.700    313.800
    5     6    24     1    110.700    313.800
    5     6    25     1    110.700    313.800
    7     9    26     1    109.500    292.880
    7     9    27     1    109.500    292.880
    9    10    28     1    110.700    313.800
    9    10    29     1    110.700    313.800
   10    11    30     1    110.700    313.800
   10    11    31     1    110.700    313.800
   13    14    32     1    109.500    292.880
   13    14    33     1    109.500    292.880
   13    14    34     1    109.500    292.880
   18     2    19     1    107.800    276.144
   12    11    31     1    110.700    313.800
    5     4    12     1    117.200    313.800
    4    12    13     1    109.500    418.400
   11    12    13     1    109.500    418.400
    3     2    18     1    110.700    313.800
    6     5    22     1    110.700    313.800
   33    14    34     1    107.800    276.144
   11    10    29     1    110.700    313.800
   26     9    27     1    107.800    276.144
    8     7     9     1    120.400    669.440
   28    10    29     1    107.800    276.144
   12     4    21     1    117.200    313.800
   12    11    30     1    110.700    313.800
    3     4    12     1     83.000    251.040
   32    14    33     1    107.800    276.144
    3    12     4     1     83.000    251.040
    4    12    11     1    117.200    313.800
   12     3    20     1    117.200    313.800
    3     2    19     1    110.700    313.800
   15     1    16     1    107.800    276.144
   10    11    12     1    112.700    488.273
   11    10    28     1    110.700    313.800
   32    14    34     1    107.800    276.144
   15     1    17     1    107.800    276.144
   16     1    17     1    107.800    276.144
   10     9    26     1    110.700    313.800
    4     3    12     1     83.000    251.040
   23     6    24     1    107.800    276.144
   24     6    25     1    107.800    276.144
   23     6    25     1    107.800    276.144
    5     4    21     1    114.300    292.880
    4     3    20     1    117.200    313.800
    7     5    22     1    109.500    292.880
   10     9    27     1    110.700    313.800
    3    12    11     1    117.200    313.800
    6     5     7     1    111.100    527.184
   30    11    31     1    107.800    276.144

[ dihedrals ]
; IMPROPER DIHEDRAL ANGLES 
;  ai    aj    ak    al funct            c0            c1            c2            c3            c4            c5
     9     7     5     8    4        180.000     43.932     2  

[ dihedrals ]
; PROPER DIHEDRAL ANGLES
;  ai    aj    ak    al funct            c0            c1            c2            c3            c4            c5
    7    5    4    3        3      -4.960   6.286   1.310  -2.636  -0.000   0.000
    9    7    5    6        3       0.818  -7.906   0.602   6.485  -0.000   0.000
    9    7    5    4        3       0.818  -7.906   0.602   6.485  -0.000   0.000
   10    9    7    5        3       0.818  -7.906   0.602   6.485  -0.000   0.000
   10    9    7    8        3       0.000   0.000   0.000  -0.000  -0.000   0.000
   11   10    9    7        3      -4.960   6.286   1.310  -2.636  -0.000   0.000
   10   11   12    4        3       0.000   0.000   0.000  -0.000  -0.000   0.000
   10   11   12    3        3       0.000   0.000   0.000  -0.000  -0.000   0.000
    6    5    4    3        3       0.000   0.000   0.000  -0.000  -0.000   0.000
   11   12    3    2        3       0.000   0.000   0.000  -0.000  -0.000   0.000
    5    4    3    2        3       0.000   0.000   0.000  -0.000  -0.000   0.000
   11   12    4    5        3       0.000   0.000   0.000  -0.000  -0.000   0.000
   11   12    4    3        3       0.000   0.000   0.000  -0.000  -0.000   0.000
   11   12    3    4        3       0.000   0.000   0.000  -0.000  -0.000   0.000
    5    4   12    3        3       0.000   0.000   0.000  -0.000  -0.000   0.000
   14   13   12   11        3       1.715   2.845   1.046  -5.607  -0.000   0.000
   14   13   12    4        3       1.715   2.845   1.046  -5.607  -0.000   0.000
   14   13   12    3        3       1.715   2.845   1.046  -5.607  -0.000   0.000
   12   11   10    9        3       2.301  -1.464   0.837  -1.674  -0.000   0.000
   12    4    5    7        3      -4.960   6.286   1.310  -2.636  -0.000   0.000
    4    3    2    1        3       0.000   0.000   0.000  -0.000  -0.000   0.000
   12    4    5    6        3       0.000   0.000   0.000  -0.000  -0.000   0.000
   12    3    2    1        3       0.000   0.000   0.000  -0.000  -0.000   0.000
   12    3    2    4        3       0.000   0.000   0.000  -0.000  -0.000   0.000
   27    9    7    5        3       0.575   1.726   0.000  -2.301  -0.000   0.000
   26    9    7    5        3       0.575   1.726   0.000  -2.301  -0.000   0.000
   22    5    7    9        3       0.575   1.726   0.000  -2.301  -0.000   0.000
   22    5    7    8        3       0.000   0.000   0.000  -0.000  -0.000   0.000
   26    9    7    8        3       0.000   0.000   0.000  -0.000  -0.000   0.000
   27    9    7    8        3       0.000   0.000   0.000  -0.000  -0.000   0.000
   24    6    5    7        3      -0.209  -0.628   0.000   0.837  -0.000   0.000
   28   10    9    7        3      -0.209  -0.628   0.000   0.837  -0.000   0.000
   23    6    5    7        3      -0.209  -0.628   0.000   0.837  -0.000   0.000
   29   10    9    7        3      -0.209  -0.628   0.000   0.837  -0.000   0.000
   25    6    5    7        3      -0.209  -0.628   0.000   0.837  -0.000   0.000
   31   11   10    9        3       0.628   1.883   0.000  -2.510  -0.000   0.000
   26    9   10   11        3       0.628   1.883   0.000  -2.510  -0.000   0.000
   27    9   10   11        3       0.628   1.883   0.000  -2.510  -0.000   0.000
   30   11   10    9        3       0.628   1.883   0.000  -2.510  -0.000   0.000
   28   10   11   12        3       0.628   1.883   0.000  -2.510  -0.000   0.000
   29   10   11   12        3       0.628   1.883   0.000  -2.510  -0.000   0.000
   17    1    2    3        3       0.628   1.883   0.000  -2.510  -0.000   0.000
   23    6    5    4        3       0.628   1.883   0.000  -2.510  -0.000   0.000
   16    1    2    3        3       0.628   1.883   0.000  -2.510  -0.000   0.000
   24    6    5    4        3       0.628   1.883   0.000  -2.510  -0.000   0.000
   25    6    5    4        3       0.628   1.883   0.000  -2.510  -0.000   0.000
   15    1    2    3        3       0.628   1.883   0.000  -2.510  -0.000   0.000
   29   10    9   27        3       0.628   1.883   0.000  -2.510  -0.000   0.000
   28   10    9   27        3       0.628   1.883   0.000  -2.510  -0.000   0.000
   29   10    9   26        3       0.628   1.883   0.000  -2.510  -0.000   0.000
   31   11   10   28        3       0.628   1.883   0.000  -2.510  -0.000   0.000
   30   11   10   29        3       0.628   1.883   0.000  -2.510  -0.000   0.000
   31   11   10   29        3       0.628   1.883   0.000  -2.510  -0.000   0.000
   25    6    5   22        3       0.628   1.883   0.000  -2.510  -0.000   0.000
   23    6    5   22        3       0.628   1.883   0.000  -2.510  -0.000   0.000
   19    2    1   17        3       0.628   1.883   0.000  -2.510  -0.000   0.000
   18    2    1   17        3       0.628   1.883   0.000  -2.510  -0.000   0.000
   24    6    5   22        3       0.628   1.883   0.000  -2.510  -0.000   0.000
   28   10    9   26        3       0.628   1.883   0.000  -2.510  -0.000   0.000
   18    2    1   15        3       0.628   1.883   0.000  -2.510  -0.000   0.000
   19    2    1   15        3       0.628   1.883   0.000  -2.510  -0.000   0.000
   30   11   10   28        3       0.628   1.883   0.000  -2.510  -0.000   0.000
   19    2    1   16        3       0.628   1.883   0.000  -2.510  -0.000   0.000
   18    2    1   16        3       0.628   1.883   0.000  -2.510  -0.000   0.000
   30   11   12    4        3       0.628   1.883   0.000  -2.510  -0.000   0.000
   22    5    4   12        3       0.628   1.883   0.000  -2.510  -0.000   0.000
   19    2    3    4        3       0.628   1.883   0.000  -2.510  -0.000   0.000
   31   11   12    3        3       0.628   1.883   0.000  -2.510  -0.000   0.000
   19    2    3   12        3       0.628   1.883   0.000  -2.510  -0.000   0.000
   18    2    3   12        3       0.628   1.883   0.000  -2.510  -0.000   0.000
   22    5    4    3        3       0.628   1.883   0.000  -2.510  -0.000   0.000
   30   11   12    3        3       0.628   1.883   0.000  -2.510  -0.000   0.000
   31   11   12    4        3       0.628   1.883   0.000  -2.510  -0.000   0.000
   18    2    3    4        3       0.628   1.883   0.000  -2.510  -0.000   0.000
   22    5    4   21        3       0.628   1.883   0.000  -2.510  -0.000   0.000
   31   11   12   13        3       0.979   2.937   0.000  -3.916  -0.000   0.000
   30   11   12   13        3       0.979   2.937   0.000  -3.916  -0.000   0.000
   33   14   13   12        3       1.590   4.770   0.000  -6.360  -0.000   0.000
   32   14   13   12        3       1.590   4.770   0.000  -6.360  -0.000   0.000
   34   14   13   12        3       1.590   4.770   0.000  -6.360  -0.000   0.000
   21    4    5    7        3      -0.209  -0.628   0.000   0.837  -0.000   0.000
   21    4    5    6        3       0.628   1.883   0.000  -2.510  -0.000   0.000
   20    3    2    1        3       0.628   1.883   0.000  -2.510  -0.000   0.000
   20    3    2   19        3       0.628   1.883   0.000  -2.510  -0.000   0.000
   20    3    2   18        3       0.628   1.883   0.000  -2.510  -0.000   0.000
   20    3    4    5        3       0.000   0.000   0.000  -0.000  -0.000   0.000
   20    3   12   11        3       0.000   0.000   0.000  -0.000  -0.000   0.000
   21    4   12   11        3       0.000   0.000   0.000  -0.000  -0.000   0.000
   21    4    3    2        3       0.000   0.000   0.000  -0.000  -0.000   0.000
   20    3   12    4        3       0.000   0.000   0.000  -0.000  -0.000   0.000
   21    4   12    3        3       0.000   0.000   0.000  -0.000  -0.000   0.000
   21    4    3   12        3       0.000   0.000   0.000  -0.000  -0.000   0.000
   20    3    4   12        3       0.000   0.000   0.000  -0.000  -0.000   0.000
   21    4    3   20        3       0.000   0.000   0.000  -0.000  -0.000   0.000
   21    4   12   13        3       0.000   0.000   0.000  -0.000  -0.000   0.000
   20    3   12   13        3       0.000   0.000   0.000  -0.000  -0.000   0.000
    8    7    5    6        3       0.000   0.000   0.000  -0.000  -0.000   0.000
    8    7    5    4        3       0.000   0.000   0.000  -0.000  -0.000   0.000
   13   12   11   10        3      -1.157  -3.471   0.000   4.628  -0.000   0.000
   13   12    3    2        3       0.000   0.000   0.000  -0.000  -0.000   0.000
   13   12    4    5        3       0.000   0.000   0.000  -0.000  -0.000   0.000
   13   12    4    3        3       0.000   0.000   0.000  -0.000  -0.000   0.000
   13   12    3    4        3       0.000   0.000   0.000  -0.000  -0.000   0.000

[ pairs ]
     1     4    1
     2     5    1
     3     6    1
     3     7    1
     4     8    1
     4     9    1
     3    10    1
     2    11    1
     1    12    1
     6     8    1
     4    10    1
     6     9    1
     5    10    1
     2    13    1
     5    11    1
     3    14    1
     8    10    1
     7    11    1
     6    12    1
     5    13    1
     4    14    1
     3    15    1
     7    12    1
     3    16    1
     3    17    1
     9    12    1
     1    20    1
     4    18    1
    10    13    1
     4    19    1
     2    21    1
    11    14    1
     5    20    1
     3    22    1
     6    21    1
     4    23    1
     7    21    1
     4    24    1
     4    25    1
    12    18    1
     8    22    1
     7    23    1
    12    19    1
    11    20    1
     9    22    1
     7    24    1
     5    26    1
    11    21    1
     7    25    1
     5    27    1
    15    18    1
    13    20    1
     3    30    1
    16    18    1
    15    19    1
    13    21    1
    12    22    1
     8    26    1
     4    30    1
     3    31    1
    17    18    1
    16    19    1
     8    27    1
     7    28    1
     4    31    1
    17    19    1
     7    29    1
    11    26    1
    18    20    1
    11    27    1
    19    20    1
     9    30    1
    12    28    1
     9    31    1
    20    21    1
    12    29    1
    21    22    1
    13    30    1
    13    31    1
    12    32    1
    22    23    1
    12    33    1
    22    24    1
    12    34    1
    22    25    1
    26    28    1
    27    28    1
    26    29    1
    27    29    1
    28    30    1
    29    30    1
    28    31    1
    29    31    1

