LIGPARGEN GENERATED GRO FILE
   46
    1UNK    C00    1   0.100   0.100   0.000
    1UNK    C01    2  -0.053   0.100   0.000
    1UNK    C02    3  -0.106   0.100   0.144
    1UNK    O03    4  -0.071   0.224   0.207
    1UNK    C04    5  -0.080   0.220   0.343
    1UNK    O05    6   0.017   0.224   0.417
    1UNK    O06    7  -0.205   0.251   0.383
    1UNK    C07    8  -0.299   0.143   0.404
    1UNK    C08    9  -0.297   0.094   0.552
    1UNK    N09   10  -0.343   0.186   0.658
    1UNK    C0A   11  -0.246   0.292   0.683
    1UNK    C0B   12  -0.477   0.242   0.639
    1UNK    C0C   13  -0.588   0.137   0.637
    1UNK    C0D   14  -0.286   0.024   0.304
    1UNK    O0E   15  -0.182  -0.064   0.351
    1UNK    C0F   16  -0.171  -0.188   0.283
    1UNK    C0G   17  -0.259   0.078   0.161
    1UNK    C0H   18  -0.332  -0.007   0.054
    1UNK    C0I   19  -0.484   0.000   0.066
    1UNK    H0J   20   0.138   0.086  -0.102
    1UNK    H0K   21   0.140   0.018   0.061
    1UNK    H0M   22   0.140   0.194   0.039
    1UNK    H0N   23  -0.085   0.009  -0.051
    1UNK    H0O   24  -0.089   0.187  -0.055
    1UNK    H0P   25  -0.049   0.022   0.194
    1UNK    H0Q   26  -0.397   0.188   0.383
    1UNK    H0R   27  -0.195   0.062   0.577
    1UNK    H0S   28  -0.358   0.003   0.559
    1UNK    H0T   29  -0.147   0.250   0.704
    1UNK    H0U   30  -0.274   0.349   0.773
    1UNK    H0V   31  -0.238   0.363   0.600
    1UNK    H0W   32  -0.483   0.304   0.549
    1UNK    H0X   33  -0.500   0.309   0.723
    1UNK    H0Y   34  -0.575   0.064   0.556
    1UNK    H0Z   35  -0.685   0.185   0.622
    1UNK    H10   36  -0.592   0.082   0.732
    1UNK    H11   37  -0.379  -0.032   0.311
    1UNK    H12   38  -0.100  -0.250   0.339
    1UNK    H13   39  -0.130  -0.175   0.183
    1UNK    H14   40  -0.267  -0.239   0.278
    1UNK    H15   41  -0.308   0.177   0.153
    1UNK    H16   42  -0.300  -0.111   0.057
    1UNK    H17   43  -0.307   0.032  -0.046
    1UNK    H18   44  -0.521  -0.045   0.159
    1UNK    H19   45  -0.531  -0.053  -0.017
    1UNK    H1A   46  -0.519   0.104   0.063
   1.00000   1.00000   1.00000

