LIGPARGEN GENERATED GRO FILE
   37
    1UNK    C00    1   0.100   0.100   0.000
    1UNK    C01    2  -0.052   0.100   0.000
    1UNK    C02    3  -0.113   0.100   0.141
    1UNK    C03    4  -0.078   0.225   0.222
    1UNK    C04    5  -0.189   0.235   0.326
    1UNK    C05    6  -0.200   0.376   0.385
    1UNK    C06    7  -0.162   0.141   0.443
    1UNK    O07    8  -0.240   0.054   0.482
    1UNK    C08    9  -0.314   0.196   0.246
    1UNK    C09   10  -0.268   0.096   0.138
    1UNK    C0A   11  -0.318  -0.045   0.168
    1UNK    C0B   12  -0.471  -0.071   0.162
    1UNK    C0C   13  -0.439  -0.211   0.102
    1UNK    C0D   14  -0.427  -0.320   0.198
    1UNK    N0E   15  -0.418  -0.406   0.274
    1UNK    C0F   16  -0.305  -0.150   0.054
    1UNK    H0G   17   0.137   0.100  -0.103
    1UNK    H0H   18   0.139   0.011   0.050
    1UNK    H0I   19   0.140   0.189   0.050
    1UNK    H0J   20  -0.087   0.011  -0.054
    1UNK    H0K   21  -0.088   0.187  -0.056
    1UNK    H0M   22  -0.074   0.012   0.195
    1UNK    H0N   23  -0.077   0.314   0.158
    1UNK    H0O   24   0.022   0.216   0.268
    1UNK    H0P   25  -0.108   0.403   0.439
    1UNK    H0Q   26  -0.283   0.383   0.456
    1UNK    H0R   27  -0.216   0.451   0.307
    1UNK    H0S   28  -0.066   0.157   0.495
    1UNK    H0T   29  -0.354   0.285   0.195
    1UNK    H0U   30  -0.395   0.157   0.309
    1UNK    H0V   31  -0.306   0.130   0.041
    1UNK    H0W   32  -0.276  -0.083   0.263
    1UNK    H0X   33  -0.525  -0.006   0.092
    1UNK    H0Y   34  -0.524  -0.070   0.258
    1UNK    H0Z   35  -0.506  -0.238   0.020
    1UNK    H10   36  -0.312  -0.108  -0.047
    1UNK    H11   37  -0.217  -0.214   0.059
   1.00000   1.00000   1.00000

