
;
; GENERATED BY LigParGen Server
; Jorgensen Lab @ Yale University 
;
[ atomtypes ]
  opls_807  O807    15.9990     0.000    A    2.96000E-01   8.78640E-01
  opls_814  N814    14.0070     0.000    A    3.20000E-01   7.11280E-01
  opls_810  C810    12.0110     0.000    A    3.45000E-01   3.47272E-01
  opls_818  H818     1.0080     0.000    A    2.50000E-01   1.25520E-01
  opls_824  H824     1.0080     0.000    A    2.50000E-01   1.25520E-01
  opls_811  C811    12.0110     0.000    A    3.45000E-01   3.47272E-01
  opls_805  C805    12.0110     0.000    A    3.50000E-01   2.76144E-01
  opls_836  H836     1.0080     0.000    A    2.50000E-01   1.25520E-01
  opls_834  H834     1.0080     0.000    A    2.50000E-01   1.25520E-01
  opls_828  H828     1.0080     0.000    A    2.50000E-01   1.25520E-01
  opls_832  H832     1.0080     0.000    A    2.50000E-01   1.25520E-01
  opls_802  C802    12.0110     0.000    A    3.50000E-01   2.76144E-01
  opls_827  H827     1.0080     0.000    A    2.50000E-01   1.25520E-01
  opls_809  C809    12.0110     0.000    A    3.50000E-01   2.76144E-01
  opls_822  H822     1.0080     0.000    A    2.50000E-01   1.25520E-01
  opls_803  C803    12.0110     0.000    A    3.50000E-01   2.76144E-01
  opls_825  H825     1.0080     0.000    A    2.50000E-01   1.25520E-01
  opls_826  H826     1.0080     0.000    A    2.50000E-01   1.25520E-01
  opls_830  H830     1.0080     0.000    A    2.50000E-01   1.25520E-01
  opls_821  H821     1.0080     0.000    A    2.50000E-01   1.25520E-01
  opls_820  H820     1.0080     0.000    A    2.50000E-01   1.25520E-01
  opls_829  H829     1.0080     0.000    A    2.50000E-01   1.25520E-01
  opls_831  H831     1.0080     0.000    A    2.50000E-01   1.25520E-01
  opls_816  H816     1.0080     0.000    A    2.50000E-01   1.25520E-01
  opls_800  C800    12.0110     0.000    A    3.50000E-01   2.76144E-01
  opls_823  H823     1.0080     0.000    A    2.50000E-01   1.25520E-01
  opls_806  C806    12.0110     0.000    A    3.55000E-01   2.92880E-01
  opls_833  H833     1.0080     0.000    A    2.50000E-01   1.25520E-01
  opls_815  C815    12.0110     0.000    A    3.45000E-01   3.47272E-01
  opls_835  H835     1.0080     0.000    A    2.50000E-01   1.25520E-01
  opls_819  H819     1.0080     0.000    A    2.50000E-01   1.25520E-01
  opls_804  C804    12.0110     0.000    A    3.50000E-01   2.76144E-01
  opls_801  C801    12.0110     0.000    A    3.50000E-01   2.76144E-01
  opls_808  C808    12.0110     0.000    A    3.50000E-01   2.76144E-01
  opls_817  H817     1.0080     0.000    A    2.50000E-01   1.25520E-01
  opls_812  C812    12.0110     0.000    A    3.45000E-01   3.47272E-01
  opls_813  C813    12.0110     0.000    A    3.30000E-01   2.76144E-01
[ moleculetype ]
; Name               nrexcl
UNK                   3
[ atoms ]
;   nr       type  resnr residue  atom   cgnr     charge       mass  
     1   opls_800      1    UNK   C00      1    -0.2397    12.0110 
     2   opls_801      1    UNK   C01      1     -0.171    12.0110 
     3   opls_802      1    UNK   C02      1    -0.1203    12.0110 
     4   opls_803      1    UNK   C03      1    -0.1654    12.0110 
     5   opls_804      1    UNK   C04      1    -0.1304    12.0110 
     6   opls_805      1    UNK   C05      1    -0.2264    12.0110 
     7   opls_806      1    UNK   C06      1     0.3282    12.0110 
     8   opls_807      1    UNK   O07      1     -0.439    15.9990 
     9   opls_808      1    UNK   C08      1    -0.1619    12.0110 
    10   opls_809      1    UNK   C09      1    -0.1034    12.0110 
    11   opls_810      1    UNK   C0A      1    -0.1357    12.0110 
    12   opls_811      1    UNK   C0B      1    -0.1757    12.0110 
    13   opls_812      1    UNK   C0C      1    -0.0484    12.0110 
    14   opls_813      1    UNK   C0D      1     0.1528    12.0110 
    15   opls_814      1    UNK   N0E      1    -0.3545    14.0070 
    16   opls_815      1    UNK   C0F      1    -0.1821    12.0110 
    17   opls_816      1    UNK   H0G      1     0.0827     1.0080 
    18   opls_817      1    UNK   H0H      1     0.0827     1.0080 
    19   opls_818      1    UNK   H0I      1     0.0827     1.0080 
    20   opls_819      1    UNK   H0J      1     0.0897     1.0080 
    21   opls_820      1    UNK   H0K      1     0.0897     1.0080 
    22   opls_821      1    UNK   H0M      1     0.1076     1.0080 
    23   opls_822      1    UNK   H0N      1      0.102     1.0080 
    24   opls_823      1    UNK   H0O      1      0.102     1.0080 
    25   opls_824      1    UNK   H0P      1     0.0915     1.0080 
    26   opls_825      1    UNK   H0Q      1     0.0915     1.0080 
    27   opls_826      1    UNK   H0R      1     0.0915     1.0080 
    28   opls_827      1    UNK   H0S      1     0.1075     1.0080 
    29   opls_828      1    UNK   H0T      1     0.1071     1.0080 
    30   opls_829      1    UNK   H0U      1     0.1071     1.0080 
    31   opls_830      1    UNK   H0V      1     0.1053     1.0080 
    32   opls_831      1    UNK   H0W      1     0.1422     1.0080 
    33   opls_832      1    UNK   H0X      2     0.1143     1.0080 
    34   opls_833      1    UNK   H0Y      2     0.1143     1.0080 
    35   opls_834      1    UNK   H0Z      2     0.1392     1.0080 
    36   opls_835      1    UNK   H10      2     0.1111     1.0080 
    37   opls_836      1    UNK   H11      2     0.1111     1.0080 
[ bonds ]
    2     1     1      0.1529 224262.400
    3     2     1      0.1529 224262.400
    4     3     1      0.1529 224262.400
    5     4     1      0.1529 224262.400
    6     5     1      0.1529 224262.400
    7     5     1      0.1522 265265.600
    8     7     1      0.1229 476976.000
    9     5     1      0.1529 224262.400
   10     3     1      0.1529 224262.400
   11    10     1      0.1510 234304.000
   12    11     1      0.1520 217568.000
   13    12     1      0.1520 217568.000
   14    13     1      0.1451 334720.000
   15    14     1      0.1157 543920.000
   16    11     1      0.1520 217568.000
   17     1     1      0.1090 284512.000
   18     1     1      0.1090 284512.000
   19     1     1      0.1090 284512.000
   20     2     1      0.1090 284512.000
   21     2     1      0.1090 284512.000
   22     3     1      0.1090 284512.000
   23     4     1      0.1090 284512.000
   24     4     1      0.1090 284512.000
   25     6     1      0.1090 284512.000
   26     6     1      0.1090 284512.000
   27     6     1      0.1090 284512.000
   28     7     1      0.1090 284512.000
   29     9     1      0.1090 284512.000
   30     9     1      0.1090 284512.000
   31    10     1      0.1090 284512.000
   32    11     1      0.1088 284512.000
   33    12     1      0.1088 284512.000
   34    12     1      0.1088 284512.000
   35    13     1      0.1088 284512.000
   36    16     1      0.1088 284512.000
   37    16     1      0.1088 284512.000
   10     9     1      0.1529 224262.400
   16    13     1      0.1520 217568.000

[ angles ]
;  ai    aj    ak funct            c0            c1            c2            c3 
    1     2     3     1    112.700    488.273
    2     3     4     1    112.700    488.273
    3     4     5     1    112.700    488.273
    4     5     6     1    112.700    488.273
    4     5     7     1    111.100    527.184
    5     7     8     1    120.400    669.440
    4     5     9     1    112.700    488.273
    2     3    10     1    112.700    488.273
    3    10    11     1    112.700    488.273
   10    11    12     1    117.200    313.800
   11    12    13     1     83.000    251.040
   12    13    14     1    109.430    358.401
   13    14    15     1    180.000   1255.200
   10    11    16     1    117.200    313.800
    2     1    17     1    110.700    313.800
    2     1    18     1    110.700    313.800
    2     1    19     1    110.700    313.800
    1     2    20     1    110.700    313.800
    1     2    21     1    110.700    313.800
    2     3    22     1    110.700    313.800
    3     4    23     1    110.700    313.800
    3     4    24     1    110.700    313.800
    5     6    25     1    110.700    313.800
    5     6    26     1    110.700    313.800
    5     6    27     1    110.700    313.800
    5     7    28     1    115.000    292.880
    5     9    29     1    110.700    313.800
    5     9    30     1    110.700    313.800
    3    10    31     1    110.700    313.800
   10    11    32     1    114.300    292.880
   11    12    33     1    117.200    313.800
   11    12    34     1    117.200    313.800
   12    13    35     1    117.200    313.800
   11    16    36     1    117.200    313.800
   11    16    37     1    117.200    313.800
   10     9    30     1    110.700    313.800
   29     9    30     1    107.800    276.144
    3     2    20     1    110.700    313.800
   16    11    32     1    117.200    313.800
   13    12    33     1    117.200    313.800
   25     6    26     1    107.800    276.144
    3     2    21     1    110.700    313.800
   10     9    29     1    110.700    313.800
    5     4    24     1    110.700    313.800
   14    13    35     1    108.500    292.880
    4     3    22     1    110.700    313.800
   36    16    37     1    114.300    292.880
   12    13    16     1     83.000    251.040
   12    11    32     1    117.200    313.800
    7     5     9     1    111.100    527.184
   33    12    34     1    114.300    292.880
    4     3    10     1    112.700    488.273
   17     1    18     1    107.800    276.144
    5     4    23     1    110.700    313.800
   26     6    27     1    107.800    276.144
   10     3    22     1    110.700    313.800
    8     7    28     1    123.000    292.880
   17     1    19     1    107.800    276.144
    9    10    11     1    112.700    488.273
    6     5     7     1    111.100    527.184
    5     9    10     1    112.700    488.273
   12    11    16     1     83.000    251.040
    3    10     9     1    112.700    488.273
   11    10    31     1    110.700    313.800
   14    13    16     1    109.430    358.401
   20     2    21     1    107.800    276.144
   13    12    34     1    117.200    313.800
    6     5     9     1    112.700    488.273
   18     1    19     1    107.800    276.144
    9    10    31     1    110.700    313.800
   16    13    35     1    117.200    313.800
   23     4    24     1    107.800    276.144
   13    16    36     1    117.200    313.800
   25     6    27     1    107.800    276.144
   13    16    37     1    117.200    313.800
   11    16    13     1     83.000    251.040

[ dihedrals ]
; IMPROPER DIHEDRAL ANGLES 
;  ai    aj    ak    al funct            c0            c1            c2            c3            c4            c5
    28     7     5     8    4        180.000     43.932     2  

[ dihedrals ]
; PROPER DIHEDRAL ANGLES
;  ai    aj    ak    al funct            c0            c1            c2            c3            c4            c5
    7    5    4    3        3      -4.960   6.286   1.310  -2.636  -0.000   0.000
    9    5    7    8        3       0.000   0.000   0.000  -0.000  -0.000   0.000
   10    9    5    7        3      -4.960   6.286   1.310  -2.636  -0.000   0.000
    4    3    2    1        3       2.301  -1.464   0.837  -1.674  -0.000   0.000
    9   10    3    2        3       2.301  -1.464   0.837  -1.674  -0.000   0.000
    5    9   10    3        3       2.301  -1.464   0.837  -1.674  -0.000   0.000
    9   10    3    4        3       2.301  -1.464   0.837  -1.674  -0.000   0.000
   10    3    4    5        3       2.301  -1.464   0.837  -1.674  -0.000   0.000
   10    3    2    1        3       2.301  -1.464   0.837  -1.674  -0.000   0.000
    9    5    4    3        3       2.301  -1.464   0.837  -1.674  -0.000   0.000
   10    9    5    4        3       2.301  -1.464   0.837  -1.674  -0.000   0.000
   10    9    5    6        3       2.301  -1.464   0.837  -1.674  -0.000   0.000
    6    5    4    3        3       2.301  -1.464   0.837  -1.674  -0.000   0.000
    5    4    3    2        3       2.301  -1.464   0.837  -1.674  -0.000   0.000
   11   10    9    5        3       2.301  -1.464   0.837  -1.674  -0.000   0.000
   11   10    3    2        3       2.301  -1.464   0.837  -1.674  -0.000   0.000
   11   10    3    4        3       2.301  -1.464   0.837  -1.674  -0.000   0.000
   16   11   10    9        3       0.000   0.000   0.000  -0.000  -0.000   0.000
   12   11   10    3        3       0.000   0.000   0.000  -0.000  -0.000   0.000
   16   11   10    3        3       0.000   0.000   0.000  -0.000  -0.000   0.000
   12   11   10    9        3       0.000   0.000   0.000  -0.000  -0.000   0.000
   13   16   11   10        3       0.000   0.000   0.000  -0.000  -0.000   0.000
   13   12   11   10        3       0.000   0.000   0.000  -0.000  -0.000   0.000
   16   13   14   15        3       0.000   0.000   0.000  -0.000  -0.000   0.000
   14   13   16   11        3       0.000   0.000   0.000  -0.000  -0.000   0.000
   14   13   12   11        3       0.000   0.000   0.000  -0.000  -0.000   0.000
   28    7    5    9        3       0.000   0.000   0.000  -0.000  -0.000   0.000
   28    7    5    6        3       0.000   0.000   0.000  -0.000  -0.000   0.000
   28    7    5    4        3       0.000   0.000   0.000  -0.000  -0.000   0.000
   29    9    5    7        3      -0.209  -0.628   0.000   0.837  -0.000   0.000
   30    9    5    7        3      -0.209  -0.628   0.000   0.837  -0.000   0.000
   23    4    5    7        3      -0.209  -0.628   0.000   0.837  -0.000   0.000
   24    4    5    7        3      -0.209  -0.628   0.000   0.837  -0.000   0.000
   27    6    5    7        3      -0.209  -0.628   0.000   0.837  -0.000   0.000
   26    6    5    7        3      -0.209  -0.628   0.000   0.837  -0.000   0.000
   25    6    5    7        3      -0.209  -0.628   0.000   0.837  -0.000   0.000
   23    4    3    2        3       0.628   1.883   0.000  -2.510  -0.000   0.000
   25    6    5    9        3       0.628   1.883   0.000  -2.510  -0.000   0.000
   24    4    5    9        3       0.628   1.883   0.000  -2.510  -0.000   0.000
   27    6    5    4        3       0.628   1.883   0.000  -2.510  -0.000   0.000
   17    1    2    3        3       0.628   1.883   0.000  -2.510  -0.000   0.000
   24    4    3   10        3       0.628   1.883   0.000  -2.510  -0.000   0.000
   20    2    3    4        3       0.628   1.883   0.000  -2.510  -0.000   0.000
   27    6    5    9        3       0.628   1.883   0.000  -2.510  -0.000   0.000
   24    4    5    6        3       0.628   1.883   0.000  -2.510  -0.000   0.000
   22    3   10    9        3       0.628   1.883   0.000  -2.510  -0.000   0.000
   21    2    3    4        3       0.628   1.883   0.000  -2.510  -0.000   0.000
   29    9   10    3        3       0.628   1.883   0.000  -2.510  -0.000   0.000
   31   10    3    2        3       0.628   1.883   0.000  -2.510  -0.000   0.000
   21    2    3   10        3       0.628   1.883   0.000  -2.510  -0.000   0.000
   23    4    5    9        3       0.628   1.883   0.000  -2.510  -0.000   0.000
   22    3    2    1        3       0.628   1.883   0.000  -2.510  -0.000   0.000
   23    4    3   10        3       0.628   1.883   0.000  -2.510  -0.000   0.000
   18    1    2    3        3       0.628   1.883   0.000  -2.510  -0.000   0.000
   22    3    4    5        3       0.628   1.883   0.000  -2.510  -0.000   0.000
   29    9    5    6        3       0.628   1.883   0.000  -2.510  -0.000   0.000
   24    4    3    2        3       0.628   1.883   0.000  -2.510  -0.000   0.000
   30    9    5    4        3       0.628   1.883   0.000  -2.510  -0.000   0.000
   20    2    3   10        3       0.628   1.883   0.000  -2.510  -0.000   0.000
   31   10    3    4        3       0.628   1.883   0.000  -2.510  -0.000   0.000
   30    9   10    3        3       0.628   1.883   0.000  -2.510  -0.000   0.000
   26    6    5    4        3       0.628   1.883   0.000  -2.510  -0.000   0.000
   31   10    9    5        3       0.628   1.883   0.000  -2.510  -0.000   0.000
   19    1    2    3        3       0.628   1.883   0.000  -2.510  -0.000   0.000
   23    4    5    6        3       0.628   1.883   0.000  -2.510  -0.000   0.000
   30    9    5    6        3       0.628   1.883   0.000  -2.510  -0.000   0.000
   29    9    5    4        3       0.628   1.883   0.000  -2.510  -0.000   0.000
   26    6    5    9        3       0.628   1.883   0.000  -2.510  -0.000   0.000
   25    6    5    4        3       0.628   1.883   0.000  -2.510  -0.000   0.000
   30    9   10   11        3       0.628   1.883   0.000  -2.510  -0.000   0.000
   22    3   10   11        3       0.628   1.883   0.000  -2.510  -0.000   0.000
   29    9   10   11        3       0.628   1.883   0.000  -2.510  -0.000   0.000
   31   10    3   22        3       0.628   1.883   0.000  -2.510  -0.000   0.000
   21    2    1   19        3       0.628   1.883   0.000  -2.510  -0.000   0.000
   20    2    1   19        3       0.628   1.883   0.000  -2.510  -0.000   0.000
   21    2    1   18        3       0.628   1.883   0.000  -2.510  -0.000   0.000
   21    2    1   17        3       0.628   1.883   0.000  -2.510  -0.000   0.000
   22    3    2   20        3       0.628   1.883   0.000  -2.510  -0.000   0.000
   20    2    1   17        3       0.628   1.883   0.000  -2.510  -0.000   0.000
   22    3    2   21        3       0.628   1.883   0.000  -2.510  -0.000   0.000
   31   10    9   29        3       0.628   1.883   0.000  -2.510  -0.000   0.000
   23    4    3   22        3       0.628   1.883   0.000  -2.510  -0.000   0.000
   20    2    1   18        3       0.628   1.883   0.000  -2.510  -0.000   0.000
   31   10    9   30        3       0.628   1.883   0.000  -2.510  -0.000   0.000
   24    4    3   22        3       0.628   1.883   0.000  -2.510  -0.000   0.000
   31   10   11   16        3       0.628   1.883   0.000  -2.510  -0.000   0.000
   31   10   11   12        3       0.628   1.883   0.000  -2.510  -0.000   0.000
   32   11   10    3        3       0.628   1.883   0.000  -2.510  -0.000   0.000
   32   11   10    9        3       0.628   1.883   0.000  -2.510  -0.000   0.000
   32   11   10   31        3       0.628   1.883   0.000  -2.510  -0.000   0.000
   37   16   11   10        3       0.000   0.000   0.000  -0.000  -0.000   0.000
   33   12   11   10        3       0.000   0.000   0.000  -0.000  -0.000   0.000
   36   16   11   10        3       0.000   0.000   0.000  -0.000  -0.000   0.000
   34   12   11   10        3       0.000   0.000   0.000  -0.000  -0.000   0.000
   32   11   16   13        3       0.000   0.000   0.000  -0.000  -0.000   0.000
   33   12   11   16        3       0.000   0.000   0.000  -0.000  -0.000   0.000
   35   13   16   11        3       0.000   0.000   0.000  -0.000  -0.000   0.000
   37   16   11   12        3       0.000   0.000   0.000  -0.000  -0.000   0.000
   35   13   12   11        3       0.000   0.000   0.000  -0.000  -0.000   0.000
   33   12   13   16        3       0.000   0.000   0.000  -0.000  -0.000   0.000
   34   12   11   16        3       0.000   0.000   0.000  -0.000  -0.000   0.000
   34   12   13   16        3       0.000   0.000   0.000  -0.000  -0.000   0.000
   36   16   13   12        3       0.000   0.000   0.000  -0.000  -0.000   0.000
   37   16   13   12        3       0.000   0.000   0.000  -0.000  -0.000   0.000
   36   16   11   12        3       0.000   0.000   0.000  -0.000  -0.000   0.000
   32   11   12   13        3       0.000   0.000   0.000  -0.000  -0.000   0.000
   36   16   13   14        3       0.000   0.000   0.000  -0.000  -0.000   0.000
   37   16   13   14        3       0.000   0.000   0.000  -0.000  -0.000   0.000
   33   12   13   14        3       0.000   0.000   0.000  -0.000  -0.000   0.000
   34   12   13   14        3       0.000   0.000   0.000  -0.000  -0.000   0.000
   36   16   11   32        3       0.000   0.000   0.000  -0.000  -0.000   0.000
   37   16   13   35        3       0.000   0.000   0.000  -0.000  -0.000   0.000
   33   12   11   32        3       0.000   0.000   0.000  -0.000  -0.000   0.000
   35   13   12   33        3       0.000   0.000   0.000  -0.000  -0.000   0.000
   37   16   11   32        3       0.000   0.000   0.000  -0.000  -0.000   0.000
   35   13   12   34        3       0.000   0.000   0.000  -0.000  -0.000   0.000
   36   16   13   35        3       0.000   0.000   0.000  -0.000  -0.000   0.000
   34   12   11   32        3       0.000   0.000   0.000  -0.000  -0.000   0.000
   35   13   14   15        3       0.000   0.000   0.000  -0.000  -0.000   0.000
   15   14   13   12        3       0.000   0.000   0.000  -0.000  -0.000   0.000
    8    7    5    4        3       0.000   0.000   0.000  -0.000  -0.000   0.000
    8    7    5    6        3       0.000   0.000   0.000  -0.000  -0.000   0.000

[ pairs ]
     1     4    1
     2     5    1
     3     6    1
     3     7    1
     2     9    1
     1    10    1
     4     8    1
     2    11    1
     6     8    1
     4    11    1
     3    12    1
     6    10    1
     5    11    1
     8     9    1
     7    10    1
     3    16    1
     3    17    1
     9    12    1
     3    18    1
     3    19    1
    10    13    1
     1    22    1
     4    20    1
    11    14    1
     9    16    1
     4    21    1
     2    23    1
     2    24    1
    12    15    1
     5    22    1
     6    23    1
     4    25    1
    10    20    1
     7    23    1
     6    24    1
     4    26    1
    15    16    1
    10    21    1
     9    22    1
     7    24    1
     4    27    1
     9    23    1
     7    25    1
     4    28    1
     3    29    1
    11    22    1
    10    23    1
     9    24    1
     7    26    1
     4    29    1
     3    30    1
     2    31    1
    10    24    1
     9    25    1
     7    27    1
     6    28    1
     4    30    1
     9    26    1
     6    29    1
     4    31    1
     3    32    1
     9    27    1
     7    29    1
     6    30    1
     5    31    1
    17    20    1
     9    28    1
     7    30    1
    18    20    1
    17    21    1
    19    20    1
    18    21    1
    19    21    1
    11    29    1
    11    30    1
     9    32    1
    20    22    1
    21    22    1
    12    31    1
    10    33    1
    10    34    1
    22    23    1
    13    32    1
    22    24    1
    11    35    1
    10    36    1
    16    31    1
    14    33    1
    10    37    1
    14    34    1
    12    36    1
    16    33    1
    12    37    1
    16    34    1
    15    35    1
    14    36    1
    14    37    1
    22    31    1
    29    31    1
    30    31    1
    31    32    1
    32    33    1
    32    34    1
    33    35    1
    32    36    1
    34    35    1
    32    37    1
    35    36    1
    35    37    1

