LIGPARGEN GENERATED GRO FILE
   36
    1UNK    C00    1   0.100   0.100   0.000
    1UNK    C01    2  -0.047   0.100   0.000
    1UNK    C02    3  -0.143   0.100   0.107
    1UNK    C03    4  -0.127  -0.035   0.034
    1UNK    C04    5  -0.152  -0.137   0.150
    1UNK    C05    6  -0.310  -0.147   0.183
    1UNK    C06    7  -0.393  -0.145   0.051
    1UNK    C07    8  -0.469  -0.035  -0.024
    1UNK    C08    9  -0.406  -0.008  -0.166
    1UNK    C09   10  -0.256  -0.039  -0.192
    1UNK    C0A   11  -0.224  -0.184  -0.192
    1UNK    C0B   12  -0.319  -0.291  -0.151
    1UNK    C0C   13  -0.390  -0.281  -0.016
    1UNK    C0D   14  -0.138  -0.096  -0.110
    1UNK    H0E   15   0.136   0.201  -0.022
    1UNK    H0F   16   0.135   0.037  -0.083
    1UNK    H0G   17   0.143   0.064   0.093
    1UNK    H0H   18  -0.082   0.155  -0.088
    1UNK    H0I   19  -0.237   0.152   0.098
    1UNK    H0J   20  -0.100   0.111   0.208
    1UNK    H0K   21  -0.097  -0.112   0.242
    1UNK    H0M   22  -0.117  -0.236   0.118
    1UNK    H0N   23  -0.341  -0.069   0.253
    1UNK    H0O   24  -0.326  -0.242   0.236
    1UNK    H0P   25  -0.312  -0.094   0.012
    1UNK    H0Q   26  -0.470   0.059   0.032
    1UNK    H0R   27  -0.574  -0.063  -0.038
    1UNK    H0S   28  -0.424   0.096  -0.194
    1UNK    H0T   29  -0.461  -0.068  -0.240
    1UNK    H0U   30  -0.223   0.022  -0.276
    1UNK    H0V   31  -0.176  -0.220  -0.285
    1UNK    H0W   32  -0.265  -0.387  -0.152
    1UNK    H0X   33  -0.394  -0.301  -0.229
    1UNK    H0Y   34  -0.492  -0.317  -0.027
    1UNK    H0Z   35  -0.341  -0.354   0.050
    1UNK    H10   36  -0.036  -0.100  -0.153
   1.00000   1.00000   1.00000

