LIGPARGEN GENERATED GRO FILE
   39
    1UNK    C00    1   0.100   0.100   0.000
    1UNK    C01    2  -0.053   0.100   0.000
    1UNK    C02    3  -0.118   0.100   0.140
    1UNK    C03    4  -0.075   0.225   0.220
    1UNK    C04    5  -0.271   0.099   0.126
    1UNK    C05    6  -0.316   0.025   0.249
    1UNK    O06    7  -0.430   0.032   0.293
    1UNK    C07    8  -0.210  -0.069   0.301
    1UNK    C08    9  -0.258  -0.211   0.266
    1UNK    C09   10  -0.180  -0.052   0.450
    1UNK    O0A   11  -0.190   0.058   0.505
    1UNK    C0B   12  -0.126  -0.173   0.526
    1UNK    C0C   13  -0.100  -0.145   0.674
    1UNK    C0D   14  -0.045  -0.269   0.744
    1UNK    C0E   15  -0.021  -0.241   0.889
    1UNK    O0F   16   0.088  -0.260   0.944
    1UNK    C0G   17  -0.085  -0.030   0.218
    1UNK    H0H   18   0.137   0.091  -0.103
    1UNK    H0I   19   0.140   0.016   0.058
    1UNK    H0J   20   0.140   0.193   0.041
    1UNK    H0K   21  -0.086   0.012  -0.056
    1UNK    H0M   22  -0.087   0.187  -0.057
    1UNK    H0N   23  -0.098   0.316   0.163
    1UNK    H0O   24   0.032   0.224   0.241
    1UNK    H0P   25  -0.128   0.233   0.315
    1UNK    H0Q   26  -0.304   0.041   0.039
    1UNK    H0R   27  -0.315   0.199   0.122
    1UNK    H0S   28  -0.344  -0.239   0.327
    1UNK    H0T   29  -0.179  -0.285   0.281
    1UNK    H0U   30  -0.290  -0.217   0.161
    1UNK    H0V   31  -0.032  -0.203   0.477
    1UNK    H0W   32  -0.198  -0.255   0.518
    1UNK    H0X   33  -0.193  -0.113   0.722
    1UNK    H0Y   34  -0.029  -0.062   0.684
    1UNK    H0Z   35   0.049  -0.302   0.698
    1UNK    H10   36  -0.117  -0.352   0.738
    1UNK    H11   37  -0.108  -0.207   0.947
    1UNK    H12   38  -0.061  -0.111   0.147
    1UNK    H13   39   0.004  -0.017   0.280
   1.00000   1.00000   1.00000

