LIGPARGEN GENERATED GRO FILE
   39
    1UNK    C00    1   0.100   0.100   0.000
    1UNK    C01    2  -0.053   0.100   0.000
    1UNK    C02    3  -0.125   0.100   0.139
    1UNK    C03    4  -0.060  -0.016   0.222
    1UNK    C04    5  -0.099   0.231   0.221
    1UNK    C05    6  -0.134   0.368   0.158
    1UNK    C06    7  -0.281   0.394   0.146
    1UNK    O07    8  -0.363   0.360   0.231
    1UNK    C08    9  -0.079   0.477   0.247
    1UNK    O09   10  -0.036   0.583   0.203
    1UNK    N0A   11  -0.275   0.073   0.124
    1UNK    C0B   12  -0.349   0.021   0.240
    1UNK    C0C   13  -0.350   0.134   0.021
    1UNK    O0D   14  -0.298   0.204  -0.065
    1UNK    C0E   15  -0.501   0.110   0.018
    1UNK    C0F   16  -0.578   0.216  -0.058
    1UNK    C0G   17  -0.561   0.226  -0.208
    1UNK    O0H   18  -0.661   0.286  -0.001
    1UNK    H0I   19   0.136   0.117  -0.102
    1UNK    H0J   20   0.141   0.004   0.032
    1UNK    H0K   21   0.141   0.179   0.064
    1UNK    H0M   22  -0.086   0.013  -0.057
    1UNK    H0N   23  -0.081   0.188  -0.058
    1UNK    H0O   24   0.049  -0.005   0.228
    1UNK    H0P   25  -0.082  -0.113   0.176
    1UNK    H0Q   26  -0.093  -0.017   0.326
    1UNK    H0R   27   0.008   0.234   0.246
    1UNK    H0S   28  -0.150   0.223   0.318
    1UNK    H0T   29  -0.088   0.377   0.059
    1UNK    H0U   30  -0.312   0.454   0.058
    1UNK    H0V   31  -0.089   0.461   0.356
    1UNK    H0W   32  -0.288  -0.037   0.309
    1UNK    H0X   33  -0.428  -0.046   0.206
    1UNK    H0Y   34  -0.393   0.105   0.295
    1UNK    H0Z   35  -0.543   0.112   0.119
    1UNK    H10   36  -0.521   0.013  -0.027
    1UNK    H11   37  -0.464   0.188  -0.240
    1UNK    H12   38  -0.569   0.331  -0.237
    1UNK    H13   39  -0.640   0.167  -0.256
   1.00000   1.00000   1.00000

