LIGPARGEN GENERATED GRO FILE
   45
    1UNK    C00    1   0.100   0.100   0.000
    1UNK    C01    2  -0.052   0.100   0.000
    1UNK    C02    3  -0.104   0.100   0.143
    1UNK    C03    4  -0.258   0.100   0.152
    1UNK    C04    5  -0.305   0.107   0.299
    1UNK    C05    6  -0.252   0.235   0.360
    1UNK    O06    7  -0.280   0.347   0.318
    1UNK    C07    8  -0.459   0.098   0.309
    1UNK    C08    9  -0.522   0.091   0.452
    1UNK    C09   10  -0.467  -0.029   0.532
    1UNK    C0A   11  -0.495   0.219   0.534
    1UNK    C0B   12  -0.678   0.079   0.440
    1UNK    C0C   13  -0.730  -0.046   0.369
    1UNK    C0D   14  -0.881  -0.052   0.361
    1UNK    O0E   15  -0.954   0.036   0.406
    1UNK    C0F   16  -0.936  -0.176   0.291
    1UNK    C0G   17  -1.088  -0.177   0.284
    1UNK    H0H   18   0.139   0.100  -0.102
    1UNK    H0I   19   0.139   0.011   0.051
    1UNK    H0J   20   0.139   0.189   0.051
    1UNK    H0K   21  -0.089   0.012  -0.054
    1UNK    H0M   22  -0.088   0.189  -0.053
    1UNK    H0N   23  -0.064   0.189   0.194
    1UNK    H0O   24  -0.066   0.012   0.197
    1UNK    H0P   25  -0.296   0.009   0.104
    1UNK    H0Q   26  -0.298   0.185   0.095
    1UNK    H0R   27  -0.260   0.023   0.352
    1UNK    H0S   28  -0.184   0.221   0.446
    1UNK    H0T   29  -0.488   0.008   0.254
    1UNK    H0U   30  -0.503   0.183   0.255
    1UNK    H0V   31  -0.359  -0.018   0.549
    1UNK    H0W   32  -0.482  -0.123   0.479
    1UNK    H0X   33  -0.515  -0.036   0.630
    1UNK    H0Y   34  -0.391   0.225   0.567
    1UNK    H0Z   35  -0.555   0.222   0.625
    1UNK    H10   36  -0.519   0.309   0.476
    1UNK    H11   37  -0.716   0.168   0.387
    1UNK    H12   38  -0.722   0.083   0.540
    1UNK    H13   39  -0.698  -0.136   0.423
    1UNK    H14   40  -0.692  -0.051   0.267
    1UNK    H15   41  -0.901  -0.264   0.346
    1UNK    H16   42  -0.895  -0.179   0.190
    1UNK    H17   43  -1.132  -0.176   0.385
    1UNK    H18   44  -1.122  -0.268   0.233
    1UNK    H19   45  -1.125  -0.090   0.230
   1.00000   1.00000   1.00000

