LIGPARGEN GENERATED GRO FILE
   40
    1UNK    C00    1   0.100   0.100   0.000
    1UNK    C01    2  -0.052   0.100   0.000
    1UNK    C02    3  -0.111   0.100   0.142
    1UNK    C03    4  -0.266   0.100   0.143
    1UNK    C04    5  -0.319  -0.033   0.084
    1UNK    C05    6  -0.343   0.137   0.281
    1UNK    C06    7  -0.291   0.207   0.413
    1UNK    C07    8  -0.185   0.117   0.480
    1UNK    C08    9  -0.227   0.337   0.384
    1UNK    N09   10  -0.176   0.440   0.370
    1UNK    C0A   11  -0.413   0.233   0.513
    1UNK    C0B   12  -0.490   0.108   0.556
    1UNK    C0C   13  -0.373   0.310   0.641
    1UNK    C0D   14  -0.452   0.217   0.202
    1UNK    S0E   15  -0.343   0.244   0.065
    1UNK    O0F   16  -0.263   0.364   0.082
    1UNK    O0G   17  -0.407   0.209  -0.060
    1UNK    H0H   18   0.137   0.100  -0.103
    1UNK    H0I   19   0.139   0.011   0.050
    1UNK    H0J   20   0.140   0.189   0.050
    1UNK    H0K   21  -0.085   0.012  -0.056
    1UNK    H0M   22  -0.087   0.188  -0.056
    1UNK    H0N   23  -0.073   0.188   0.195
    1UNK    H0O   24  -0.074   0.011   0.196
    1UNK    H0P   25  -0.285  -0.119   0.143
    1UNK    H0Q   26  -0.286  -0.047  -0.020
    1UNK    H0R   27  -0.428  -0.035   0.082
    1UNK    H0S   28  -0.386   0.042   0.319
    1UNK    H0T   29  -0.097   0.104   0.416
    1UNK    H0U   30  -0.223   0.017   0.501
    1UNK    H0V   31  -0.148   0.160   0.573
    1UNK    H0W   32  -0.485   0.298   0.461
    1UNK    H0X   33  -0.427   0.039   0.613
    1UNK    H0Y   34  -0.533   0.055   0.471
    1UNK    H0Z   35  -0.574   0.136   0.621
    1UNK    H10   36  -0.305   0.252   0.703
    1UNK    H11   37  -0.462   0.331   0.702
    1UNK    H12   38  -0.327   0.406   0.619
    1UNK    H13   39  -0.487   0.310   0.245
    1UNK    H14   40  -0.539   0.157   0.173
   1.00000   1.00000   1.00000

