LIGPARGEN GENERATED GRO FILE
   25
    1UNK    C00    1   0.100   0.100   0.000
    1UNK    C01    2  -0.053   0.100   0.000
    1UNK    C02    3  -0.101   0.100   0.140
    1UNK    N03    4  -0.139   0.100   0.250
    1UNK    C04    5  -0.113   0.221  -0.074
    1UNK    C05    6  -0.074   0.236  -0.222
    1UNK    C06    7  -0.121   0.121  -0.312
    1UNK    C07    8  -0.126   0.184  -0.450
    1UNK    C08    9  -0.182   0.323  -0.425
    1UNK    C09   10  -0.138   0.361  -0.284
    1UNK    H0A   11   0.139   0.015   0.058
    1UNK    H0B   12   0.140   0.192   0.045
    1UNK    H0C   13   0.140   0.091  -0.101
    1UNK    H0D   14  -0.087   0.008  -0.048
    1UNK    H0E   15  -0.083   0.313  -0.022
    1UNK    H0F   16  -0.222   0.216  -0.067
    1UNK    H0G   17   0.035   0.245  -0.231
    1UNK    H0H   18  -0.220   0.086  -0.283
    1UNK    H0I   19  -0.052   0.036  -0.310
    1UNK    H0J   20  -0.187   0.127  -0.520
    1UNK    H0K   21  -0.025   0.192  -0.492
    1UNK    H0M   22  -0.292   0.320  -0.429
    1UNK    H0N   23  -0.149   0.395  -0.500
    1UNK    H0O   24  -0.223   0.397  -0.227
    1UNK    H0P   25  -0.064   0.443  -0.287
   1.00000   1.00000   1.00000

