
;
; GENERATED BY LigParGen Server
; Jorgensen Lab @ Yale University 
;
[ atomtypes ]
  opls_818  H818     1.0080     0.000    A    2.50000E-01   1.25520E-01
  opls_802  C802    12.0110     0.000    A    3.30000E-01   2.76144E-01
  opls_824  H824     1.0080     0.000    A    2.50000E-01   1.25520E-01
  opls_805  C805    12.0110     0.000    A    3.50000E-01   2.76144E-01
  opls_813  H813     1.0080     0.000    A    2.50000E-01   1.25520E-01
  opls_806  C806    12.0110     0.000    A    3.50000E-01   2.76144E-01
  opls_815  H815     1.0080     0.000    A    2.50000E-01   1.25520E-01
  opls_809  C809    12.0110     0.000    A    3.50000E-01   2.76144E-01
  opls_822  H822     1.0080     0.000    A    2.50000E-01   1.25520E-01
  opls_807  C807    12.0110     0.000    A    3.50000E-01   2.76144E-01
  opls_814  H814     1.0080     0.000    A    2.50000E-01   1.25520E-01
  opls_821  H821     1.0080     0.000    A    2.50000E-01   1.25520E-01
  opls_820  H820     1.0080     0.000    A    2.50000E-01   1.25520E-01
  opls_811  H811     1.0080     0.000    A    2.50000E-01   1.25520E-01
  opls_810  H810     1.0080     0.000    A    2.50000E-01   1.25520E-01
  opls_816  H816     1.0080     0.000    A    2.50000E-01   1.25520E-01
  opls_800  C800    12.0110     0.000    A    3.50000E-01   2.76144E-01
  opls_823  H823     1.0080     0.000    A    2.50000E-01   1.25520E-01
  opls_819  H819     1.0080     0.000    A    2.50000E-01   1.25520E-01
  opls_804  C804    12.0110     0.000    A    3.50000E-01   2.76144E-01
  opls_801  C801    12.0110     0.000    A    3.50000E-01   2.76144E-01
  opls_808  C808    12.0110     0.000    A    3.50000E-01   2.76144E-01
  opls_817  H817     1.0080     0.000    A    2.50000E-01   1.25520E-01
  opls_812  H812     1.0080     0.000    A    2.50000E-01   1.25520E-01
  opls_803  N803    14.0070     0.000    A    3.20000E-01   7.11280E-01
[ moleculetype ]
; Name               nrexcl
UNK                   3
[ atoms ]
;   nr       type  resnr residue  atom   cgnr     charge       mass  
     1   opls_800      1    UNK   C00      1    -0.2371    12.0110 
     2   opls_801      1    UNK   C01      1     0.0013    12.0110 
     3   opls_802      1    UNK   C02      1     0.1577    12.0110 
     4   opls_803      1    UNK   N03      1    -0.3906    14.0070 
     5   opls_804      1    UNK   C04      1    -0.1658    12.0110 
     6   opls_805      1    UNK   C05      1    -0.1175    12.0110 
     7   opls_806      1    UNK   C06      1    -0.1794    12.0110 
     8   opls_807      1    UNK   C07      1    -0.1823    12.0110 
     9   opls_808      1    UNK   C08      1     -0.183    12.0110 
    10   opls_809      1    UNK   C09      1    -0.1799    12.0110 
    11   opls_810      1    UNK   H0A      1     0.0958     1.0080 
    12   opls_811      1    UNK   H0B      1     0.0958     1.0080 
    13   opls_812      1    UNK   H0C      1     0.0958     1.0080 
    14   opls_813      1    UNK   H0D      1      0.133     1.0080 
    15   opls_814      1    UNK   H0E      1      0.101     1.0080 
    16   opls_815      1    UNK   H0F      1      0.101     1.0080 
    17   opls_816      1    UNK   H0G      1     0.1024     1.0080 
    18   opls_817      1    UNK   H0H      1     0.0949     1.0080 
    19   opls_818      1    UNK   H0I      1     0.0949     1.0080 
    20   opls_819      1    UNK   H0J      1     0.0947     1.0080 
    21   opls_820      1    UNK   H0K      1     0.0947     1.0080 
    22   opls_821      1    UNK   H0M      1     0.0931     1.0080 
    23   opls_822      1    UNK   H0N      1     0.0931     1.0080 
    24   opls_823      1    UNK   H0O      1     0.0933     1.0080 
    25   opls_824      1    UNK   H0P      1     0.0933     1.0080 
[ bonds ]
    2     1     1      0.1529 224262.400
    3     2     1      0.1470 326352.000
    4     3     1      0.1157 543920.000
    5     2     1      0.1529 224262.400
    6     5     1      0.1529 224262.400
    7     6     1      0.1529 224262.400
    8     7     1      0.1529 224262.400
    9     8     1      0.1529 224262.400
   10     6     1      0.1529 224262.400
   11     1     1      0.1090 284512.000
   12     1     1      0.1090 284512.000
   13     1     1      0.1090 284512.000
   14     2     1      0.1090 284512.000
   15     5     1      0.1090 284512.000
   16     5     1      0.1090 284512.000
   17     6     1      0.1090 284512.000
   18     7     1      0.1090 284512.000
   19     7     1      0.1090 284512.000
   20     8     1      0.1090 284512.000
   21     8     1      0.1090 284512.000
   22     9     1      0.1090 284512.000
   23     9     1      0.1090 284512.000
   24    10     1      0.1090 284512.000
   25    10     1      0.1090 284512.000
   10     9     1      0.1529 224262.400

[ angles ]
;  ai    aj    ak funct            c0            c1            c2            c3 
    1     2     3     1    112.700    488.273
    2     3     4     1    180.000   1255.200
    1     2     5     1    112.700    488.273
    2     5     6     1    112.700    488.273
    5     6     7     1    112.700    488.273
    6     7     8     1    112.700    488.273
    7     8     9     1    112.700    488.273
    5     6    10     1    112.700    488.273
    2     1    11     1    110.700    313.800
    2     1    12     1    110.700    313.800
    2     1    13     1    110.700    313.800
    1     2    14     1    110.700    313.800
    2     5    15     1    110.700    313.800
    2     5    16     1    110.700    313.800
    5     6    17     1    110.700    313.800
    6     7    18     1    110.700    313.800
    6     7    19     1    110.700    313.800
    7     8    20     1    110.700    313.800
    7     8    21     1    110.700    313.800
    8     9    22     1    110.700    313.800
    8     9    23     1    110.700    313.800
    6    10    24     1    110.700    313.800
    6    10    25     1    110.700    313.800
    7     6    17     1    110.700    313.800
    9    10    25     1    110.700    313.800
    3     2    14     1    108.500    292.880
    8     7    18     1    110.700    313.800
   11     1    13     1    107.800    276.144
   10     9    23     1    110.700    313.800
   15     5    16     1    107.800    276.144
   12     1    13     1    107.800    276.144
    9     8    20     1    110.700    313.800
    9    10    24     1    110.700    313.800
   24    10    25     1    107.800    276.144
   11     1    12     1    107.800    276.144
   22     9    23     1    107.800    276.144
    6     5    15     1    110.700    313.800
   18     7    19     1    107.800    276.144
    6    10     9     1    112.700    488.273
    8     7    19     1    110.700    313.800
    3     2     5     1    112.700    488.273
    7     6    10     1    112.700    488.273
    6     5    16     1    110.700    313.800
    5     2    14     1    110.700    313.800
   10     9    22     1    110.700    313.800
   20     8    21     1    107.800    276.144
    9     8    21     1    110.700    313.800
   10     6    17     1    110.700    313.800
    8     9    10     1    112.700    488.273

[ dihedrals ]
; IMPROPER DIHEDRAL ANGLES 
;  ai    aj    ak    al funct            c0            c1            c2            c3            c4            c5

[ dihedrals ]
; PROPER DIHEDRAL ANGLES
;  ai    aj    ak    al funct            c0            c1            c2            c3            c4            c5
    8    9   10    6        3       2.301  -1.464   0.837  -1.674  -0.000   0.000
    9   10    6    5        3       2.301  -1.464   0.837  -1.674  -0.000   0.000
    9   10    6    7        3       2.301  -1.464   0.837  -1.674  -0.000   0.000
   10    9    8    7        3       2.301  -1.464   0.837  -1.674  -0.000   0.000
   10    6    7    8        3       2.301  -1.464   0.837  -1.674  -0.000   0.000
   10    6    5    2        3       2.301  -1.464   0.837  -1.674  -0.000   0.000
    8    7    6    5        3       2.301  -1.464   0.837  -1.674  -0.000   0.000
    7    6    5    2        3       2.301  -1.464   0.837  -1.674  -0.000   0.000
    6    5    2    1        3       2.301  -1.464   0.837  -1.674  -0.000   0.000
    9    8    7    6        3       2.301  -1.464   0.837  -1.674  -0.000   0.000
    6    5    2    3        3      -2.720   0.000   2.720  -0.000  -0.000   0.000
    5    2    3    4        3       0.000   0.000   0.000  -0.000  -0.000   0.000
   24   10    6    7        3       0.628   1.883   0.000  -2.510  -0.000   0.000
   23    9    8    7        3       0.628   1.883   0.000  -2.510  -0.000   0.000
   20    8    9   10        3       0.628   1.883   0.000  -2.510  -0.000   0.000
   21    8    9   10        3       0.628   1.883   0.000  -2.510  -0.000   0.000
   15    5    6    7        3       0.628   1.883   0.000  -2.510  -0.000   0.000
   19    7    8    9        3       0.628   1.883   0.000  -2.510  -0.000   0.000
   11    1    2    5        3       0.628   1.883   0.000  -2.510  -0.000   0.000
   17    6    7    8        3       0.628   1.883   0.000  -2.510  -0.000   0.000
   19    7    6    5        3       0.628   1.883   0.000  -2.510  -0.000   0.000
   25   10    6    7        3       0.628   1.883   0.000  -2.510  -0.000   0.000
   18    7    6   10        3       0.628   1.883   0.000  -2.510  -0.000   0.000
   22    9   10    6        3       0.628   1.883   0.000  -2.510  -0.000   0.000
   18    7    6    5        3       0.628   1.883   0.000  -2.510  -0.000   0.000
   21    8    7    6        3       0.628   1.883   0.000  -2.510  -0.000   0.000
   17    6    5    2        3       0.628   1.883   0.000  -2.510  -0.000   0.000
   17    6   10    9        3       0.628   1.883   0.000  -2.510  -0.000   0.000
   18    7    8    9        3       0.628   1.883   0.000  -2.510  -0.000   0.000
   16    5    6    7        3       0.628   1.883   0.000  -2.510  -0.000   0.000
   12    1    2    5        3       0.628   1.883   0.000  -2.510  -0.000   0.000
   15    5    2    1        3       0.628   1.883   0.000  -2.510  -0.000   0.000
   24   10    9    8        3       0.628   1.883   0.000  -2.510  -0.000   0.000
   20    8    7    6        3       0.628   1.883   0.000  -2.510  -0.000   0.000
   13    1    2    5        3       0.628   1.883   0.000  -2.510  -0.000   0.000
   19    7    6   10        3       0.628   1.883   0.000  -2.510  -0.000   0.000
   16    5    2    1        3       0.628   1.883   0.000  -2.510  -0.000   0.000
   16    5    6   10        3       0.628   1.883   0.000  -2.510  -0.000   0.000
   23    9   10    6        3       0.628   1.883   0.000  -2.510  -0.000   0.000
   15    5    6   10        3       0.628   1.883   0.000  -2.510  -0.000   0.000
   25   10    6    5        3       0.628   1.883   0.000  -2.510  -0.000   0.000
   22    9    8    7        3       0.628   1.883   0.000  -2.510  -0.000   0.000
   25   10    9    8        3       0.628   1.883   0.000  -2.510  -0.000   0.000
   14    2    5    6        3       0.628   1.883   0.000  -2.510  -0.000   0.000
   24   10    6    5        3       0.628   1.883   0.000  -2.510  -0.000   0.000
   13    1    2    3        3       0.766   2.297   0.000  -3.063  -0.000   0.000
   12    1    2    3        3       0.766   2.297   0.000  -3.063  -0.000   0.000
   16    5    2    3        3       0.766   2.297   0.000  -3.063  -0.000   0.000
   11    1    2    3        3       0.766   2.297   0.000  -3.063  -0.000   0.000
   15    5    2    3        3       0.766   2.297   0.000  -3.063  -0.000   0.000
   14    2    1   12        3       0.628   1.883   0.000  -2.510  -0.000   0.000
   18    7    6   17        3       0.628   1.883   0.000  -2.510  -0.000   0.000
   20    8    7   18        3       0.628   1.883   0.000  -2.510  -0.000   0.000
   25   10    9   22        3       0.628   1.883   0.000  -2.510  -0.000   0.000
   21    8    7   19        3       0.628   1.883   0.000  -2.510  -0.000   0.000
   15    5    2   14        3       0.628   1.883   0.000  -2.510  -0.000   0.000
   17    6    5   15        3       0.628   1.883   0.000  -2.510  -0.000   0.000
   14    2    1   13        3       0.628   1.883   0.000  -2.510  -0.000   0.000
   22    9    8   20        3       0.628   1.883   0.000  -2.510  -0.000   0.000
   25   10    6   17        3       0.628   1.883   0.000  -2.510  -0.000   0.000
   23    9    8   21        3       0.628   1.883   0.000  -2.510  -0.000   0.000
   22    9    8   21        3       0.628   1.883   0.000  -2.510  -0.000   0.000
   23    9    8   20        3       0.628   1.883   0.000  -2.510  -0.000   0.000
   14    2    1   11        3       0.628   1.883   0.000  -2.510  -0.000   0.000
   17    6    5   16        3       0.628   1.883   0.000  -2.510  -0.000   0.000
   16    5    2   14        3       0.628   1.883   0.000  -2.510  -0.000   0.000
   19    7    6   17        3       0.628   1.883   0.000  -2.510  -0.000   0.000
   24   10    9   23        3       0.628   1.883   0.000  -2.510  -0.000   0.000
   24   10    6   17        3       0.628   1.883   0.000  -2.510  -0.000   0.000
   20    8    7   19        3       0.628   1.883   0.000  -2.510  -0.000   0.000
   25   10    9   23        3       0.628   1.883   0.000  -2.510  -0.000   0.000
   21    8    7   18        3       0.628   1.883   0.000  -2.510  -0.000   0.000
   24   10    9   22        3       0.628   1.883   0.000  -2.510  -0.000   0.000
   14    2    3    4        3       0.000   0.000   0.000  -0.000  -0.000   0.000
    4    3    2    1        3       0.000   0.000   0.000  -0.000  -0.000   0.000

[ pairs ]
     1     4    1
     1     6    1
     4     5    1
     3     6    1
     2     7    1
     2    10    1
     5     8    1
     5     9    1
     3    11    1
     3    12    1
     5    11    1
     3    13    1
     1    15    1
     5    12    1
     1    16    1
     5    13    1
     4    14    1
     3    15    1
     3    16    1
     2    17    1
     6    14    1
     7    15    1
     7    16    1
     5    18    1
     5    19    1
    11    14    1
    10    15    1
     8    17    1
    12    14    1
    10    16    1
     9    17    1
     6    20    1
    13    14    1
     9    18    1
     6    21    1
    10    18    1
     9    19    1
     6    22    1
    14    15    1
    10    19    1
     7    22    1
     6    23    1
     5    24    1
    14    16    1
    10    20    1
     7    23    1
     5    25    1
    10    21    1
     7    24    1
    15    17    1
     8    24    1
     7    25    1
    16    17    1
     8    25    1
    17    18    1
    17    19    1
    18    20    1
    19    20    1
    18    21    1
    19    21    1
    17    24    1
    20    22    1
    17    25    1
    21    22    1
    20    23    1
    21    23    1
    22    24    1
    23    24    1
    22    25    1
    23    25    1

