LIGPARGEN GENERATED GRO FILE
   36
    1UNK    C00    1   0.100   0.100   0.000
    1UNK    C01    2  -0.052   0.100   0.000
    1UNK    C02    3  -0.105   0.100   0.143
    1UNK    C03    4  -0.259   0.100   0.150
    1UNK    C04    5  -0.312   0.094   0.294
    1UNK    C05    6  -0.270   0.216   0.377
    1UNK    C06    7  -0.466   0.087   0.299
    1UNK    C07    8  -0.535  -0.033   0.232
    1UNK    C08    9  -0.490  -0.165   0.292
    1UNK    O09   10  -0.678  -0.025   0.253
    1UNK    C0A   11  -0.741   0.080   0.178
    1UNK    C0B   12  -0.890   0.073   0.201
    1UNK    H0C   13   0.138   0.100  -0.102
    1UNK    H0D   14   0.139   0.011   0.051
    1UNK    H0E   15   0.139   0.189   0.051
    1UNK    H0F   16  -0.089   0.012  -0.054
    1UNK    H0G   17  -0.088   0.189  -0.053
    1UNK    H0H   18  -0.066   0.188   0.194
    1UNK    H0I   19  -0.067   0.012   0.196
    1UNK    H0J   20  -0.295   0.014   0.093
    1UNK    H0K   21  -0.298   0.190   0.099
    1UNK    H0M   22  -0.271   0.005   0.343
    1UNK    H0N   23  -0.320   0.307   0.341
    1UNK    H0O   24  -0.162   0.234   0.374
    1UNK    H0P   25  -0.297   0.202   0.482
    1UNK    H0Q   26  -0.504   0.180   0.253
    1UNK    H0R   27  -0.500   0.092   0.403
    1UNK    H0S   28  -0.516  -0.035   0.124
    1UNK    H0T   29  -0.498  -0.164   0.401
    1UNK    H0U   30  -0.386  -0.189   0.266
    1UNK    H0V   31  -0.554  -0.247   0.257
    1UNK    H0W   32  -0.718   0.068   0.072
    1UNK    H0X   33  -0.706   0.177   0.212
    1UNK    H0Y   34  -0.930  -0.024   0.168
    1UNK    H0Z   35  -0.941   0.153   0.146
    1UNK    H10   36  -0.913   0.082   0.308
   1.00000   1.00000   1.00000

