LIGPARGEN GENERATED GRO FILE
   38
    1UNK    C00    1   0.100   0.100   0.000
    1UNK    C01    2  -0.052   0.100   0.000
    1UNK    C02    3  -0.108   0.100   0.143
    1UNK    C03    4  -0.262   0.106   0.152
    1UNK    C04    5  -0.330  -0.014   0.088
    1UNK    C05    6  -0.303   0.113   0.300
    1UNK    O06    7  -0.236   0.058   0.386
    1UNK    C07    8  -0.433   0.185   0.336
    1UNK    C08    9  -0.529   0.085   0.401
    1UNK    C09   10  -0.409   0.308   0.428
    1UNK    C0A   11  -0.341   0.269   0.558
    1UNK    N0B   12  -0.285   0.235   0.666
    1UNK    C0C   13  -0.319   0.416   0.362
    1UNK    C0D   14  -0.377   0.478   0.234
    1UNK    C0E   15  -0.281   0.582   0.177
    1UNK    H0F   16   0.138   0.095  -0.103
    1UNK    H0G   17   0.139   0.013   0.054
    1UNK    H0H   18   0.139   0.191   0.047
    1UNK    H0I   19  -0.086   0.011  -0.054
    1UNK    H0J   20  -0.089   0.188  -0.055
    1UNK    H0K   21  -0.066   0.186   0.197
    1UNK    H0M   22  -0.071   0.011   0.195
    1UNK    H0N   23  -0.295   0.198   0.102
    1UNK    H0O   24  -0.314  -0.105   0.148
    1UNK    H0P   25  -0.295  -0.034  -0.013
    1UNK    H0Q   26  -0.439   0.002   0.083
    1UNK    H0R   27  -0.482   0.219   0.244
    1UNK    H0S   28  -0.482   0.029   0.483
    1UNK    H0T   29  -0.562   0.011   0.327
    1UNK    H0U   30  -0.618   0.135   0.441
    1UNK    H0V   31  -0.506   0.354   0.453
    1UNK    H0W   32  -0.220   0.373   0.340
    1UNK    H0X   33  -0.301   0.496   0.434
    1UNK    H0Y   34  -0.473   0.525   0.257
    1UNK    H0Z   35  -0.394   0.402   0.158
    1UNK    H10   36  -0.264   0.663   0.248
    1UNK    H11   37  -0.323   0.625   0.085
    1UNK    H12   38  -0.184   0.536   0.152
   1.00000   1.00000   1.00000

