LIGPARGEN GENERATED GRO FILE
   24
    1UNK    C00    1   0.100   0.100   0.000
    1UNK    C01    2  -0.052   0.100   0.000
    1UNK    C02    3  -0.111   0.100   0.140
    1UNK    O03    4  -0.042   0.100   0.242
    1UNK    C04    5  -0.262   0.100   0.146
    1UNK    C05    6  -0.317   0.100   0.288
    1UNK    C06    7  -0.468   0.100   0.284
    1UNK    O07    8  -0.531   0.100   0.179
    1UNK    O08    9  -0.515   0.100   0.410
    1UNK    C09   10  -0.646   0.100   0.441
    1UNK    C0A   11  -0.757   0.100   0.340
    1UNK    O0B   12  -0.677   0.101   0.561
    1UNK    H0C   13   0.138   0.100  -0.103
    1UNK    H0D   14   0.139   0.011   0.051
    1UNK    H0E   15   0.139   0.189   0.051
    1UNK    H0F   16  -0.088   0.011  -0.052
    1UNK    H0G   17  -0.088   0.189  -0.052
    1UNK    H0H   18  -0.297   0.011   0.092
    1UNK    H0I   19  -0.297   0.189   0.092
    1UNK    H0J   20  -0.283   0.189   0.342
    1UNK    H0K   21  -0.283   0.011   0.342
    1UNK    H0M   22  -0.729   0.100   0.235
    1UNK    H0N   23  -0.818   0.190   0.356
    1UNK    H0O   24  -0.818   0.011   0.356
   1.00000   1.00000   1.00000

