
;
; GENERATED BY LigParGen Server
; Jorgensen Lab @ Yale University 
;
[ atomtypes ]
  opls_807  O807    15.9990     0.000    A    2.96000E-01   8.78640E-01
  opls_818  H818     1.0080     0.000    A    2.50000E-01   1.25520E-01
  opls_805  C805    12.0110     0.000    A    3.50000E-01   2.76144E-01
  opls_813  H813     1.0080     0.000    A    2.50000E-01   1.25520E-01
  opls_803  O803    15.9990     0.000    A    2.96000E-01   8.78640E-01
  opls_815  H815     1.0080     0.000    A    2.50000E-01   1.25520E-01
  opls_801  C801    12.0110     0.000    A    3.50000E-01   2.76144E-01
  opls_811  O811    15.9990     0.000    A    2.96000E-01   8.78640E-01
  opls_822  H822     1.0080     0.000    A    2.50000E-01   1.25520E-01
  opls_814  H814     1.0080     0.000    A    2.50000E-01   1.25520E-01
  opls_810  C810    12.0110     0.000    A    3.50000E-01   2.76144E-01
  opls_820  H820     1.0080     0.000    A    2.50000E-01   1.25520E-01
  opls_809  C809    12.0110     0.000    A    3.55000E-01   2.92880E-01
  opls_821  H821     1.0080     0.000    A    2.50000E-01   1.25520E-01
  opls_816  H816     1.0080     0.000    A    2.50000E-01   1.25520E-01
  opls_800  C800    12.0110     0.000    A    3.50000E-01   2.76144E-01
  opls_823  H823     1.0080     0.000    A    2.50000E-01   1.25520E-01
  opls_806  C806    12.0110     0.000    A    3.55000E-01   2.92880E-01
  opls_808  O808    15.9990     0.000    A    2.90000E-01   5.85760E-01
  opls_802  C802    12.0110     0.000    A    3.55000E-01   2.92880E-01
  opls_819  H819     1.0080     0.000    A    2.50000E-01   1.25520E-01
  opls_804  C804    12.0110     0.000    A    3.50000E-01   2.76144E-01
  opls_817  H817     1.0080     0.000    A    2.50000E-01   1.25520E-01
  opls_812  H812     1.0080     0.000    A    2.50000E-01   1.25520E-01
[ moleculetype ]
; Name               nrexcl
UNK                   3
[ atoms ]
;   nr       type  resnr residue  atom   cgnr     charge       mass  
     1   opls_800      1    UNK   C00      1    -0.2322    12.0110 
     2   opls_801      1    UNK   C01      1    -0.2318    12.0110 
     3   opls_802      1    UNK   C02      1     0.3623    12.0110 
     4   opls_803      1    UNK   O03      1    -0.4407    15.9990 
     5   opls_804      1    UNK   C04      1    -0.2383    12.0110 
     6   opls_805      1    UNK   C05      1    -0.1813    12.0110 
     7   opls_806      1    UNK   C06      1     0.4713    12.0110 
     8   opls_807      1    UNK   O07      1    -0.4379    15.9990 
     9   opls_808      1    UNK   O08      1    -0.3444    15.9990 
    10   opls_809      1    UNK   C09      1     0.4528    12.0110 
    11   opls_810      1    UNK   C0A      1    -0.3108    12.0110 
    12   opls_811      1    UNK   O0B      1    -0.3972    15.9990 
    13   opls_812      1    UNK   H0C      1     0.0944     1.0080 
    14   opls_813      1    UNK   H0D      1     0.0944     1.0080 
    15   opls_814      1    UNK   H0E      1     0.0944     1.0080 
    16   opls_815      1    UNK   H0F      1     0.1203     1.0080 
    17   opls_816      1    UNK   H0G      1     0.1203     1.0080 
    18   opls_817      1    UNK   H0H      1     0.1367     1.0080 
    19   opls_818      1    UNK   H0I      1     0.1367     1.0080 
    20   opls_819      1    UNK   H0J      1     0.1557     1.0080 
    21   opls_820      1    UNK   H0K      1     0.1557     1.0080 
    22   opls_821      1    UNK   H0M      1     0.1398     1.0080 
    23   opls_822      1    UNK   H0N      1     0.1398     1.0080 
    24   opls_823      1    UNK   H0O      1     0.1398     1.0080 
[ bonds ]
    2     1     1      0.1529 224262.400
    3     2     1      0.1522 265265.600
    4     3     1      0.1229 476976.000
    5     3     1      0.1522 265265.600
    6     5     1      0.1529 224262.400
    7     6     1      0.1522 265265.600
    8     7     1      0.1229 476976.000
    9     7     1      0.1327 179075.200
   10     9     1      0.1327 179075.200
   11    10     1      0.1522 265265.600
   12    10     1      0.1229 476976.000
   13     1     1      0.1090 284512.000
   14     1     1      0.1090 284512.000
   15     1     1      0.1090 284512.000
   16     2     1      0.1090 284512.000
   17     2     1      0.1090 284512.000
   18     5     1      0.1090 284512.000
   19     5     1      0.1090 284512.000
   20     6     1      0.1090 284512.000
   21     6     1      0.1090 284512.000
   22    11     1      0.1090 284512.000
   23    11     1      0.1090 284512.000
   24    11     1      0.1090 284512.000

[ angles ]
;  ai    aj    ak funct            c0            c1            c2            c3 
    1     2     3     1    111.100    527.184
    2     3     4     1    120.400    669.440
    2     3     5     1    116.000    585.760
    3     5     6     1    111.100    527.184
    5     6     7     1    111.100    527.184
    6     7     8     1    120.400    669.440
    6     7     9     1    111.400    677.808
    7     9    10     1    114.540    581.660
    9    10    11     1    111.400    677.808
    9    10    12     1    123.400    694.544
    2     1    13     1    110.700    313.800
    2     1    14     1    110.700    313.800
    2     1    15     1    110.700    313.800
    1     2    16     1    110.700    313.800
    1     2    17     1    110.700    313.800
    3     5    18     1    109.500    292.880
    3     5    19     1    109.500    292.880
    5     6    20     1    110.700    313.800
    5     6    21     1    110.700    313.800
   10    11    22     1    109.500    292.880
   10    11    23     1    109.500    292.880
   10    11    24     1    109.500    292.880
   11    10    12     1    120.400    669.440
   13     1    14     1    107.800    276.144
   20     6    21     1    107.800    276.144
   22    11    24     1    107.800    276.144
    6     5    19     1    110.700    313.800
    3     2    17     1    109.500    292.880
    8     7     9     1    123.400    694.544
   22    11    23     1    107.800    276.144
    4     3     5     1    120.400    669.440
    3     2    16     1    109.500    292.880
   16     2    17     1    107.800    276.144
   14     1    15     1    107.800    276.144
   18     5    19     1    107.800    276.144
   13     1    15     1    107.800    276.144
    7     6    21     1    109.500    292.880
    7     6    20     1    109.500    292.880
   23    11    24     1    107.800    276.144
    6     5    18     1    110.700    313.800

[ dihedrals ]
; IMPROPER DIHEDRAL ANGLES 
;  ai    aj    ak    al funct            c0            c1            c2            c3            c4            c5
     5     3     2     4    4        180.000     43.932     2  
    12    10     9    11    4        180.000     43.932     2  
     9     7     6     8    4        180.000     43.932     2  

[ dihedrals ]
; PROPER DIHEDRAL ANGLES
;  ai    aj    ak    al funct            c0            c1            c2            c3            c4            c5
    7    6    5    3        3       0.941   7.427   0.000  -8.368  -0.000   0.000
   10    9    7    6        3      31.206  -9.768  -21.439  -0.000  -0.000   0.000
   10    9    7    8        3      21.439   0.000  -21.439  -0.000  -0.000   0.000
    5    3    2    1        3       0.818  -7.906   0.602   6.485  -0.000   0.000
   11   10    9    7        3      31.206  -9.768  -21.439  -0.000  -0.000   0.000
    6    5    3    2        3       0.818  -7.906   0.602   6.485  -0.000   0.000
    6    5    3    4        3       0.000   0.000   0.000  -0.000  -0.000   0.000
   17    2    3    5        3       0.575   1.726   0.000  -2.301  -0.000   0.000
   16    2    3    5        3       0.575   1.726   0.000  -2.301  -0.000   0.000
   18    5    3    2        3       0.575   1.726   0.000  -2.301  -0.000   0.000
   19    5    3    2        3       0.575   1.726   0.000  -2.301  -0.000   0.000
   17    2    3    4        3       0.000   0.000   0.000  -0.000  -0.000   0.000
   19    5    3    4        3       0.000   0.000   0.000  -0.000  -0.000   0.000
   18    5    3    4        3       0.000   0.000   0.000  -0.000  -0.000   0.000
   23   11   10   12        3       0.000   0.000   0.000  -0.000  -0.000   0.000
   21    6    7    8        3       0.000   0.000   0.000  -0.000  -0.000   0.000
   22   11   10   12        3       0.000   0.000   0.000  -0.000  -0.000   0.000
   20    6    7    8        3       0.000   0.000   0.000  -0.000  -0.000   0.000
   24   11   10   12        3       0.000   0.000   0.000  -0.000  -0.000   0.000
   16    2    3    4        3       0.000   0.000   0.000  -0.000  -0.000   0.000
   24   11   10    9        3       0.276   0.828   0.000  -1.105  -0.000   0.000
   23   11   10    9        3       0.276   0.828   0.000  -1.105  -0.000   0.000
   20    6    7    9        3       0.276   0.828   0.000  -1.105  -0.000   0.000
   22   11   10    9        3       0.276   0.828   0.000  -1.105  -0.000   0.000
   21    6    7    9        3       0.276   0.828   0.000  -1.105  -0.000   0.000
   15    1    2    3        3      -0.209  -0.628   0.000   0.837  -0.000   0.000
   13    1    2    3        3      -0.209  -0.628   0.000   0.837  -0.000   0.000
   14    1    2    3        3      -0.209  -0.628   0.000   0.837  -0.000   0.000
   18    5    6    7        3      -0.209  -0.628   0.000   0.837  -0.000   0.000
   21    6    5    3        3      -0.209  -0.628   0.000   0.837  -0.000   0.000
   19    5    6    7        3      -0.209  -0.628   0.000   0.837  -0.000   0.000
   20    6    5    3        3      -0.209  -0.628   0.000   0.837  -0.000   0.000
   17    2    1   15        3       0.628   1.883   0.000  -2.510  -0.000   0.000
   16    2    1   14        3       0.628   1.883   0.000  -2.510  -0.000   0.000
   17    2    1   13        3       0.628   1.883   0.000  -2.510  -0.000   0.000
   17    2    1   14        3       0.628   1.883   0.000  -2.510  -0.000   0.000
   16    2    1   15        3       0.628   1.883   0.000  -2.510  -0.000   0.000
   21    6    5   18        3       0.628   1.883   0.000  -2.510  -0.000   0.000
   20    6    5   19        3       0.628   1.883   0.000  -2.510  -0.000   0.000
   21    6    5   19        3       0.628   1.883   0.000  -2.510  -0.000   0.000
   16    2    1   13        3       0.628   1.883   0.000  -2.510  -0.000   0.000
   20    6    5   18        3       0.628   1.883   0.000  -2.510  -0.000   0.000
    8    7    6    5        3       0.000   0.000   0.000  -0.000  -0.000   0.000
    4    3    2    1        3       0.000   0.000   0.000  -0.000  -0.000   0.000
   12   10    9    7        3      21.439   0.000  -21.439  -0.000  -0.000   0.000
    9    7    6    5        3      -1.157  -3.471   0.000   4.628  -0.000   0.000

[ pairs ]
     1     4    1
     1     5    1
     2     6    1
     4     6    1
     3     7    1
     5     8    1
     5     9    1
     6    10    1
     3    13    1
     3    14    1
     8    10    1
     7    11    1
     3    15    1
     7    12    1
     4    16    1
     2    18    1
     5    16    1
     4    17    1
     2    19    1
     5    17    1
     4    18    1
     4    19    1
     3    20    1
     3    21    1
     7    18    1
     7    19    1
     8    20    1
    13    16    1
     9    20    1
     8    21    1
    14    16    1
    13    17    1
     9    21    1
    15    16    1
    14    17    1
     9    22    1
    15    17    1
     9    23    1
     9    24    1
    12    22    1
    12    23    1
    12    24    1
    18    20    1
    19    20    1
    18    21    1
    19    21    1

