LIGPARGEN GENERATED GRO FILE
   47
    1UNK    C00    1   0.100   0.100   0.000
    1UNK    C01    2  -0.053   0.100   0.000
    1UNK    N02    3  -0.108   0.100   0.136
    1UNK    C03    4  -0.095   0.232   0.201
    1UNK    C04    5  -0.248   0.052   0.147
    1UNK    C05    6  -0.341   0.106   0.034
    1UNK    O06    7  -0.478   0.086   0.065
    1UNK    C07    8  -0.525  -0.037   0.034
    1UNK    O08    9  -0.564  -0.069  -0.077
    1UNK    O09   10  -0.532  -0.115   0.143
    1UNK    C0A   11  -0.427  -0.108   0.244
    1UNK    C0B   12  -0.468  -0.018   0.369
    1UNK    C0C   13  -0.595  -0.080   0.434
    1UNK    C0D   14  -0.356  -0.021   0.476
    1UNK    C0E   15  -0.510   0.128   0.341
    1UNK    C0F   16  -0.281  -0.102   0.175
    1UNK    N0G   17  -0.179  -0.189   0.246
    1UNK    C0H   18  -0.217  -0.332   0.242
    1UNK    C0I   19  -0.045  -0.185   0.185
    1UNK    H0J   20   0.137   0.117  -0.101
    1UNK    H0K   21   0.139   0.004   0.034
    1UNK    H0M   22   0.143   0.177   0.064
    1UNK    H0N   23  -0.084   0.009  -0.053
    1UNK    H0O   24  -0.090   0.186  -0.057
    1UNK    H0P   25   0.007   0.272   0.194
    1UNK    H0Q   26  -0.116   0.223   0.308
    1UNK    H0R   27  -0.163   0.306   0.159
    1UNK    H0S   28  -0.281   0.098   0.239
    1UNK    H0T   29  -0.317   0.062  -0.063
    1UNK    H0U   30  -0.329   0.215   0.025
    1UNK    H0V   31  -0.433  -0.209   0.284
    1UNK    H0W   32  -0.577  -0.182   0.468
    1UNK    H0X   33  -0.679  -0.080   0.365
    1UNK    H0Y   34  -0.625  -0.021   0.522
    1UNK    H0Z   35  -0.336  -0.123   0.508
    1UNK    H10   36  -0.386   0.036   0.565
    1UNK    H11   37  -0.263   0.023   0.440
    1UNK    H12   38  -0.591   0.134   0.269
    1UNK    H13   39  -0.429   0.194   0.307
    1UNK    H14   40  -0.547   0.176   0.433
    1UNK    H15   41  -0.290  -0.148   0.075
    1UNK    H16   42  -0.306  -0.354   0.301
    1UNK    H17   43  -0.138  -0.394   0.285
    1UNK    H18   44  -0.234  -0.367   0.139
    1UNK    H19   45   0.003  -0.088   0.195
    1UNK    H1A   46  -0.046  -0.217   0.080
    1UNK    H1B   47   0.023  -0.252   0.240
   1.00000   1.00000   1.00000

