LIGPARGEN GENERATED GRO FILE
   30
    1UNK    C00    1   0.100   0.100   0.000
    1UNK    C01    2  -0.052   0.100   0.000
    1UNK    C02    3  -0.116   0.100   0.141
    1UNK    C03    4  -0.073   0.222   0.223
    1UNK    P04    5  -0.302   0.096   0.119
    1UNK    C05    6  -0.365   0.082   0.292
    1UNK    C06    7  -0.518   0.071   0.291
    1UNK    C07    8  -0.576   0.070   0.433
    1UNK    P08    9  -0.761   0.064   0.426
    1UNK    C09   10  -0.800   0.056   0.605
    1UNK    H0A   11   0.137   0.091  -0.103
    1UNK    H0B   12   0.139   0.016   0.058
    1UNK    H0C   13   0.141   0.193   0.041
    1UNK    H0D   14  -0.086   0.011  -0.056
    1UNK    H0E   15  -0.087   0.187  -0.057
    1UNK    H0F   16  -0.086   0.009   0.194
    1UNK    H0G   17  -0.104   0.316   0.175
    1UNK    H0H   18   0.035   0.224   0.237
    1UNK    H0I   19  -0.117   0.220   0.324
    1UNK    H0J   20  -0.314  -0.041   0.083
    1UNK    H0K   21  -0.336   0.172   0.348
    1UNK    H0M   22  -0.320  -0.005   0.342
    1UNK    H0N   23  -0.548  -0.021   0.238
    1UNK    H0O   24  -0.560   0.155   0.235
    1UNK    H0P   25  -0.546   0.161   0.486
    1UNK    H0Q   26  -0.539  -0.016   0.489
    1UNK    H0R   27  -0.776  -0.073   0.395
    1UNK    H0S   28  -0.776   0.151   0.654
    1UNK    H0T   29  -0.744  -0.024   0.654
    1UNK    H0U   30  -0.907   0.037   0.619
   1.00000   1.00000   1.00000

