
;
; GENERATED BY LigParGen Server
; Jorgensen Lab @ Yale University 
;
[ atomtypes ]
  opls_818  H818     1.0080     0.000    A    2.50000E-01   1.25520E-01
  opls_810  C810    12.0110     0.000    A    3.45000E-01   3.47272E-01
  opls_809  N809    14.0070     0.000    A    3.20000E-01   7.11280E-01
  opls_824  H824     1.0080     0.000    A    2.50000E-01   1.25520E-01
  opls_806  C806    12.0110     0.000    A    3.45000E-01   3.47272E-01
  opls_805  C805    12.0110     0.000    A    3.50000E-01   2.76144E-01
  opls_836  H836     1.0080     0.000    A    2.50000E-01   1.25520E-01
  opls_834  H834     1.0080     0.000    A    2.50000E-01   1.25520E-01
  opls_828  H828     1.0080     0.000    A    2.50000E-01   1.25520E-01
  opls_835  H835     1.0080     0.000    A    2.50000E-01   1.25520E-01
  opls_832  H832     1.0080     0.000    A    2.50000E-01   1.25520E-01
  opls_802  C802    12.0110     0.000    A    3.50000E-01   2.76144E-01
  opls_827  H827     1.0080     0.000    A    2.50000E-01   1.25520E-01
  opls_801  C801    12.0110     0.000    A    3.50000E-01   2.76144E-01
  opls_822  H822     1.0080     0.000    A    2.50000E-01   1.25520E-01
  opls_803  C803    12.0110     0.000    A    3.50000E-01   2.76144E-01
  opls_825  H825     1.0080     0.000    A    2.50000E-01   1.25520E-01
  opls_826  H826     1.0080     0.000    A    2.50000E-01   1.25520E-01
  opls_830  H830     1.0080     0.000    A    2.50000E-01   1.25520E-01
  opls_808  C808    12.0110     0.000    A    3.30000E-01   2.76144E-01
  opls_821  H821     1.0080     0.000    A    2.50000E-01   1.25520E-01
  opls_820  H820     1.0080     0.000    A    2.50000E-01   1.25520E-01
  opls_812  C812    12.0110     0.000    A    3.55000E-01   2.92880E-01
  opls_829  H829     1.0080     0.000    A    2.50000E-01   1.25520E-01
  opls_831  H831     1.0080     0.000    A    2.50000E-01   1.25520E-01
  opls_816  H816     1.0080     0.000    A    2.50000E-01   1.25520E-01
  opls_800  C800    12.0110     0.000    A    3.50000E-01   2.76144E-01
  opls_814  C814    12.0110     0.000    A    3.45000E-01   3.47272E-01
  opls_811  C811    12.0110     0.000    A    3.50000E-01   2.76144E-01
  opls_823  H823     1.0080     0.000    A    2.50000E-01   1.25520E-01
  opls_815  C815    12.0110     0.000    A    3.45000E-01   3.47272E-01
  opls_813  O813    15.9990     0.000    A    2.96000E-01   8.78640E-01
  opls_819  H819     1.0080     0.000    A    2.50000E-01   1.25520E-01
  opls_804  C804    12.0110     0.000    A    3.50000E-01   2.76144E-01
  opls_833  H833     1.0080     0.000    A    2.50000E-01   1.25520E-01
  opls_817  H817     1.0080     0.000    A    2.50000E-01   1.25520E-01
  opls_807  C807    12.0110     0.000    A    3.50000E-01   2.76144E-01
[ moleculetype ]
; Name               nrexcl
UNK                   3
[ atoms ]
;   nr       type  resnr residue  atom   cgnr     charge       mass  
     1   opls_800      1    UNK   C00      1    -0.2389    12.0110 
     2   opls_801      1    UNK   C01      1    -0.1792    12.0110 
     3   opls_802      1    UNK   C02      1    -0.1658    12.0110 
     4   opls_803      1    UNK   C03      1    -0.1156    12.0110 
     5   opls_804      1    UNK   C04      1    -0.1791    12.0110 
     6   opls_805      1    UNK   C05      1    -0.1588    12.0110 
     7   opls_806      1    UNK   C06      1    -0.0812    12.0110 
     8   opls_807      1    UNK   C07      1    -0.0557    12.0110 
     9   opls_808      1    UNK   C08      1     0.1635    12.0110 
    10   opls_809      1    UNK   N09      1     -0.394    14.0070 
    11   opls_810      1    UNK   C0A      1    -0.1218    12.0110 
    12   opls_811      1    UNK   C0B      1    -0.2473    12.0110 
    13   opls_812      1    UNK   C0C      1     0.3132    12.0110 
    14   opls_813      1    UNK   O0D      1    -0.4384    15.9990 
    15   opls_814      1    UNK   C0E      1     -0.189    12.0110 
    16   opls_815      1    UNK   C0F      1    -0.1152    12.0110 
    17   opls_816      1    UNK   H0G      1     0.0817     1.0080 
    18   opls_817      1    UNK   H0H      1     0.0817     1.0080 
    19   opls_818      1    UNK   H0I      1     0.0817     1.0080 
    20   opls_819      1    UNK   H0J      1     0.0878     1.0080 
    21   opls_820      1    UNK   H0K      1     0.0878     1.0080 
    22   opls_821      1    UNK   H0M      1     0.0938     1.0080 
    23   opls_822      1    UNK   H0N      1     0.0938     1.0080 
    24   opls_823      1    UNK   H0O      1      0.101     1.0080 
    25   opls_824      1    UNK   H0P      1      0.105     1.0080 
    26   opls_825      1    UNK   H0Q      1      0.105     1.0080 
    27   opls_826      1    UNK   H0R      1      0.098     1.0080 
    28   opls_827      1    UNK   H0S      1      0.098     1.0080 
    29   opls_828      1    UNK   H0T      1     0.1274     1.0080 
    30   opls_829      1    UNK   H0U      1     0.1274     1.0080 
    31   opls_830      1    UNK   H0V      1     0.1255     1.0080 
    32   opls_831      1    UNK   H0W      1     0.1221     1.0080 
    33   opls_832      1    UNK   H0X      2     0.1221     1.0080 
    34   opls_833      1    UNK   H0Y      2     0.1075     1.0080 
    35   opls_834      1    UNK   H0Z      2     0.1106     1.0080 
    36   opls_835      1    UNK   H10      2     0.1106     1.0080 
    37   opls_836      1    UNK   H11      2     0.1346     1.0080 
[ bonds ]
    2     1     1      0.1529 224262.400
    3     2     1      0.1529 224262.400
    4     3     1      0.1529 224262.400
    5     4     1      0.1529 224262.400
    6     5     1      0.1529 224262.400
    7     6     1      0.1510 234304.000
    8     7     1      0.1510 234304.000
    9     8     1      0.1470 326352.000
   10     9     1      0.1157 543920.000
   11     7     1      0.1520 217568.000
   12    11     1      0.1510 234304.000
   13    12     1      0.1522 265265.600
   14    13     1      0.1229 476976.000
   15    11     1      0.1520 217568.000
   16     4     1      0.1510 234304.000
   17     1     1      0.1090 284512.000
   18     1     1      0.1090 284512.000
   19     1     1      0.1090 284512.000
   20     2     1      0.1090 284512.000
   21     2     1      0.1090 284512.000
   22     3     1      0.1090 284512.000
   23     3     1      0.1090 284512.000
   24     4     1      0.1090 284512.000
   25     5     1      0.1090 284512.000
   26     5     1      0.1090 284512.000
   27     6     1      0.1090 284512.000
   28     6     1      0.1090 284512.000
   29     8     1      0.1090 284512.000
   30     8     1      0.1090 284512.000
   31    11     1      0.1088 284512.000
   32    12     1      0.1090 284512.000
   33    12     1      0.1090 284512.000
   34    13     1      0.1090 284512.000
   35    15     1      0.1088 284512.000
   36    15     1      0.1088 284512.000
   37    16     1      0.1088 284512.000
   16     7     1      0.1520 217568.000
   16    15     1      0.1520 217568.000

[ angles ]
;  ai    aj    ak funct            c0            c1            c2            c3 
    1     2     3     1    112.700    488.273
    2     3     4     1    112.700    488.273
    3     4     5     1    112.700    488.273
    4     5     6     1    112.700    488.273
    5     6     7     1    112.700    488.273
    6     7     8     1    114.300    292.880
    7     8     9     1    112.700    488.273
    8     9    10     1    180.000   1255.200
    6     7    11     1    117.200    313.800
    7    11    12     1    117.200    313.800
   11    12    13     1    111.100    527.184
   12    13    14     1    120.400    669.440
    7    11    15     1     83.000    251.040
    3     4    16     1    112.700    488.273
    2     1    17     1    110.700    313.800
    2     1    18     1    110.700    313.800
    2     1    19     1    110.700    313.800
    1     2    20     1    110.700    313.800
    1     2    21     1    110.700    313.800
    2     3    22     1    110.700    313.800
    2     3    23     1    110.700    313.800
    3     4    24     1    110.700    313.800
    4     5    25     1    110.700    313.800
    4     5    26     1    110.700    313.800
    5     6    27     1    110.700    313.800
    5     6    28     1    110.700    313.800
    7     8    29     1    110.700    313.800
    7     8    30     1    110.700    313.800
    7    11    31     1    117.200    313.800
   11    12    32     1    110.700    313.800
   11    12    33     1    110.700    313.800
   12    13    34     1    115.000    292.880
   11    15    35     1    117.200    313.800
   11    15    36     1    117.200    313.800
    4    16    37     1    114.300    292.880
    9     8    30     1    108.500    292.880
    8     7    11     1    117.200    313.800
   17     1    19     1    107.800    276.144
    3     2    20     1    110.700    313.800
   35    15    36     1    114.300    292.880
   11    15    16     1     83.000    251.040
   16    15    36     1    117.200    313.800
   13    12    33     1    109.500    292.880
    3     2    21     1    110.700    313.800
   17     1    18     1    107.800    276.144
    7    16    15     1     83.000    251.040
   27     6    28     1    107.800    276.144
    8     7    16     1    117.200    313.800
    5     4    24     1    110.700    313.800
   15    16    37     1    117.200    313.800
   12    11    31     1    114.300    292.880
    4     3    22     1    110.700    313.800
    7     6    28     1    110.700    313.800
    7    16    37     1    117.200    313.800
    9     8    29     1    108.500    292.880
    4     3    23     1    110.700    313.800
    5     4    16     1    112.700    488.273
   14    13    34     1    123.000    292.880
    4    16     7     1    117.200    313.800
   13    12    32     1    109.500    292.880
   18     1    19     1    107.800    276.144
    7     6    27     1    110.700    313.800
   25     5    26     1    107.800    276.144
   22     3    23     1    107.800    276.144
    6     5    26     1    110.700    313.800
   20     2    21     1    107.800    276.144
    4    16    15     1    117.200    313.800
   32    12    33     1    107.800    276.144
    6     5    25     1    110.700    313.800
   11     7    16     1     83.000    251.040
   12    11    15     1    117.200    313.800
   16    15    35     1    117.200    313.800
   29     8    30     1    107.800    276.144
   16     4    24     1    110.700    313.800
   15    11    31     1    117.200    313.800
    6     7    16     1    117.200    313.800

[ dihedrals ]
; IMPROPER DIHEDRAL ANGLES 
;  ai    aj    ak    al funct            c0            c1            c2            c3            c4            c5
    34    13    12    14    4        180.000     43.932     2  

[ dihedrals ]
; PROPER DIHEDRAL ANGLES
;  ai    aj    ak    al funct            c0            c1            c2            c3            c4            c5
   13   12   11    7        3      -4.960   6.286   1.310  -2.636  -0.000   0.000
    4    3    2    1        3       2.301  -1.464   0.837  -1.674  -0.000   0.000
    5    4    3    2        3       2.301  -1.464   0.837  -1.674  -0.000   0.000
    6    5    4    3        3       2.301  -1.464   0.837  -1.674  -0.000   0.000
    8    7    6    5        3       2.301  -1.464   0.837  -1.674  -0.000   0.000
    8    7   16    4        3       0.000   0.000   0.000  -0.000  -0.000   0.000
   12   11    7    8        3       0.000   0.000   0.000  -0.000  -0.000   0.000
    6    7   16    4        3       0.000   0.000   0.000  -0.000  -0.000   0.000
   12   11    7    6        3       0.000   0.000   0.000  -0.000  -0.000   0.000
   16    4    3    2        3       2.301  -1.464   0.837  -1.674  -0.000   0.000
   16    4    5    6        3       2.301  -1.464   0.837  -1.674  -0.000   0.000
    7    6    5    4        3       2.301  -1.464   0.837  -1.674  -0.000   0.000
   15   11   12   13        3      -4.960   6.286   1.310  -2.636  -0.000   0.000
   16    7    6    5        3       0.000   0.000   0.000  -0.000  -0.000   0.000
   11    7    6    5        3       0.000   0.000   0.000  -0.000  -0.000   0.000
   15   16    4    5        3       0.000   0.000   0.000  -0.000  -0.000   0.000
    7   16    4    5        3       0.000   0.000   0.000  -0.000  -0.000   0.000
   15   16    4    3        3       0.000   0.000   0.000  -0.000  -0.000   0.000
    7   16    4    3        3       0.000   0.000   0.000  -0.000  -0.000   0.000
   16    7    8    9        3       0.000   0.000   0.000  -0.000  -0.000   0.000
   11    7    8    9        3       0.000   0.000   0.000  -0.000  -0.000   0.000
   16    7   11   12        3       0.000   0.000   0.000  -0.000  -0.000   0.000
   16   15   11   12        3       0.000   0.000   0.000  -0.000  -0.000   0.000
   15   16    7    6        3       0.000   0.000   0.000  -0.000  -0.000   0.000
   15   11    7    6        3       0.000   0.000   0.000  -0.000  -0.000   0.000
   15   16    7    8        3       0.000   0.000   0.000  -0.000  -0.000   0.000
   15   11    7    8        3       0.000   0.000   0.000  -0.000  -0.000   0.000
   11    7   16    4        3       0.000   0.000   0.000  -0.000  -0.000   0.000
   11   15   16    4        3       0.000   0.000   0.000  -0.000  -0.000   0.000
    9    8    7    6        3      -2.720   0.000   2.720  -0.000  -0.000   0.000
   34   13   12   11        3       0.000   0.000   0.000  -0.000  -0.000   0.000
   34   13   12   32        3       0.753   2.259   0.000  -3.012  -0.000   0.000
   34   13   12   33        3       0.753   2.259   0.000  -3.012  -0.000   0.000
   32   12   13   14        3       0.000   0.000   0.000  -0.000  -0.000   0.000
   33   12   13   14        3       0.000   0.000   0.000  -0.000  -0.000   0.000
   20    2    3    4        3       0.628   1.883   0.000  -2.510  -0.000   0.000
   23    3    2    1        3       0.628   1.883   0.000  -2.510  -0.000   0.000
   24    4    3    2        3       0.628   1.883   0.000  -2.510  -0.000   0.000
   23    3    4    5        3       0.628   1.883   0.000  -2.510  -0.000   0.000
   21    2    3    4        3       0.628   1.883   0.000  -2.510  -0.000   0.000
   24    4    5    6        3       0.628   1.883   0.000  -2.510  -0.000   0.000
   26    5    4    3        3       0.628   1.883   0.000  -2.510  -0.000   0.000
   19    1    2    3        3       0.628   1.883   0.000  -2.510  -0.000   0.000
   27    6    5    4        3       0.628   1.883   0.000  -2.510  -0.000   0.000
   25    5    4    3        3       0.628   1.883   0.000  -2.510  -0.000   0.000
   22    3    4    5        3       0.628   1.883   0.000  -2.510  -0.000   0.000
   22    3    2    1        3       0.628   1.883   0.000  -2.510  -0.000   0.000
   17    1    2    3        3       0.628   1.883   0.000  -2.510  -0.000   0.000
   18    1    2    3        3       0.628   1.883   0.000  -2.510  -0.000   0.000
   28    6    5    4        3       0.628   1.883   0.000  -2.510  -0.000   0.000
   25    5    4   16        3       0.628   1.883   0.000  -2.510  -0.000   0.000
   26    5    4   16        3       0.628   1.883   0.000  -2.510  -0.000   0.000
   22    3    4   16        3       0.628   1.883   0.000  -2.510  -0.000   0.000
   25    5    6    7        3       0.628   1.883   0.000  -2.510  -0.000   0.000
   26    5    6    7        3       0.628   1.883   0.000  -2.510  -0.000   0.000
   23    3    4   16        3       0.628   1.883   0.000  -2.510  -0.000   0.000
   22    3    2   20        3       0.628   1.883   0.000  -2.510  -0.000   0.000
   22    3    2   21        3       0.628   1.883   0.000  -2.510  -0.000   0.000
   23    3    2   21        3       0.628   1.883   0.000  -2.510  -0.000   0.000
   28    6    5   25        3       0.628   1.883   0.000  -2.510  -0.000   0.000
   27    6    5   26        3       0.628   1.883   0.000  -2.510  -0.000   0.000
   20    2    1   17        3       0.628   1.883   0.000  -2.510  -0.000   0.000
   21    2    1   19        3       0.628   1.883   0.000  -2.510  -0.000   0.000
   24    4    3   22        3       0.628   1.883   0.000  -2.510  -0.000   0.000
   21    2    1   17        3       0.628   1.883   0.000  -2.510  -0.000   0.000
   20    2    1   18        3       0.628   1.883   0.000  -2.510  -0.000   0.000
   26    5    4   24        3       0.628   1.883   0.000  -2.510  -0.000   0.000
   23    3    2   20        3       0.628   1.883   0.000  -2.510  -0.000   0.000
   28    6    5   26        3       0.628   1.883   0.000  -2.510  -0.000   0.000
   27    6    5   25        3       0.628   1.883   0.000  -2.510  -0.000   0.000
   21    2    1   18        3       0.628   1.883   0.000  -2.510  -0.000   0.000
   24    4    3   23        3       0.628   1.883   0.000  -2.510  -0.000   0.000
   20    2    1   19        3       0.628   1.883   0.000  -2.510  -0.000   0.000
   25    5    4   24        3       0.628   1.883   0.000  -2.510  -0.000   0.000
   28    6    7    8        3       0.628   1.883   0.000  -2.510  -0.000   0.000
   29    8    7    6        3       0.628   1.883   0.000  -2.510  -0.000   0.000
   27    6    7    8        3       0.628   1.883   0.000  -2.510  -0.000   0.000
   30    8    7    6        3       0.628   1.883   0.000  -2.510  -0.000   0.000
   28    6    7   16        3       0.628   1.883   0.000  -2.510  -0.000   0.000
   24    4   16   15        3       0.628   1.883   0.000  -2.510  -0.000   0.000
   24    4   16    7        3       0.628   1.883   0.000  -2.510  -0.000   0.000
   30    8    7   16        3       0.628   1.883   0.000  -2.510  -0.000   0.000
   30    8    7   11        3       0.628   1.883   0.000  -2.510  -0.000   0.000
   28    6    7   11        3       0.628   1.883   0.000  -2.510  -0.000   0.000
   29    8    7   11        3       0.628   1.883   0.000  -2.510  -0.000   0.000
   32   12   11   15        3       0.628   1.883   0.000  -2.510  -0.000   0.000
   27    6    7   16        3       0.628   1.883   0.000  -2.510  -0.000   0.000
   29    8    7   16        3       0.628   1.883   0.000  -2.510  -0.000   0.000
   33   12   11   15        3       0.628   1.883   0.000  -2.510  -0.000   0.000
   27    6    7   11        3       0.628   1.883   0.000  -2.510  -0.000   0.000
   32   12   11    7        3       0.628   1.883   0.000  -2.510  -0.000   0.000
   33   12   11    7        3       0.628   1.883   0.000  -2.510  -0.000   0.000
   33   12   11   31        3       0.628   1.883   0.000  -2.510  -0.000   0.000
   32   12   11   31        3       0.628   1.883   0.000  -2.510  -0.000   0.000
   30    8    9   10        3       0.000   0.000   0.000  -0.000  -0.000   0.000
   29    8    9   10        3       0.000   0.000   0.000  -0.000  -0.000   0.000
   31   11   12   13        3      -0.209  -0.628   0.000   0.837  -0.000   0.000
   37   16    4    5        3       0.628   1.883   0.000  -2.510  -0.000   0.000
   37   16    4    3        3       0.628   1.883   0.000  -2.510  -0.000   0.000
   37   16    4   24        3       0.628   1.883   0.000  -2.510  -0.000   0.000
   35   15   16    4        3       0.000   0.000   0.000  -0.000  -0.000   0.000
   36   15   16    4        3       0.000   0.000   0.000  -0.000  -0.000   0.000
   36   15   11   12        3       0.000   0.000   0.000  -0.000  -0.000   0.000
   37   16    7    6        3       0.000   0.000   0.000  -0.000  -0.000   0.000
   37   16    7    8        3       0.000   0.000   0.000  -0.000  -0.000   0.000
   31   11    7    6        3       0.000   0.000   0.000  -0.000  -0.000   0.000
   35   15   11   12        3       0.000   0.000   0.000  -0.000  -0.000   0.000
   31   11    7    8        3       0.000   0.000   0.000  -0.000  -0.000   0.000
   37   16   15   11        3       0.000   0.000   0.000  -0.000  -0.000   0.000
   35   15   16    7        3       0.000   0.000   0.000  -0.000  -0.000   0.000
   36   15   16    7        3       0.000   0.000   0.000  -0.000  -0.000   0.000
   31   11   15   16        3       0.000   0.000   0.000  -0.000  -0.000   0.000
   35   15   11    7        3       0.000   0.000   0.000  -0.000  -0.000   0.000
   37   16    7   11        3       0.000   0.000   0.000  -0.000  -0.000   0.000
   36   15   11    7        3       0.000   0.000   0.000  -0.000  -0.000   0.000
   31   11    7   16        3       0.000   0.000   0.000  -0.000  -0.000   0.000
   36   15   11   31        3       0.000   0.000   0.000  -0.000  -0.000   0.000
   37   16   15   35        3       0.000   0.000   0.000  -0.000  -0.000   0.000
   35   15   11   31        3       0.000   0.000   0.000  -0.000  -0.000   0.000
   37   16   15   36        3       0.000   0.000   0.000  -0.000  -0.000   0.000
   10    9    8    7        3       0.000   0.000   0.000  -0.000  -0.000   0.000
   14   13   12   11        3       0.000   0.000   0.000  -0.000  -0.000   0.000

[ pairs ]
     1     4    1
     2     5    1
     3     6    1
     3     7    1
     4     8    1
     5     8    1
     6     9    1
     4    11    1
     5    11    1
     7    10    1
     6    12    1
     3    15    1
     2    16    1
     9    11    1
     8    12    1
     7    13    1
     5    15    1
     3    17    1
     6    15    1
     3    18    1
     3    19    1
     8    15    1
     1    22    1
     4    20    1
     1    23    1
    11    14    1
     9    16    1
     4    21    1
     2    24    1
     5    22    1
    13    15    1
    12    16    1
     5    23    1
     3    25    1
     3    26    1
     6    24    1
     7    24    1
     4    27    1
     7    25    1
     4    28    1
     7    26    1
     8    27    1
     6    29    1
     8    28    1
     6    30    1
    17    20    1
     6    31    1
    18    20    1
    17    21    1
    16    22    1
    11    27    1
    19    20    1
    18    21    1
    16    23    1
    15    24    1
    11    28    1
    10    29    1
     8    31    1
     7    32    1
     4    35    1
    19    21    1
    11    29    1
    10    30    1
     7    33    1
     4    36    1
     3    37    1
    16    25    1
    11    30    1
    20    22    1
    16    26    1
     7    35    1
     5    37    1
    21    22    1
    20    23    1
    16    27    1
     7    36    1
     6    37    1
    21    23    1
    16    28    1
    13    31    1
    16    29    1
    11    34    1
     8    37    1
    22    24    1
    16    30    1
    14    32    1
    23    24    1
    16    31    1
    15    32    1
    14    33    1
    12    35    1
    15    33    1
    12    36    1
    11    37    1
    24    25    1
    24    26    1
    25    27    1
    26    27    1
    25    28    1
    26    28    1
    24    37    1
    31    32    1
    31    33    1
    32    34    1
    31    35    1
    33    34    1
    31    36    1
    35    37    1
    36    37    1

