LIGPARGEN GENERATED GRO FILE
   37
    1UNK    C00    1   0.100   0.100   0.000
    1UNK    C01    2  -0.052   0.100   0.000
    1UNK    C02    3  -0.112   0.100   0.142
    1UNK    C03    4  -0.264   0.114   0.138
    1UNK    C04    5  -0.343   0.003   0.071
    1UNK    C05    6  -0.486   0.036   0.115
    1UNK    C06    7  -0.474   0.058   0.267
    1UNK    C07    8  -0.527  -0.063   0.347
    1UNK    C08    9  -0.465  -0.191   0.315
    1UNK    N09   10  -0.420  -0.295   0.290
    1UNK    C0A   11  -0.521   0.187   0.346
    1UNK    C0B   12  -0.654   0.255   0.314
    1UNK    C0C   13  -0.676   0.383   0.390
    1UNK    O0D   14  -0.599   0.428   0.474
    1UNK    C0E   15  -0.393   0.259   0.301
    1UNK    C0F   16  -0.328   0.120   0.277
    1UNK    H0G   17   0.137   0.100  -0.103
    1UNK    H0H   18   0.139   0.011   0.050
    1UNK    H0I   19   0.140   0.189   0.050
    1UNK    H0J   20  -0.087   0.012  -0.055
    1UNK    H0K   21  -0.087   0.189  -0.055
    1UNK    H0M   22  -0.070   0.185   0.197
    1UNK    H0N   23  -0.082   0.009   0.195
    1UNK    H0O   24  -0.285   0.207   0.082
    1UNK    H0P   25  -0.310  -0.095   0.109
    1UNK    H0Q   26  -0.332   0.003  -0.038
    1UNK    H0R   27  -0.555  -0.045   0.089
    1UNK    H0S   28  -0.521   0.127   0.065
    1UNK    H0T   29  -0.635  -0.071   0.327
    1UNK    H0U   30  -0.518  -0.046   0.455
    1UNK    H0V   31  -0.517   0.171   0.455
    1UNK    H0W   32  -0.736   0.187   0.341
    1UNK    H0X   33  -0.662   0.277   0.207
    1UNK    H0Y   34  -0.770   0.436   0.366
    1UNK    H0Z   35  -0.345   0.321   0.376
    1UNK    H10   36  -0.409   0.320   0.211
    1UNK    H11   37  -0.270   0.081   0.361
   1.00000   1.00000   1.00000

