LIGPARGEN GENERATED GRO FILE
   35
    1UNK    C00    1   0.100   0.100   0.000
    1UNK    C01    2  -0.052   0.100   0.000
    1UNK    C02    3  -0.110   0.100   0.142
    1UNK    C03    4  -0.266   0.094   0.150
    1UNK    C04    5  -0.313  -0.039   0.088
    1UNK    C05    6  -0.301   0.096   0.298
    1UNK    O06    7  -0.340  -0.002   0.361
    1UNK    C07    8  -0.328   0.220   0.081
    1UNK    N08    9  -0.473   0.246   0.089
    1UNK    C09   10  -0.552   0.153   0.005
    1UNK    C0A   11  -0.558   0.262  -0.105
    1UNK    C0B   12  -0.514   0.355   0.001
    1UNK    C0C   13  -0.595   0.472   0.046
    1UNK    C0D   14  -0.456   0.491  -0.009
    1UNK    H0E   15   0.137   0.100  -0.103
    1UNK    H0F   16   0.139   0.011   0.050
    1UNK    H0G   17   0.139   0.189   0.050
    1UNK    H0H   18  -0.087   0.012  -0.055
    1UNK    H0I   19  -0.086   0.189  -0.055
    1UNK    H0J   20  -0.075   0.190   0.195
    1UNK    H0K   21  -0.068   0.015   0.197
    1UNK    H0M   22  -0.250  -0.122   0.120
    1UNK    H0N   23  -0.309  -0.035  -0.022
    1UNK    H0O   24  -0.415  -0.065   0.119
    1UNK    H0P   25  -0.280   0.190   0.351
    1UNK    H0Q   26  -0.296   0.222  -0.024
    1UNK    H0R   27  -0.280   0.307   0.129
    1UNK    H0S   28  -0.650   0.130   0.049
    1UNK    H0T   29  -0.508   0.060  -0.030
    1UNK    H0U   30  -0.656   0.276  -0.150
    1UNK    H0V   31  -0.484   0.248  -0.185
    1UNK    H0W   32  -0.611   0.486   0.152
    1UNK    H0X   33  -0.678   0.504  -0.016
    1UNK    H0Y   34  -0.379   0.521   0.062
    1UNK    H0Z   35  -0.446   0.535  -0.107
   1.00000   1.00000   1.00000

