
;
; GENERATED BY LigParGen Server
; Jorgensen Lab @ Yale University 
;
[ atomtypes ]
  opls_818  H818     1.0080     0.000    A    2.50000E-01   1.25520E-01
  opls_810  C810    12.0110     0.000    A    3.45000E-01   3.47272E-01
  opls_824  H824     1.0080     0.000    A    2.50000E-01   1.25520E-01
  opls_834  H834     1.0080     0.000    A    2.50000E-01   1.25520E-01
  opls_828  H828     1.0080     0.000    A    2.50000E-01   1.25520E-01
  opls_832  H832     1.0080     0.000    A    2.50000E-01   1.25520E-01
  opls_802  C802    12.0110     0.000    A    3.50000E-01   2.76144E-01
  opls_815  H815     1.0080     0.000    A    2.50000E-01   1.25520E-01
  opls_801  C801    12.0110     0.000    A    3.50000E-01   2.76144E-01
  opls_830  H830     1.0080     0.000    A    2.50000E-01   1.25520E-01
  opls_822  H822     1.0080     0.000    A    2.50000E-01   1.25520E-01
  opls_803  C803    12.0110     0.000    A    3.50000E-01   2.76144E-01
  opls_825  H825     1.0080     0.000    A    2.50000E-01   1.25520E-01
  opls_826  H826     1.0080     0.000    A    2.50000E-01   1.25520E-01
  opls_814  H814     1.0080     0.000    A    2.50000E-01   1.25520E-01
  opls_821  H821     1.0080     0.000    A    2.50000E-01   1.25520E-01
  opls_820  H820     1.0080     0.000    A    2.50000E-01   1.25520E-01
  opls_829  H829     1.0080     0.000    A    2.50000E-01   1.25520E-01
  opls_831  H831     1.0080     0.000    A    2.50000E-01   1.25520E-01
  opls_805  C805    12.0110     0.000    A    3.55000E-01   2.92880E-01
  opls_816  H816     1.0080     0.000    A    2.50000E-01   1.25520E-01
  opls_800  C800    12.0110     0.000    A    3.50000E-01   2.76144E-01
  opls_813  C813    12.0110     0.000    A    3.45000E-01   3.47272E-01
  opls_823  H823     1.0080     0.000    A    2.50000E-01   1.25520E-01
  opls_833  H833     1.0080     0.000    A    2.50000E-01   1.25520E-01
  opls_811  C811    12.0110     0.000    A    3.45000E-01   3.47272E-01
  opls_819  H819     1.0080     0.000    A    2.50000E-01   1.25520E-01
  opls_804  C804    12.0110     0.000    A    3.50000E-01   2.76144E-01
  opls_827  H827     1.0080     0.000    A    2.50000E-01   1.25520E-01
  opls_806  O806    15.9990     0.000    A    2.96000E-01   8.78640E-01
  opls_817  H817     1.0080     0.000    A    2.50000E-01   1.25520E-01
  opls_809  C809    12.0110     0.000    A    3.45000E-01   3.47272E-01
  opls_808  N808    14.0070     0.000    A    3.25000E-01   7.11280E-01
  opls_812  C812    12.0110     0.000    A    3.45000E-01   3.47272E-01
  opls_807  C807    12.0110     0.000    A    3.50000E-01   2.76144E-01
[ moleculetype ]
; Name               nrexcl
UNK                   3
[ atoms ]
;   nr       type  resnr residue  atom   cgnr     charge       mass  
     1   opls_800      1    UNK   C00      1    -0.2406    12.0110 
     2   opls_801      1    UNK   C01      1    -0.1772    12.0110 
     3   opls_802      1    UNK   C02      1    -0.1653    12.0110 
     4   opls_803      1    UNK   C03      1    -0.1112    12.0110 
     5   opls_804      1    UNK   C04      1    -0.2265    12.0110 
     6   opls_805      1    UNK   C05      1     0.3376    12.0110 
     7   opls_806      1    UNK   O06      1    -0.4448    15.9990 
     8   opls_807      1    UNK   C07      1    -0.0235    12.0110 
     9   opls_808      1    UNK   N08      1    -0.4013    14.0070 
    10   opls_809      1    UNK   C09      1    -0.0653    12.0110 
    11   opls_810      1    UNK   C0A      1      -0.21    12.0110 
    12   opls_811      1    UNK   C0B      1    -0.0124    12.0110 
    13   opls_812      1    UNK   C0C      1    -0.2154    12.0110 
    14   opls_813      1    UNK   C0D      1    -0.2307    12.0110 
    15   opls_814      1    UNK   H0E      1     0.0839     1.0080 
    16   opls_815      1    UNK   H0F      1     0.0839     1.0080 
    17   opls_816      1    UNK   H0G      1     0.0839     1.0080 
    18   opls_817      1    UNK   H0H      1     0.0917     1.0080 
    19   opls_818      1    UNK   H0I      1     0.0917     1.0080 
    20   opls_819      1    UNK   H0J      1      0.096     1.0080 
    21   opls_820      1    UNK   H0K      1      0.096     1.0080 
    22   opls_821      1    UNK   H0M      1     0.0933     1.0080 
    23   opls_822      1    UNK   H0N      1     0.0933     1.0080 
    24   opls_823      1    UNK   H0O      1     0.0933     1.0080 
    25   opls_824      1    UNK   H0P      1     0.1104     1.0080 
    26   opls_825      1    UNK   H0Q      1     0.0901     1.0080 
    27   opls_826      1    UNK   H0R      1     0.0901     1.0080 
    28   opls_827      1    UNK   H0S      1     0.1186     1.0080 
    29   opls_828      1    UNK   H0T      1     0.1186     1.0080 
    30   opls_829      1    UNK   H0U      1     0.1102     1.0080 
    31   opls_830      1    UNK   H0V      1     0.1102     1.0080 
    32   opls_831      1    UNK   H0W      1     0.1348     1.0080 
    33   opls_832      1    UNK   H0X      2     0.1348     1.0080 
    34   opls_833      1    UNK   H0Y      2     0.1308     1.0080 
    35   opls_834      1    UNK   H0Z      2     0.1308     1.0080 
[ bonds ]
    2     1     1      0.1529 224262.400
    3     2     1      0.1529 224262.400
    4     3     1      0.1529 224262.400
    5     4     1      0.1529 224262.400
    6     4     1      0.1522 265265.600
    7     6     1      0.1229 476976.000
    8     4     1      0.1529 224262.400
    9     8     1      0.1449 282001.600
   10     9     1      0.1449 282001.600
   11    10     1      0.1520 217568.000
   12     9     1      0.1449 282001.600
   13    12     1      0.1520 217568.000
   14    12     1      0.1520 217568.000
   15     1     1      0.1090 284512.000
   16     1     1      0.1090 284512.000
   17     1     1      0.1090 284512.000
   18     2     1      0.1090 284512.000
   19     2     1      0.1090 284512.000
   20     3     1      0.1090 284512.000
   21     3     1      0.1090 284512.000
   22     5     1      0.1090 284512.000
   23     5     1      0.1090 284512.000
   24     5     1      0.1090 284512.000
   25     6     1      0.1090 284512.000
   26     8     1      0.1090 284512.000
   27     8     1      0.1090 284512.000
   28    10     1      0.1088 284512.000
   29    10     1      0.1088 284512.000
   30    11     1      0.1088 284512.000
   31    11     1      0.1088 284512.000
   32    13     1      0.1088 284512.000
   33    13     1      0.1088 284512.000
   34    14     1      0.1088 284512.000
   35    14     1      0.1088 284512.000
   12    11     1      0.1520 217568.000
   14    13     1      0.1520 217568.000

[ angles ]
;  ai    aj    ak funct            c0            c1            c2            c3 
    1     2     3     1    112.700    488.273
    2     3     4     1    112.700    488.273
    3     4     5     1    112.700    488.273
    3     4     6     1    111.100    527.184
    4     6     7     1    120.400    669.440
    3     4     8     1    112.700    488.273
    4     8     9     1    110.000    669.440
    8     9    10     1    126.000    418.400
    9    10    11     1     89.000    669.440
    8     9    12     1    126.000    418.400
    9    12    13     1     89.000    669.440
    9    12    14     1     89.000    669.440
    2     1    15     1    110.700    313.800
    2     1    16     1    110.700    313.800
    2     1    17     1    110.700    313.800
    1     2    18     1    110.700    313.800
    1     2    19     1    110.700    313.800
    2     3    20     1    110.700    313.800
    2     3    21     1    110.700    313.800
    4     5    22     1    110.700    313.800
    4     5    23     1    110.700    313.800
    4     5    24     1    110.700    313.800
    4     6    25     1    115.000    292.880
    4     8    26     1    110.700    313.800
    4     8    27     1    110.700    313.800
    9    10    28     1    111.000    292.880
    9    10    29     1    111.000    292.880
   10    11    30     1    117.200    313.800
   10    11    31     1    117.200    313.800
   12    13    32     1    117.200    313.800
   12    13    33     1    117.200    313.800
   12    14    34     1    117.200    313.800
   12    14    35     1    117.200    313.800
   18     2    19     1    107.800    276.144
   12    11    31     1    117.200    313.800
    5     4     6     1    111.100    527.184
   11    12    14     1     83.000    251.040
   30    11    31     1    114.300    292.880
   13    12    14     1     83.000    251.040
   11    12    13     1     83.000    251.040
   22     5    23     1    107.800    276.144
    3     2    18     1    110.700    313.800
   13    14    35     1    117.200    313.800
   34    14    35     1    114.300    292.880
   14    13    32     1    117.200    313.800
    7     6    25     1    123.000    292.880
   22     5    24     1    107.800    276.144
   23     5    24     1    107.800    276.144
   32    13    33     1    114.300    292.880
   12    13    14     1     83.000    251.040
   10     9    12     1    126.000    418.400
   28    10    29     1    114.300    292.880
   14    13    33     1    117.200    313.800
   12    11    30     1    117.200    313.800
    5     4     8     1    112.700    488.273
    9     8    27     1    109.500    292.880
    3     2    19     1    110.700    313.800
   15     1    16     1    107.800    276.144
   10    11    12     1     83.000    251.040
   11    10    28     1    117.200    313.800
    4     3    21     1    110.700    313.800
   11    10    29     1    117.200    313.800
    6     4     8     1    111.100    527.184
   15     1    17     1    107.800    276.144
   16     1    17     1    107.800    276.144
   13    14    34     1    117.200    313.800
    9    12    11     1     89.000    669.440
    9     8    26     1    109.500    292.880
    4     3    20     1    110.700    313.800
   26     8    27     1    107.800    276.144
   12    14    13     1     83.000    251.040
   20     3    21     1    107.800    276.144

[ dihedrals ]
; IMPROPER DIHEDRAL ANGLES 
;  ai    aj    ak    al funct            c0            c1            c2            c3            c4            c5
    25     6     4     7    4        180.000     43.932     2  

[ dihedrals ]
; PROPER DIHEDRAL ANGLES
;  ai    aj    ak    al funct            c0            c1            c2            c3            c4            c5
    6    4    3    2        3      -4.960   6.286   1.310  -2.636  -0.000   0.000
    8    4    6    7        3       0.000   0.000   0.000  -0.000  -0.000   0.000
    4    3    2    1        3       2.301  -1.464   0.837  -1.674  -0.000   0.000
    5    4    3    2        3       2.301  -1.464   0.837  -1.674  -0.000   0.000
    8    4    3    2        3       2.301  -1.464   0.837  -1.674  -0.000   0.000
   14   12   11   10        3       0.000   0.000   0.000  -0.000  -0.000   0.000
   13   12   11   10        3       0.000   0.000   0.000  -0.000  -0.000   0.000
   14   12    9    8        3       0.000   0.000   0.000  -0.000  -0.000   0.000
   11   12    9    8        3       0.000   0.000   0.000  -0.000  -0.000   0.000
   11   10    9    8        3       0.000   0.000   0.000  -0.000  -0.000   0.000
   13   12    9    8        3       0.000   0.000   0.000  -0.000  -0.000   0.000
   14   12    9   10        3       0.000   0.000   0.000  -0.000  -0.000   0.000
   13   12    9   10        3       0.000   0.000   0.000  -0.000  -0.000   0.000
   10    9    8    4        3       0.000   0.000   0.000  -0.000  -0.000   0.000
   12    9    8    4        3       0.000   0.000   0.000  -0.000  -0.000   0.000
   25    6    4    3        3       0.000   0.000   0.000  -0.000  -0.000   0.000
   25    6    4    5        3       0.000   0.000   0.000  -0.000  -0.000   0.000
   25    6    4    8        3       0.000   0.000   0.000  -0.000  -0.000   0.000
   23    5    4    6        3      -0.209  -0.628   0.000   0.837  -0.000   0.000
   27    8    4    6        3      -0.209  -0.628   0.000   0.837  -0.000   0.000
   21    3    4    6        3      -0.209  -0.628   0.000   0.837  -0.000   0.000
   22    5    4    6        3      -0.209  -0.628   0.000   0.837  -0.000   0.000
   24    5    4    6        3      -0.209  -0.628   0.000   0.837  -0.000   0.000
   20    3    4    6        3      -0.209  -0.628   0.000   0.837  -0.000   0.000
   26    8    4    6        3      -0.209  -0.628   0.000   0.837  -0.000   0.000
   24    5    4    3        3       0.628   1.883   0.000  -2.510  -0.000   0.000
   22    5    4    8        3       0.628   1.883   0.000  -2.510  -0.000   0.000
   26    8    4    5        3       0.628   1.883   0.000  -2.510  -0.000   0.000
   17    1    2    3        3       0.628   1.883   0.000  -2.510  -0.000   0.000
   22    5    4    3        3       0.628   1.883   0.000  -2.510  -0.000   0.000
   18    2    3    4        3       0.628   1.883   0.000  -2.510  -0.000   0.000
   24    5    4    8        3       0.628   1.883   0.000  -2.510  -0.000   0.000
   19    2    3    4        3       0.628   1.883   0.000  -2.510  -0.000   0.000
   20    3    4    5        3       0.628   1.883   0.000  -2.510  -0.000   0.000
   23    5    4    3        3       0.628   1.883   0.000  -2.510  -0.000   0.000
   21    3    4    8        3       0.628   1.883   0.000  -2.510  -0.000   0.000
   16    1    2    3        3       0.628   1.883   0.000  -2.510  -0.000   0.000
   20    3    4    8        3       0.628   1.883   0.000  -2.510  -0.000   0.000
   27    8    4    5        3       0.628   1.883   0.000  -2.510  -0.000   0.000
   21    3    4    5        3       0.628   1.883   0.000  -2.510  -0.000   0.000
   26    8    4    3        3       0.628   1.883   0.000  -2.510  -0.000   0.000
   20    3    2    1        3       0.628   1.883   0.000  -2.510  -0.000   0.000
   27    8    4    3        3       0.628   1.883   0.000  -2.510  -0.000   0.000
   21    3    2    1        3       0.628   1.883   0.000  -2.510  -0.000   0.000
   15    1    2    3        3       0.628   1.883   0.000  -2.510  -0.000   0.000
   23    5    4    8        3       0.628   1.883   0.000  -2.510  -0.000   0.000
   19    2    1   16        3       0.628   1.883   0.000  -2.510  -0.000   0.000
   21    3    2   19        3       0.628   1.883   0.000  -2.510  -0.000   0.000
   18    2    1   16        3       0.628   1.883   0.000  -2.510  -0.000   0.000
   19    2    1   15        3       0.628   1.883   0.000  -2.510  -0.000   0.000
   20    3    2   19        3       0.628   1.883   0.000  -2.510  -0.000   0.000
   19    2    1   17        3       0.628   1.883   0.000  -2.510  -0.000   0.000
   20    3    2   18        3       0.628   1.883   0.000  -2.510  -0.000   0.000
   18    2    1   15        3       0.628   1.883   0.000  -2.510  -0.000   0.000
   21    3    2   18        3       0.628   1.883   0.000  -2.510  -0.000   0.000
   18    2    1   17        3       0.628   1.883   0.000  -2.510  -0.000   0.000
   27    8    9   10        3       0.000   0.000   0.000  -0.000  -0.000   0.000
   27    8    9   12        3       0.000   0.000   0.000  -0.000  -0.000   0.000
   26    8    9   10        3       0.000   0.000   0.000  -0.000  -0.000   0.000
   26    8    9   12        3       0.000   0.000   0.000  -0.000  -0.000   0.000
   35   14   12   11        3       0.000   0.000   0.000  -0.000  -0.000   0.000
   32   13   12   11        3       0.000   0.000   0.000  -0.000  -0.000   0.000
   35   14   12   13        3       0.000   0.000   0.000  -0.000  -0.000   0.000
   34   14   12   13        3       0.000   0.000   0.000  -0.000  -0.000   0.000
   35   14   13   12        3       0.000   0.000   0.000  -0.000  -0.000   0.000
   33   13   12   14        3       0.000   0.000   0.000  -0.000  -0.000   0.000
   32   13   12   14        3       0.000   0.000   0.000  -0.000  -0.000   0.000
   28   10   11   12        3       0.000   0.000   0.000  -0.000  -0.000   0.000
   34   14   12   11        3       0.000   0.000   0.000  -0.000  -0.000   0.000
   31   11   12   14        3       0.000   0.000   0.000  -0.000  -0.000   0.000
   31   11   12   13        3       0.000   0.000   0.000  -0.000  -0.000   0.000
   30   11   12   13        3       0.000   0.000   0.000  -0.000  -0.000   0.000
   29   10   11   12        3       0.000   0.000   0.000  -0.000  -0.000   0.000
   30   11   12   14        3       0.000   0.000   0.000  -0.000  -0.000   0.000
   33   13   14   12        3       0.000   0.000   0.000  -0.000  -0.000   0.000
   34   14   13   12        3       0.000   0.000   0.000  -0.000  -0.000   0.000
   33   13   12   11        3       0.000   0.000   0.000  -0.000  -0.000   0.000
   32   13   14   12        3       0.000   0.000   0.000  -0.000  -0.000   0.000
   30   11   10   29        3       0.000   0.000   0.000  -0.000  -0.000   0.000
   31   11   10   28        3       0.000   0.000   0.000  -0.000  -0.000   0.000
   35   14   13   33        3       0.000   0.000   0.000  -0.000  -0.000   0.000
   35   14   13   32        3       0.000   0.000   0.000  -0.000  -0.000   0.000
   34   14   13   33        3       0.000   0.000   0.000  -0.000  -0.000   0.000
   34   14   13   32        3       0.000   0.000   0.000  -0.000  -0.000   0.000
   31   11   10   29        3       0.000   0.000   0.000  -0.000  -0.000   0.000
   30   11   10   28        3       0.000   0.000   0.000  -0.000  -0.000   0.000
   30   11   12    9        3       0.000   0.000   0.000  -0.000  -0.000   0.000
   32   13   12    9        3       0.000   0.000   0.000  -0.000  -0.000   0.000
   31   11   10    9        3       0.000   0.000   0.000  -0.000  -0.000   0.000
   35   14   12    9        3       0.000   0.000   0.000  -0.000  -0.000   0.000
   33   13   12    9        3       0.000   0.000   0.000  -0.000  -0.000   0.000
   30   11   10    9        3       0.000   0.000   0.000  -0.000  -0.000   0.000
   34   14   12    9        3       0.000   0.000   0.000  -0.000  -0.000   0.000
   31   11   12    9        3       0.000   0.000   0.000  -0.000  -0.000   0.000
   28   10    9    8        3       0.000   0.000   0.000  -0.000  -0.000   0.000
   29   10    9    8        3       0.000   0.000   0.000  -0.000  -0.000   0.000
   29   10    9   12        3       0.000   0.000   0.000  -0.000  -0.000   0.000
   28   10    9   12        3       0.000   0.000   0.000  -0.000  -0.000   0.000
    9    8    4    6        3      -8.786  23.849  -8.368  -6.694  -0.000   0.000
    9    8    4    5        3       3.335  -1.552   2.820  -4.602  -0.000   0.000
    9    8    4    3        3       3.335  -1.552   2.820  -4.602  -0.000   0.000
    7    6    4    5        3       0.000   0.000   0.000  -0.000  -0.000   0.000
    7    6    4    3        3       0.000   0.000   0.000  -0.000  -0.000   0.000

[ pairs ]
     1     4    1
     2     5    1
     2     6    1
     3     7    1
     2     8    1
     5     7    1
     3     9    1
     5     9    1
     4    10    1
     7     8    1
     6     9    1
     4    12    1
     3    15    1
     8    11    1
     3    16    1
     3    17    1
     8    13    1
     1    20    1
     8    14    1
     4    18    1
     1    21    1
    10    13    1
     4    19    1
    10    14    1
     5    20    1
     3    22    1
     6    20    1
     5    21    1
     3    23    1
     6    21    1
     3    24    1
     8    20    1
     6    22    1
     3    25    1
     8    21    1
     6    23    1
     3    26    1
     8    22    1
     6    24    1
     5    25    1
     3    27    1
     8    23    1
     5    26    1
     8    24    1
     6    26    1
     5    27    1
    15    18    1
     8    25    1
     6    27    1
    16    18    1
    15    19    1
    17    18    1
    16    19    1
    17    19    1
    10    26    1
     8    28    1
    10    27    1
     8    29    1
    18    20    1
    12    26    1
    19    20    1
    18    21    1
    12    27    1
     9    30    1
    19    21    1
    12    28    1
     9    31    1
    12    29    1
     9    32    1
     9    33    1
    13    30    1
    11    32    1
     9    34    1
    14    30    1
    13    31    1
    11    33    1
     9    35    1
    14    31    1
    11    34    1
    11    35    1
    28    30    1
    29    30    1
    28    31    1
    29    31    1
    32    34    1
    33    34    1
    32    35    1
    33    35    1

