
;
; GENERATED BY LigParGen Server
; Jorgensen Lab @ Yale University 
;
[ atomtypes ]
  opls_818  H818     1.0080     0.000    A    2.50000E-01   1.25520E-01
  opls_814  C814    12.0110     0.000    A    3.50000E-01   2.76144E-01
  opls_824  H824     1.0080     0.000    A    2.50000E-01   1.25520E-01
  opls_807  S807    32.0600     0.000    A    3.55000E-01   1.04600E+00
  opls_805  C805    12.0110     0.000    A    3.50000E-01   2.76144E-01
  opls_808  O808    15.9990     0.000    A    2.96000E-01   7.11280E-01
  opls_843  H843     1.0080     0.000    A    2.50000E-01   1.25520E-01
  opls_836  H836     1.0080     0.000    A    2.50000E-01   1.25520E-01
  opls_834  H834     1.0080     0.000    A    2.50000E-01   1.25520E-01
  opls_828  H828     1.0080     0.000    A    2.50000E-01   1.25520E-01
  opls_802  C802    12.0110     0.000    A    3.50000E-01   2.76144E-01
  opls_827  H827     1.0080     0.000    A    2.50000E-01   1.25520E-01
  opls_801  C801    12.0110     0.000    A    3.50000E-01   2.76144E-01
  opls_806  C806    12.0110     0.000    A    3.50000E-01   2.76144E-01
  opls_822  H822     1.0080     0.000    A    2.50000E-01   1.25520E-01
  opls_803  C803    12.0110     0.000    A    3.50000E-01   2.76144E-01
  opls_838  H838     1.0080     0.000    A    2.50000E-01   1.25520E-01
  opls_825  H825     1.0080     0.000    A    2.50000E-01   1.25520E-01
  opls_815  C815    12.0110     0.000    A    3.50000E-01   2.76144E-01
  opls_830  H830     1.0080     0.000    A    2.50000E-01   1.25520E-01
  opls_810  C810    12.0110     0.000    A    3.50000E-01   2.76144E-01
  opls_842  H842     1.0080     0.000    A    2.50000E-01   1.25520E-01
  opls_820  H820     1.0080     0.000    A    2.50000E-01   1.25520E-01
  opls_837  H837     1.0080     0.000    A    2.50000E-01   1.25520E-01
  opls_821  H821     1.0080     0.000    A    2.50000E-01   1.25520E-01
  opls_831  H831     1.0080     0.000    A    2.50000E-01   1.25520E-01
  opls_816  C816    12.0110     0.000    A    3.55000E-01   2.92880E-01
  opls_832  H832     1.0080     0.000    A    2.50000E-01   1.25520E-01
  opls_800  C800    12.0110     0.000    A    3.50000E-01   2.76144E-01
  opls_811  C811    12.0110     0.000    A    3.50000E-01   2.76144E-01
  opls_823  H823     1.0080     0.000    A    2.50000E-01   1.25520E-01
  opls_813  C813    12.0110     0.000    A    3.50000E-01   2.76144E-01
  opls_826  H826     1.0080     0.000    A    2.50000E-01   1.25520E-01
  opls_835  H835     1.0080     0.000    A    2.50000E-01   1.25520E-01
  opls_841  H841     1.0080     0.000    A    2.50000E-01   1.25520E-01
  opls_819  H819     1.0080     0.000    A    2.50000E-01   1.25520E-01
  opls_804  C804    12.0110     0.000    A    3.50000E-01   2.76144E-01
  opls_833  H833     1.0080     0.000    A    2.50000E-01   1.25520E-01
  opls_839  H839     1.0080     0.000    A    2.50000E-01   1.25520E-01
  opls_812  C812    12.0110     0.000    A    3.50000E-01   2.76144E-01
  opls_809  O809    15.9990     0.000    A    2.96000E-01   7.11280E-01
  opls_817  O817    15.9990     0.000    A    2.96000E-01   8.78640E-01
  opls_840  H840     1.0080     0.000    A    2.50000E-01   1.25520E-01
  opls_829  H829     1.0080     0.000    A    2.50000E-01   1.25520E-01
[ moleculetype ]
; Name               nrexcl
UNK                   3
[ atoms ]
;   nr       type  resnr residue  atom   cgnr     charge       mass  
     1   opls_800      1    UNK   C00      1    -0.2399    12.0110 
     2   opls_801      1    UNK   C01      1    -0.1738    12.0110 
     3   opls_802      1    UNK   C02      1    -0.1009    12.0110 
     4   opls_803      1    UNK   C03      1    -0.1513    12.0110 
     5   opls_804      1    UNK   C04      1    -0.4049    12.0110 
     6   opls_805      1    UNK   C05      1    -0.1546    12.0110 
     7   opls_806      1    UNK   C06      1    -0.2264    12.0110 
     8   opls_807      1    UNK   S07      1     1.2946    32.0600 
     9   opls_808      1    UNK   O08      1    -0.5751    15.9990 
    10   opls_809      1    UNK   O09      1    -0.5751    15.9990 
    11   opls_810      1    UNK   C0A      1    -0.5077    12.0110 
    12   opls_811      1    UNK   C0B      1    -0.0722    12.0110 
    13   opls_812      1    UNK   C0C      1    -0.2364    12.0110 
    14   opls_813      1    UNK   C0D      1    -0.1091    12.0110 
    15   opls_814      1    UNK   C0E      1    -0.1604    12.0110 
    16   opls_815      1    UNK   C0F      1    -0.2613    12.0110 
    17   opls_816      1    UNK   C0G      1     0.3093    12.0110 
    18   opls_817      1    UNK   O0H      1    -0.4425    15.9990 
    19   opls_818      1    UNK   H0I      1     0.0852     1.0080 
    20   opls_819      1    UNK   H0J      1     0.0852     1.0080 
    21   opls_820      1    UNK   H0K      1     0.0852     1.0080 
    22   opls_821      1    UNK   H0M      1     0.0911     1.0080 
    23   opls_822      1    UNK   H0N      1     0.0911     1.0080 
    24   opls_823      1    UNK   H0O      1     0.0974     1.0080 
    25   opls_824      1    UNK   H0P      1     0.1145     1.0080 
    26   opls_825      1    UNK   H0Q      1     0.1145     1.0080 
    27   opls_826      1    UNK   H0R      1     0.1647     1.0080 
    28   opls_827      1    UNK   H0S      1     0.1021     1.0080 
    29   opls_828      1    UNK   H0T      1     0.1021     1.0080 
    30   opls_829      1    UNK   H0U      1     0.0877     1.0080 
    31   opls_830      1    UNK   H0V      1     0.0877     1.0080 
    32   opls_831      1    UNK   H0W      1     0.0877     1.0080 
    33   opls_832      1    UNK   H0X      2     0.1657     1.0080 
    34   opls_833      1    UNK   H0Y      2     0.1657     1.0080 
    35   opls_834      1    UNK   H0Z      2     0.0944     1.0080 
    36   opls_835      1    UNK   H10      2      0.088     1.0080 
    37   opls_836      1    UNK   H11      2      0.088     1.0080 
    38   opls_837      1    UNK   H12      2      0.088     1.0080 
    39   opls_838      1    UNK   H13      2     0.1279     1.0080 
    40   opls_839      1    UNK   H14      2     0.1091     1.0080 
    41   opls_840      1    UNK   H15      2     0.1091     1.0080 
    42   opls_841      1    UNK   H16      2     0.1245     1.0080 
    43   opls_842      1    UNK   H17      2     0.1245     1.0080 
    44   opls_843      1    UNK   H18      2     0.1067     1.0080 
[ bonds ]
    2     1     1      0.1529 224262.400
    3     2     1      0.1529 224262.400
    4     3     1      0.1529 224262.400
    5     4     1      0.1529 224262.400
    6     5     1      0.1529 224262.400
    7     6     1      0.1529 224262.400
    8     5     1      0.1770 284512.000
    9     8     1      0.1440 585760.000
   10     8     1      0.1440 585760.000
   11     8     1      0.1770 284512.000
   12    11     1      0.1529 224262.400
   13    12     1      0.1529 224262.400
   14     3     1      0.1529 224262.400
   15    14     1      0.1529 224262.400
   16    15     1      0.1529 224262.400
   17    16     1      0.1522 265265.600
   18    17     1      0.1229 476976.000
   19     1     1      0.1090 284512.000
   20     1     1      0.1090 284512.000
   21     1     1      0.1090 284512.000
   22     2     1      0.1090 284512.000
   23     2     1      0.1090 284512.000
   24     3     1      0.1090 284512.000
   25     4     1      0.1090 284512.000
   26     4     1      0.1090 284512.000
   27     5     1      0.1090 284512.000
   28     6     1      0.1090 284512.000
   29     6     1      0.1090 284512.000
   30     7     1      0.1090 284512.000
   31     7     1      0.1090 284512.000
   32     7     1      0.1090 284512.000
   33    11     1      0.1090 284512.000
   34    11     1      0.1090 284512.000
   35    12     1      0.1090 284512.000
   36    13     1      0.1090 284512.000
   37    13     1      0.1090 284512.000
   38    13     1      0.1090 284512.000
   39    14     1      0.1090 284512.000
   40    15     1      0.1090 284512.000
   41    15     1      0.1090 284512.000
   42    16     1      0.1090 284512.000
   43    16     1      0.1090 284512.000
   44    17     1      0.1090 284512.000
   14    12     1      0.1529 224262.400

[ angles ]
;  ai    aj    ak funct            c0            c1            c2            c3 
    1     2     3     1    112.700    488.273
    2     3     4     1    112.700    488.273
    3     4     5     1    112.700    488.273
    4     5     6     1    112.700    488.273
    5     6     7     1    112.700    488.273
    4     5     8     1    108.600    418.400
    5     8     9     1    108.900    619.232
    5     8    10     1    108.900    619.232
    5     8    11     1    102.000    518.816
    8    11    12     1    108.600    418.400
   11    12    13     1    112.700    488.273
    2     3    14     1    112.700    488.273
    3    14    15     1    112.700    488.273
   14    15    16     1    112.700    488.273
   15    16    17     1    111.100    527.184
   16    17    18     1    120.400    669.440
    2     1    19     1    110.700    313.800
    2     1    20     1    110.700    313.800
    2     1    21     1    110.700    313.800
    1     2    22     1    110.700    313.800
    1     2    23     1    110.700    313.800
    2     3    24     1    110.700    313.800
    3     4    25     1    110.700    313.800
    3     4    26     1    110.700    313.800
    4     5    27     1    110.700    313.800
    5     6    28     1    110.700    313.800
    5     6    29     1    110.700    313.800
    6     7    30     1    110.700    313.800
    6     7    31     1    110.700    313.800
    6     7    32     1    110.700    313.800
    8    11    33     1    109.500    292.880
    8    11    34     1    109.500    292.880
   11    12    35     1    110.700    313.800
   12    13    36     1    110.700    313.800
   12    13    37     1    110.700    313.800
   12    13    38     1    110.700    313.800
    3    14    39     1    110.700    313.800
   14    15    40     1    110.700    313.800
   14    15    41     1    110.700    313.800
   15    16    42     1    110.700    313.800
   15    16    43     1    110.700    313.800
   16    17    44     1    115.000    292.880
   16    15    40     1    110.700    313.800
   33    11    34     1    107.800    276.144
   13    12    14     1    112.700    488.273
   25     4    26     1    107.800    276.144
   19     1    21     1    107.800    276.144
    4     3    24     1    110.700    313.800
   30     7    32     1    107.800    276.144
    4     3    14     1    112.700    488.273
   20     1    21     1    107.800    276.144
   36    13    37     1    107.800    276.144
   16    15    41     1    110.700    313.800
   10     8    11     1    108.900    619.232
    5     4    26     1    110.700    313.800
   12    14    15     1    112.700    488.273
   42    16    43     1    107.800    276.144
   36    13    38     1    107.800    276.144
   31     7    32     1    107.800    276.144
    5     4    25     1    110.700    313.800
    8     5    27     1    109.500    292.880
   37    13    38     1    107.800    276.144
    9     8    11     1    108.900    619.232
    9     8    10     1    119.000    870.272
   30     7    31     1    107.800    276.144
   14     3    24     1    110.700    313.800
   28     6    29     1    107.800    276.144
    7     6    28     1    110.700    313.800
    6     5    27     1    110.700    313.800
    3    14    12     1    112.700    488.273
    7     6    29     1    110.700    313.800
   12    11    34     1    110.700    313.800
   22     2    23     1    107.800    276.144
   12    11    33     1    110.700    313.800
   15    14    39     1    110.700    313.800
   11    12    14     1    112.700    488.273
   17    16    43     1    109.500    292.880
   18    17    44     1    123.000    292.880
   14    12    35     1    110.700    313.800
    3     2    22     1    110.700    313.800
    3     2    23     1    110.700    313.800
   40    15    41     1    107.800    276.144
   17    16    42     1    109.500    292.880
    6     5     8     1    108.600    418.400
   13    12    35     1    110.700    313.800
   19     1    20     1    107.800    276.144
   12    14    39     1    110.700    313.800

[ dihedrals ]
; IMPROPER DIHEDRAL ANGLES 
;  ai    aj    ak    al funct            c0            c1            c2            c3            c4            c5
    44    17    16    18    4        180.000     43.932     2  

[ dihedrals ]
; PROPER DIHEDRAL ANGLES
;  ai    aj    ak    al funct            c0            c1            c2            c3            c4            c5
   17   16   15   14        3      -4.960   6.286   1.310  -2.636  -0.000   0.000
    4    3    2    1        3       2.301  -1.464   0.837  -1.674  -0.000   0.000
   14    3    2    1        3       2.301  -1.464   0.837  -1.674  -0.000   0.000
   12   14    3    4        3       2.301  -1.464   0.837  -1.674  -0.000   0.000
   16   15   14   12        3       2.301  -1.464   0.837  -1.674  -0.000   0.000
   13   12   14    3        3       2.301  -1.464   0.837  -1.674  -0.000   0.000
   14    3    4    5        3       2.301  -1.464   0.837  -1.674  -0.000   0.000
   15   14    3    2        3       2.301  -1.464   0.837  -1.674  -0.000   0.000
   15   14   12   11        3       2.301  -1.464   0.837  -1.674  -0.000   0.000
   12   14    3    2        3       2.301  -1.464   0.837  -1.674  -0.000   0.000
   11   12   14    3        3       2.301  -1.464   0.837  -1.674  -0.000   0.000
   15   14    3    4        3       2.301  -1.464   0.837  -1.674  -0.000   0.000
   15   14   12   13        3       2.301  -1.464   0.837  -1.674  -0.000   0.000
    5    4    3    2        3       2.301  -1.464   0.837  -1.674  -0.000   0.000
    6    5    4    3        3       2.301  -1.464   0.837  -1.674  -0.000   0.000
    7    6    5    4        3       2.301  -1.464   0.837  -1.674  -0.000   0.000
   16   15   14    3        3       2.301  -1.464   0.837  -1.674  -0.000   0.000
   14   12   11    8        3       2.784   0.278   0.828  -3.891  -0.000   0.000
   13   12   11    8        3       2.784   0.278   0.828  -3.891  -0.000   0.000
   12   11    8    5        3       0.000   0.000   0.000  -0.000  -0.000   0.000
   12   11    8   10        3       0.000   0.000   0.000  -0.000  -0.000   0.000
   12   11    8    9        3       0.000   0.000   0.000  -0.000  -0.000   0.000
   11    8    5    6        3       0.000   0.000   0.000  -0.000  -0.000   0.000
   11    8    5    4        3       0.000   0.000   0.000  -0.000  -0.000   0.000
   44   17   16   15        3       0.000   0.000   0.000  -0.000  -0.000   0.000
   44   17   16   42        3       0.753   2.259   0.000  -3.012  -0.000   0.000
   44   17   16   43        3       0.753   2.259   0.000  -3.012  -0.000   0.000
   42   16   17   18        3       0.000   0.000   0.000  -0.000  -0.000   0.000
   43   16   17   18        3       0.000   0.000   0.000  -0.000  -0.000   0.000
   41   15   16   17        3      -0.209  -0.628   0.000   0.837  -0.000   0.000
   40   15   16   17        3      -0.209  -0.628   0.000   0.837  -0.000   0.000
   32    7    6    5        3       0.628   1.883   0.000  -2.510  -0.000   0.000
   38   13   12   14        3       0.628   1.883   0.000  -2.510  -0.000   0.000
   25    4    3    2        3       0.628   1.883   0.000  -2.510  -0.000   0.000
   23    2    3   14        3       0.628   1.883   0.000  -2.510  -0.000   0.000
   39   14    3    4        3       0.628   1.883   0.000  -2.510  -0.000   0.000
   26    4    3    2        3       0.628   1.883   0.000  -2.510  -0.000   0.000
   33   11   12   14        3       0.628   1.883   0.000  -2.510  -0.000   0.000
   34   11   12   13        3       0.628   1.883   0.000  -2.510  -0.000   0.000
   33   11   12   13        3       0.628   1.883   0.000  -2.510  -0.000   0.000
   22    2    3   14        3       0.628   1.883   0.000  -2.510  -0.000   0.000
   26    4    3   14        3       0.628   1.883   0.000  -2.510  -0.000   0.000
   35   12   14   15        3       0.628   1.883   0.000  -2.510  -0.000   0.000
   24    3    4    5        3       0.628   1.883   0.000  -2.510  -0.000   0.000
   22    2    3    4        3       0.628   1.883   0.000  -2.510  -0.000   0.000
   27    5    6    7        3       0.628   1.883   0.000  -2.510  -0.000   0.000
   43   16   15   14        3       0.628   1.883   0.000  -2.510  -0.000   0.000
   19    1    2    3        3       0.628   1.883   0.000  -2.510  -0.000   0.000
   25    4    3   14        3       0.628   1.883   0.000  -2.510  -0.000   0.000
   42   16   15   14        3       0.628   1.883   0.000  -2.510  -0.000   0.000
   35   12   14    3        3       0.628   1.883   0.000  -2.510  -0.000   0.000
   40   15   14    3        3       0.628   1.883   0.000  -2.510  -0.000   0.000
   37   13   12   11        3       0.628   1.883   0.000  -2.510  -0.000   0.000
   39   14   12   11        3       0.628   1.883   0.000  -2.510  -0.000   0.000
   34   11   12   14        3       0.628   1.883   0.000  -2.510  -0.000   0.000
   27    5    4    3        3       0.628   1.883   0.000  -2.510  -0.000   0.000
   21    1    2    3        3       0.628   1.883   0.000  -2.510  -0.000   0.000
   23    2    3    4        3       0.628   1.883   0.000  -2.510  -0.000   0.000
   38   13   12   11        3       0.628   1.883   0.000  -2.510  -0.000   0.000
   30    7    6    5        3       0.628   1.883   0.000  -2.510  -0.000   0.000
   20    1    2    3        3       0.628   1.883   0.000  -2.510  -0.000   0.000
   37   13   12   14        3       0.628   1.883   0.000  -2.510  -0.000   0.000
   24    3    2    1        3       0.628   1.883   0.000  -2.510  -0.000   0.000
   36   13   12   11        3       0.628   1.883   0.000  -2.510  -0.000   0.000
   36   13   12   14        3       0.628   1.883   0.000  -2.510  -0.000   0.000
   31    7    6    5        3       0.628   1.883   0.000  -2.510  -0.000   0.000
   24    3   14   15        3       0.628   1.883   0.000  -2.510  -0.000   0.000
   29    6    5    4        3       0.628   1.883   0.000  -2.510  -0.000   0.000
   25    4    5    6        3       0.628   1.883   0.000  -2.510  -0.000   0.000
   28    6    5    4        3       0.628   1.883   0.000  -2.510  -0.000   0.000
   40   15   14   12        3       0.628   1.883   0.000  -2.510  -0.000   0.000
   39   14   12   13        3       0.628   1.883   0.000  -2.510  -0.000   0.000
   41   15   14   12        3       0.628   1.883   0.000  -2.510  -0.000   0.000
   39   14   15   16        3       0.628   1.883   0.000  -2.510  -0.000   0.000
   41   15   14    3        3       0.628   1.883   0.000  -2.510  -0.000   0.000
   26    4    5    6        3       0.628   1.883   0.000  -2.510  -0.000   0.000
   24    3   14   12        3       0.628   1.883   0.000  -2.510  -0.000   0.000
   39   14    3    2        3       0.628   1.883   0.000  -2.510  -0.000   0.000
   42   16   15   41        3       0.628   1.883   0.000  -2.510  -0.000   0.000
   27    5    4   26        3       0.628   1.883   0.000  -2.510  -0.000   0.000
   24    3    2   23        3       0.628   1.883   0.000  -2.510  -0.000   0.000
   23    2    1   21        3       0.628   1.883   0.000  -2.510  -0.000   0.000
   29    6    5   27        3       0.628   1.883   0.000  -2.510  -0.000   0.000
   31    7    6   29        3       0.628   1.883   0.000  -2.510  -0.000   0.000
   23    2    1   20        3       0.628   1.883   0.000  -2.510  -0.000   0.000
   35   12   11   34        3       0.628   1.883   0.000  -2.510  -0.000   0.000
   30    7    6   29        3       0.628   1.883   0.000  -2.510  -0.000   0.000
   30    7    6   28        3       0.628   1.883   0.000  -2.510  -0.000   0.000
   22    2    1   19        3       0.628   1.883   0.000  -2.510  -0.000   0.000
   36   13   12   35        3       0.628   1.883   0.000  -2.510  -0.000   0.000
   26    4    3   24        3       0.628   1.883   0.000  -2.510  -0.000   0.000
   37   13   12   35        3       0.628   1.883   0.000  -2.510  -0.000   0.000
   39   14   12   35        3       0.628   1.883   0.000  -2.510  -0.000   0.000
   43   16   15   41        3       0.628   1.883   0.000  -2.510  -0.000   0.000
   32    7    6   28        3       0.628   1.883   0.000  -2.510  -0.000   0.000
   39   14    3   24        3       0.628   1.883   0.000  -2.510  -0.000   0.000
   32    7    6   29        3       0.628   1.883   0.000  -2.510  -0.000   0.000
   22    2    1   21        3       0.628   1.883   0.000  -2.510  -0.000   0.000
   24    3    2   22        3       0.628   1.883   0.000  -2.510  -0.000   0.000
   43   16   15   40        3       0.628   1.883   0.000  -2.510  -0.000   0.000
   40   15   14   39        3       0.628   1.883   0.000  -2.510  -0.000   0.000
   31    7    6   28        3       0.628   1.883   0.000  -2.510  -0.000   0.000
   23    2    1   19        3       0.628   1.883   0.000  -2.510  -0.000   0.000
   25    4    3   24        3       0.628   1.883   0.000  -2.510  -0.000   0.000
   27    5    4   25        3       0.628   1.883   0.000  -2.510  -0.000   0.000
   35   12   11   33        3       0.628   1.883   0.000  -2.510  -0.000   0.000
   28    6    5   27        3       0.628   1.883   0.000  -2.510  -0.000   0.000
   38   13   12   35        3       0.628   1.883   0.000  -2.510  -0.000   0.000
   41   15   14   39        3       0.628   1.883   0.000  -2.510  -0.000   0.000
   22    2    1   20        3       0.628   1.883   0.000  -2.510  -0.000   0.000
   42   16   15   40        3       0.628   1.883   0.000  -2.510  -0.000   0.000
   25    4    5    8        3       0.946   2.837   0.000  -3.782  -0.000   0.000
   35   12   11    8        3       0.946   2.837   0.000  -3.782  -0.000   0.000
   29    6    5    8        3       0.946   2.837   0.000  -3.782  -0.000   0.000
   28    6    5    8        3       0.946   2.837   0.000  -3.782  -0.000   0.000
   26    4    5    8        3       0.946   2.837   0.000  -3.782  -0.000   0.000
   33   11    8    5        3       0.732   2.197   0.000  -2.929  -0.000   0.000
   27    5    8   11        3       0.732   2.197   0.000  -2.929  -0.000   0.000
   34   11    8    5        3       0.732   2.197   0.000  -2.929  -0.000   0.000
   27    5    8   10        3       0.732   2.197   0.000  -2.929  -0.000   0.000
   33   11    8    9        3       0.732   2.197   0.000  -2.929  -0.000   0.000
   34   11    8    9        3       0.732   2.197   0.000  -2.929  -0.000   0.000
   27    5    8    9        3       0.732   2.197   0.000  -2.929  -0.000   0.000
   33   11    8   10        3       0.732   2.197   0.000  -2.929  -0.000   0.000
   34   11    8   10        3       0.732   2.197   0.000  -2.929  -0.000   0.000
   18   17   16   15        3       0.000   0.000   0.000  -0.000  -0.000   0.000
    9    8    5    6        3       0.000   0.000   0.000  -0.000  -0.000   0.000
    9    8    5    4        3       0.000   0.000   0.000  -0.000  -0.000   0.000
   10    8    5    6        3       0.000   0.000   0.000  -0.000  -0.000   0.000
   10    8    5    4        3       0.000   0.000   0.000  -0.000  -0.000   0.000
    8    5    6    7        3       2.784   0.278   0.828  -3.891  -0.000   0.000
    8    5    4    3        3       2.784   0.278   0.828  -3.891  -0.000   0.000

[ pairs ]
     1     4    1
     2     5    1
     3     6    1
     4     7    1
     3     8    1
     4     9    1
     4    10    1
     3    11    1
     2    12    1
     7     8    1
     6     9    1
     4    11    1
     1    14    1
     6    10    1
     4    12    1
     3    13    1
     6    11    1
     5    12    1
     2    15    1
     5    14    1
     4    15    1
     3    16    1
     9    12    1
     8    13    1
    10    12    1
     8    14    1
     3    19    1
     3    20    1
     3    21    1
     1    24    1
    11    15    1
     4    22    1
     4    23    1
     2    25    1
    13    15    1
    12    16    1
     2    26    1
     5    24    1
     3    27    1
    14    17    1
     6    25    1
     6    26    1
     4    28    1
    15    18    1
     8    25    1
     4    29    1
     8    26    1
     7    27    1
     5    30    1
    14    22    1
    12    24    1
     9    27    1
     8    28    1
     5    31    1
    14    23    1
    10    27    1
     8    29    1
     5    32    1
    11    27    1
     5    33    1
     3    35    1
    15    24    1
    14    25    1
     5    34    1
    14    26    1
    19    22    1
     2    39    1
    20    22    1
    19    23    1
     9    33    1
    21    22    1
    20    23    1
    10    33    1
     9    34    1
     8    35    1
     4    39    1
     3    40    1
    21    23    1
    10    34    1
     3    41    1
    22    24    1
    13    33    1
    23    24    1
    14    33    1
    13    34    1
    11    36    1
    14    34    1
    11    37    1
    24    25    1
    11    38    1
    24    26    1
    15    35    1
    14    36    1
    11    39    1
    14    37    1
    25    27    1
    14    38    1
    13    39    1
    12    40    1
    26    27    1
    12    41    1
    27    28    1
    16    39    1
    27    29    1
    14    42    1
    17    40    1
    14    43    1
    28    30    1
    17    41    1
    29    30    1
    28    31    1
    15    44    1
    29    31    1
    28    32    1
    18    42    1
    29    32    1
    18    43    1
    24    39    1
    33    35    1
    34    35    1
    35    36    1
    35    37    1
    35    38    1
    35    39    1
    39    40    1
    39    41    1
    40    42    1
    41    42    1
    40    43    1
    41    43    1
    42    44    1
    43    44    1

