LIGPARGEN GENERATED GRO FILE
   44
    1UNK    C00    1   0.100   0.100   0.000
    1UNK    C01    2  -0.052   0.100   0.000
    1UNK    C02    3  -0.122   0.100   0.139
    1UNK    C03    4  -0.080  -0.029   0.214
    1UNK    C04    5  -0.147  -0.069   0.346
    1UNK    C05    6  -0.298  -0.096   0.345
    1UNK    C06    7  -0.344  -0.198   0.243
    1UNK    S07    8  -0.102   0.040   0.480
    1UNK    O08    9   0.036   0.083   0.463
    1UNK    O09   10  -0.140  -0.025   0.604
    1UNK    C0A   11  -0.206   0.182   0.464
    1UNK    C0B   12  -0.222   0.251   0.328
    1UNK    C0C   13  -0.365   0.243   0.270
    1UNK    C0D   14  -0.106   0.233   0.223
    1UNK    C0E   15  -0.095   0.363   0.138
    1UNK    C0F   16  -0.054   0.487   0.221
    1UNK    C0G   17  -0.036   0.611   0.138
    1UNK    O0H   18  -0.051   0.618   0.017
    1UNK    H0I   19   0.137   0.095  -0.103
    1UNK    H0J   20   0.141   0.013   0.052
    1UNK    H0K   21   0.141   0.190   0.046
    1UNK    H0M   22  -0.085   0.010  -0.054
    1UNK    H0N   23  -0.089   0.184  -0.060
    1UNK    H0O   24  -0.228   0.087   0.113
    1UNK    H0P   25   0.028  -0.023   0.234
    1UNK    H0Q   26  -0.091  -0.114   0.145
    1UNK    H0R   27  -0.099  -0.164   0.375
    1UNK    H0S   28  -0.354  -0.004   0.329
    1UNK    H0T   29  -0.329  -0.131   0.444
    1UNK    H0U   30  -0.325  -0.164   0.141
    1UNK    H0V   31  -0.452  -0.215   0.253
    1UNK    H0W   32  -0.293  -0.294   0.258
    1UNK    H0X   33  -0.161   0.254   0.534
    1UNK    H0Y   34  -0.303   0.156   0.507
    1UNK    H0Z   35  -0.220   0.356   0.360
    1UNK    H10   36  -0.385   0.154   0.211
    1UNK    H11   37  -0.383   0.329   0.204
    1UNK    H12   38  -0.440   0.247   0.349
    1UNK    H13   39  -0.011   0.226   0.276
    1UNK    H14   40  -0.188   0.383   0.084
    1UNK    H15   41  -0.017   0.351   0.061
    1UNK    H16   42   0.041   0.468   0.273
    1UNK    H17   43  -0.129   0.513   0.295
    1UNK    H18   44  -0.007   0.701   0.196
   1.00000   1.00000   1.00000

