
;
; GENERATED BY LigParGen Server
; Jorgensen Lab @ Yale University 
;
[ atomtypes ]
  opls_818  H818     1.0080     0.000    A    2.50000E-01   1.25520E-01
  opls_803  O803    15.9990     0.000    A    2.90000E-01   5.85760E-01
  opls_824  H824     1.0080     0.000    A    2.50000E-01   1.25520E-01
  opls_805  O805    15.9990     0.000    A    2.96000E-01   8.78640E-01
  opls_804  C804    12.0110     0.000    A    3.55000E-01   2.92880E-01
  opls_836  H836     1.0080     0.000    A    2.50000E-01   1.25520E-01
  opls_834  H834     1.0080     0.000    A    2.50000E-01   1.25520E-01
  opls_828  H828     1.0080     0.000    A    2.50000E-01   1.25520E-01
  opls_814  C814    12.0110     0.000    A    3.55000E-01   2.92880E-01
  opls_806  O806    15.9990     0.000    A    2.90000E-01   5.85760E-01
  opls_802  C802    12.0110     0.000    A    3.50000E-01   2.76144E-01
  opls_827  H827     1.0080     0.000    A    2.50000E-01   1.25520E-01
  opls_809  C809    12.0110     0.000    A    3.50000E-01   2.76144E-01
  opls_838  H838     1.0080     0.000    A    2.50000E-01   1.25520E-01
  opls_811  O811    15.9990     0.000    A    2.96000E-01   8.78640E-01
  opls_822  H822     1.0080     0.000    A    2.50000E-01   1.25520E-01
  opls_807  C807    12.0110     0.000    A    3.50000E-01   2.76144E-01
  opls_825  H825     1.0080     0.000    A    2.50000E-01   1.25520E-01
  opls_830  H830     1.0080     0.000    A    2.50000E-01   1.25520E-01
  opls_821  H821     1.0080     0.000    A    2.50000E-01   1.25520E-01
  opls_820  H820     1.0080     0.000    A    2.50000E-01   1.25520E-01
  opls_837  H837     1.0080     0.000    A    2.50000E-01   1.25520E-01
  opls_829  H829     1.0080     0.000    A    2.50000E-01   1.25520E-01
  opls_831  H831     1.0080     0.000    A    2.50000E-01   1.25520E-01
  opls_810  C810    12.0110     0.000    A    3.55000E-01   2.92880E-01
  opls_832  H832     1.0080     0.000    A    2.50000E-01   1.25520E-01
  opls_800  C800    12.0110     0.000    A    3.50000E-01   2.76144E-01
  opls_823  H823     1.0080     0.000    A    2.50000E-01   1.25520E-01
  opls_833  H833     1.0080     0.000    A    2.50000E-01   1.25520E-01
  opls_813  C813    12.0110     0.000    A    3.50000E-01   2.76144E-01
  opls_826  H826     1.0080     0.000    A    2.50000E-01   1.25520E-01
  opls_835  H835     1.0080     0.000    A    2.50000E-01   1.25520E-01
  opls_819  H819     1.0080     0.000    A    2.50000E-01   1.25520E-01
  opls_816  C816    12.0110     0.000    A    3.50000E-01   2.76144E-01
  opls_817  C817    12.0110     0.000    A    3.50000E-01   2.76144E-01
  opls_801  C801    12.0110     0.000    A    3.50000E-01   2.76144E-01
  opls_808  C808    12.0110     0.000    A    3.50000E-01   2.76144E-01
  opls_815  O815    15.9990     0.000    A    2.96000E-01   8.78640E-01
  opls_812  N812    14.0070     0.000    A    3.25000E-01   7.11280E-01
[ moleculetype ]
; Name               nrexcl
UNK                   3
[ atoms ]
;   nr       type  resnr residue  atom   cgnr     charge       mass  
     1   opls_800      1    UNK   C00      1    -0.2374    12.0110 
     2   opls_801      1    UNK   C01      1    -0.2055    12.0110 
     3   opls_802      1    UNK   C02      1     0.0151    12.0110 
     4   opls_803      1    UNK   O03      1    -0.3177    15.9990 
     5   opls_804      1    UNK   C04      1     0.5758    12.0110 
     6   opls_805      1    UNK   O05      1    -0.4956    15.9990 
     7   opls_806      1    UNK   O06      1    -0.3279    15.9990 
     8   opls_807      1    UNK   C07      1     0.0194    12.0110 
     9   opls_808      1    UNK   C08      1    -0.2254    12.0110 
    10   opls_809      1    UNK   C09      1     0.1273    12.0110 
    11   opls_810      1    UNK   C0A      1     0.3068    12.0110 
    12   opls_811      1    UNK   O0B      1    -0.4403    15.9990 
    13   opls_812      1    UNK   N0C      1    -0.9388    14.0070 
    14   opls_813      1    UNK   C0D      1     0.0854    12.0110 
    15   opls_814      1    UNK   C0E      1     0.5926    12.0110 
    16   opls_815      1    UNK   O0F      1    -0.4457    15.9990 
    17   opls_816      1    UNK   C0G      1    -0.1974    12.0110 
    18   opls_817      1    UNK   C0H      1    -0.2293    12.0110 
    19   opls_818      1    UNK   H0I      1     0.0873     1.0080 
    20   opls_819      1    UNK   H0J      1     0.0873     1.0080 
    21   opls_820      1    UNK   H0K      1     0.0873     1.0080 
    22   opls_821      1    UNK   H0M      1     0.1061     1.0080 
    23   opls_822      1    UNK   H0N      1     0.1061     1.0080 
    24   opls_823      1    UNK   H0O      1     0.1224     1.0080 
    25   opls_824      1    UNK   H0P      1     0.1224     1.0080 
    26   opls_825      1    UNK   H0Q      1     0.1274     1.0080 
    27   opls_826      1    UNK   H0R      1     0.1274     1.0080 
    28   opls_827      1    UNK   H0S      1     0.1272     1.0080 
    29   opls_828      1    UNK   H0T      1     0.1272     1.0080 
    30   opls_829      1    UNK   H0U      1     0.1693     1.0080 
    31   opls_830      1    UNK   H0V      1     0.1266     1.0080 
    32   opls_831      1    UNK   H0W      1     0.0982     1.0080 
    33   opls_832      1    UNK   H0X      2     0.0982     1.0080 
    34   opls_833      1    UNK   H0Y      2     0.0982     1.0080 
    35   opls_834      1    UNK   H0Z      2     0.1178     1.0080 
    36   opls_835      1    UNK   H10      2     0.1178     1.0080 
    37   opls_836      1    UNK   H11      2     0.0949     1.0080 
    38   opls_837      1    UNK   H12      2     0.0949     1.0080 
    39   opls_838      1    UNK   H13      2     0.0949     1.0080 
[ bonds ]
    2     1     1      0.1529 224262.400
    3     2     1      0.1529 224262.400
    4     3     1      0.1410 267776.000
    5     4     1      0.1327 179075.200
    6     5     1      0.1229 476976.000
    7     5     1      0.1327 179075.200
    8     7     1      0.1410 267776.000
    9     8     1      0.1529 224262.400
   10     9     1      0.1529 224262.400
   11    10     1      0.1522 265265.600
   12    11     1      0.1229 476976.000
   13    10     1      0.1449 282001.600
   14    13     1      0.1449 282001.600
   15    13     1      0.1335 410032.000
   16    15     1      0.1229 476976.000
   17    15     1      0.1522 265265.600
   18    17     1      0.1529 224262.400
   19     1     1      0.1090 284512.000
   20     1     1      0.1090 284512.000
   21     1     1      0.1090 284512.000
   22     2     1      0.1090 284512.000
   23     2     1      0.1090 284512.000
   24     3     1      0.1090 284512.000
   25     3     1      0.1090 284512.000
   26     8     1      0.1090 284512.000
   27     8     1      0.1090 284512.000
   28     9     1      0.1090 284512.000
   29     9     1      0.1090 284512.000
   30    10     1      0.1090 284512.000
   31    11     1      0.1090 284512.000
   32    14     1      0.1090 284512.000
   33    14     1      0.1090 284512.000
   34    14     1      0.1090 284512.000
   35    17     1      0.1090 284512.000
   36    17     1      0.1090 284512.000
   37    18     1      0.1090 284512.000
   38    18     1      0.1090 284512.000
   39    18     1      0.1090 284512.000

[ angles ]
;  ai    aj    ak funct            c0            c1            c2            c3 
    1     2     3     1    112.700    488.273
    2     3     4     1    109.500    418.400
    3     4     5     1    116.900    694.544
    4     5     6     1    123.400    694.544
    4     5     7     1    118.180    584.923
    5     7     8     1    116.900    694.544
    7     8     9     1    109.500    418.400
    8     9    10     1    112.700    488.273
    9    10    11     1    111.100    527.184
   10    11    12     1    120.400    669.440
    9    10    13     1    109.700    669.440
   10    13    14     1    118.000    418.400
   10    13    15     1    121.900    418.400
   13    15    16     1    122.900    669.440
   13    15    17     1    116.600    585.760
   15    17    18     1    111.100    527.184
    2     1    19     1    110.700    313.800
    2     1    20     1    110.700    313.800
    2     1    21     1    110.700    313.800
    1     2    22     1    110.700    313.800
    1     2    23     1    110.700    313.800
    2     3    24     1    110.700    313.800
    2     3    25     1    110.700    313.800
    7     8    26     1    109.500    292.880
    7     8    27     1    109.500    292.880
    8     9    28     1    110.700    313.800
    8     9    29     1    110.700    313.800
    9    10    30     1    110.700    313.800
   10    11    31     1    115.000    292.880
   13    14    32     1    109.500    292.880
   13    14    33     1    109.500    292.880
   13    14    34     1    109.500    292.880
   15    17    35     1    109.500    292.880
   15    17    36     1    109.500    292.880
   17    18    37     1    110.700    313.800
   17    18    38     1    110.700    313.800
   17    18    39     1    110.700    313.800
   19     1    20     1    107.800    276.144
   10     9    29     1    110.700    313.800
   22     2    23     1    107.800    276.144
   10     9    28     1    110.700    313.800
   38    18    39     1    107.800    276.144
   33    14    34     1    107.800    276.144
   18    17    36     1    110.700    313.800
   12    11    31     1    123.000    292.880
   14    13    15     1    121.900    418.400
    3     2    22     1    110.700    313.800
    3     2    23     1    110.700    313.800
   32    14    33     1    107.800    276.144
    9     8    27     1    110.700    313.800
   18    17    35     1    110.700    313.800
   37    18    39     1    107.800    276.144
   19     1    21     1    107.800    276.144
    4     3    25     1    109.500    292.880
    6     5     7     1    123.400    694.544
    4     3    24     1    109.500    292.880
   16    15    17     1    120.400    669.440
   28     9    29     1    107.800    276.144
   24     3    25     1    107.800    276.144
   35    17    36     1    107.800    276.144
   11    10    13     1    110.100    527.184
   13    10    30     1    109.500    292.880
   37    18    38     1    107.800    276.144
    9     8    26     1    110.700    313.800
   20     1    21     1    107.800    276.144
   32    14    34     1    107.800    276.144
   26     8    27     1    107.800    276.144
   11    10    30     1    109.500    292.880

[ dihedrals ]
; IMPROPER DIHEDRAL ANGLES 
;  ai    aj    ak    al funct            c0            c1            c2            c3            c4            c5
    15    13    10    14    4        180.000     10.460     2  
    17    15    13    16    4        180.000     43.932     2  
    31    11    10    12    4        180.000     43.932     2  
     7     5     4     6    4        180.000     43.932     2  

[ dihedrals ]
; PROPER DIHEDRAL ANGLES
;  ai    aj    ak    al funct            c0            c1            c2            c3            c4            c5
   11   10    9    8        3      -4.960   6.286   1.310  -2.636  -0.000   0.000
   15   13   10   11        3      -2.910  -0.387  -3.816   7.113  -0.000   0.000
   15   13   10    9        3       1.933   0.000  -1.933  -0.000  -0.000   0.000
    5    4    3    2        3      -2.197   5.201   0.527  -3.531  -0.000   0.000
   17   15   13   14        3      30.288  -4.812  -25.476  -0.000  -0.000   0.000
   17   15   13   10        3      30.288  -4.812  -25.476  -0.000  -0.000   0.000
   18   17   15   13        3       0.734  -9.985  -0.791  10.042  -0.000   0.000
   18   17   15   16        3       0.000   0.000   0.000  -0.000  -0.000   0.000
   10    9    8    7        3       2.874   0.582   2.092  -5.548  -0.000   0.000
    9    8    7    5        3      -2.197   5.201   0.527  -3.531  -0.000   0.000
   14   13   10   11        3      -5.724  -18.338  -5.234  29.296  -0.000   0.000
   14   13   10    9        3       6.872  -9.943   3.071  -0.000  -0.000   0.000
    8    7    5    6        3      21.439   0.000  -21.439  -0.000  -0.000   0.000
    8    7    5    4        3      31.206  -9.768  -21.439  -0.000  -0.000   0.000
   31   11   10    9        3       0.000   0.000   0.000  -0.000  -0.000   0.000
   31   11   10   30        3       0.753   2.259   0.000  -3.012  -0.000   0.000
   31   11   10   13        3       0.971   2.912   0.000  -3.883  -0.000   0.000
   36   17   15   13        3       0.000   0.000   0.000  -0.000  -0.000   0.000
   35   17   15   13        3       0.000   0.000   0.000  -0.000  -0.000   0.000
   36   17   15   16        3       0.000   0.000   0.000  -0.000  -0.000   0.000
   35   17   15   16        3       0.000   0.000   0.000  -0.000  -0.000   0.000
   30   10   11   12        3       0.000   0.000   0.000  -0.000  -0.000   0.000
   37   18   17   15        3      -0.209  -0.628   0.000   0.837  -0.000   0.000
   39   18   17   15        3      -0.209  -0.628   0.000   0.837  -0.000   0.000
   38   18   17   15        3      -0.209  -0.628   0.000   0.837  -0.000   0.000
   28    9   10   11        3      -0.209  -0.628   0.000   0.837  -0.000   0.000
   29    9   10   11        3      -0.209  -0.628   0.000   0.837  -0.000   0.000
   27    8    9   10        3       0.628   1.883   0.000  -2.510  -0.000   0.000
   24    3    2    1        3       0.628   1.883   0.000  -2.510  -0.000   0.000
   21    1    2    3        3       0.628   1.883   0.000  -2.510  -0.000   0.000
   20    1    2    3        3       0.628   1.883   0.000  -2.510  -0.000   0.000
   26    8    9   10        3       0.628   1.883   0.000  -2.510  -0.000   0.000
   25    3    2    1        3       0.628   1.883   0.000  -2.510  -0.000   0.000
   19    1    2    3        3       0.628   1.883   0.000  -2.510  -0.000   0.000
   30   10    9    8        3       0.628   1.883   0.000  -2.510  -0.000   0.000
   22    2    1   19        3       0.628   1.883   0.000  -2.510  -0.000   0.000
   30   10    9   28        3       0.628   1.883   0.000  -2.510  -0.000   0.000
   23    2    1   21        3       0.628   1.883   0.000  -2.510  -0.000   0.000
   39   18   17   35        3       0.628   1.883   0.000  -2.510  -0.000   0.000
   24    3    2   22        3       0.628   1.883   0.000  -2.510  -0.000   0.000
   28    9    8   26        3       0.628   1.883   0.000  -2.510  -0.000   0.000
   25    3    2   22        3       0.628   1.883   0.000  -2.510  -0.000   0.000
   22    2    1   21        3       0.628   1.883   0.000  -2.510  -0.000   0.000
   30   10    9   29        3       0.628   1.883   0.000  -2.510  -0.000   0.000
   24    3    2   23        3       0.628   1.883   0.000  -2.510  -0.000   0.000
   28    9    8   27        3       0.628   1.883   0.000  -2.510  -0.000   0.000
   23    2    1   19        3       0.628   1.883   0.000  -2.510  -0.000   0.000
   38   18   17   36        3       0.628   1.883   0.000  -2.510  -0.000   0.000
   29    9    8   26        3       0.628   1.883   0.000  -2.510  -0.000   0.000
   22    2    1   20        3       0.628   1.883   0.000  -2.510  -0.000   0.000
   25    3    2   23        3       0.628   1.883   0.000  -2.510  -0.000   0.000
   29    9    8   27        3       0.628   1.883   0.000  -2.510  -0.000   0.000
   23    2    1   20        3       0.628   1.883   0.000  -2.510  -0.000   0.000
   37   18   17   35        3       0.628   1.883   0.000  -2.510  -0.000   0.000
   38   18   17   35        3       0.628   1.883   0.000  -2.510  -0.000   0.000
   39   18   17   36        3       0.628   1.883   0.000  -2.510  -0.000   0.000
   37   18   17   36        3       0.628   1.883   0.000  -2.510  -0.000   0.000
   28    9   10   13        3       0.971   2.912   0.000  -3.883  -0.000   0.000
   29    9   10   13        3       0.971   2.912   0.000  -3.883  -0.000   0.000
   23    2    3    4        3       0.979   2.937   0.000  -3.916  -0.000   0.000
   28    9    8    7        3       0.979   2.937   0.000  -3.916  -0.000   0.000
   29    9    8    7        3       0.979   2.937   0.000  -3.916  -0.000   0.000
   22    2    3    4        3       0.979   2.937   0.000  -3.916  -0.000   0.000
   33   14   13   15        3       0.000   0.000   0.000  -0.000  -0.000   0.000
   32   14   13   15        3       0.000   0.000   0.000  -0.000  -0.000   0.000
   34   14   13   15        3       0.000   0.000   0.000  -0.000  -0.000   0.000
   30   10   13   15        3       0.000   0.000   0.000  -0.000  -0.000   0.000
   33   14   13   10        3       0.000   0.000   0.000  -0.000  -0.000   0.000
   34   14   13   10        3       0.000   0.000   0.000  -0.000  -0.000   0.000
   30   10   13   14        3       0.000   0.000   0.000  -0.000  -0.000   0.000
   32   14   13   10        3       0.000   0.000   0.000  -0.000  -0.000   0.000
   25    3    4    5        3       0.414   1.243   0.000  -1.657  -0.000   0.000
   26    8    7    5        3       0.414   1.243   0.000  -1.657  -0.000   0.000
   24    3    4    5        3       0.414   1.243   0.000  -1.657  -0.000   0.000
   27    8    7    5        3       0.414   1.243   0.000  -1.657  -0.000   0.000
   13   10   11   12        3       0.000   0.000   0.000  -0.000  -0.000   0.000
   13   10    9    8        3      -0.766   2.707   4.025  -5.966  -0.000   0.000
   12   11   10    9        3       0.000   0.000   0.000  -0.000  -0.000   0.000
   16   15   13   14        3      25.476   0.000  -25.476  -0.000  -0.000   0.000
   16   15   13   10        3      25.476   0.000  -25.476  -0.000  -0.000   0.000
    6    5    4    3        3      21.439   0.000  -21.439  -0.000  -0.000   0.000
    7    5    4    3        3      31.206  -9.768  -21.439  -0.000  -0.000   0.000
    4    3    2    1        3       2.874   0.582   2.092  -5.548  -0.000   0.000

[ pairs ]
     1     4    1
     2     5    1
     3     6    1
     3     7    1
     4     8    1
     6     8    1
     5     9    1
     7    10    1
     8    11    1
     9    12    1
     8    13    1
     3    19    1
     9    14    1
     3    20    1
     9    15    1
     3    21    1
    12    13    1
    11    14    1
     1    24    1
    11    15    1
    10    16    1
     4    22    1
     1    25    1
    10    17    1
     4    23    1
     5    24    1
    14    16    1
     5    25    1
    14    17    1
    13    18    1
     5    26    1
     5    27    1
    16    18    1
     7    28    1
    10    26    1
     7    29    1
    10    27    1
     8    30    1
    11    28    1
    11    29    1
     9    31    1
    19    22    1
    13    28    1
    20    22    1
    19    23    1
    13    29    1
    12    30    1
    10    32    1
    21    22    1
    20    23    1
    10    33    1
    21    23    1
    14    30    1
    13    31    1
    10    34    1
    15    30    1
    22    24    1
    23    24    1
    22    25    1
    15    32    1
    23    25    1
    15    33    1
    13    35    1
    15    34    1
    13    36    1
    16    35    1
    16    36    1
    15    37    1
    15    38    1
    26    28    1
    15    39    1
    27    28    1
    26    29    1
    27    29    1
    28    30    1
    29    30    1
    30    31    1
    35    37    1
    36    37    1
    35    38    1
    36    38    1
    35    39    1
    36    39    1

