LIGPARGEN GENERATED GRO FILE
   39
    1UNK    C00    1   0.100   0.100   0.000
    1UNK    C01    2  -0.052   0.100   0.000
    1UNK    C02    3  -0.105   0.100   0.143
    1UNK    O03    4  -0.249   0.100   0.146
    1UNK    C04    5  -0.305  -0.016   0.187
    1UNK    O05    6  -0.250  -0.125   0.193
    1UNK    O06    7  -0.430   0.012   0.232
    1UNK    C07    8  -0.496  -0.097   0.299
    1UNK    C08    9  -0.445  -0.115   0.442
    1UNK    C09   10  -0.465   0.010   0.530
    1UNK    C0A   11  -0.613   0.045   0.545
    1UNK    O0B   12  -0.698  -0.030   0.591
    1UNK    N0C   13  -0.401  -0.006   0.663
    1UNK    C0D   14  -0.451  -0.108   0.754
    1UNK    C0E   15  -0.295   0.079   0.696
    1UNK    O0F   16  -0.251   0.162   0.617
    1UNK    C0G   17  -0.237   0.063   0.836
    1UNK    C0H   18  -0.117   0.153   0.859
    1UNK    H0I   19   0.139   0.100  -0.102
    1UNK    H0J   20   0.139   0.011   0.051
    1UNK    H0K   21   0.139   0.189   0.051
    1UNK    H0M   22  -0.090   0.013  -0.054
    1UNK    H0N   23  -0.089   0.188  -0.054
    1UNK    H0O   24  -0.073   0.192   0.194
    1UNK    H0P   25  -0.063   0.016   0.200
    1UNK    H0Q   26  -0.484  -0.190   0.242
    1UNK    H0R   27  -0.603  -0.075   0.299
    1UNK    H0S   28  -0.338  -0.138   0.440
    1UNK    H0T   29  -0.495  -0.202   0.486
    1UNK    H0U   30  -0.420   0.095   0.478
    1UNK    H0V   31  -0.640   0.146   0.511
    1UNK    H0W   32  -0.530  -0.168   0.710
    1UNK    H0X   33  -0.488  -0.060   0.845
    1UNK    H0Y   34  -0.368  -0.175   0.780
    1UNK    H0Z   35  -0.206  -0.040   0.852
    1UNK    H10   36  -0.315   0.089   0.909
    1UNK    H11   37  -0.036   0.129   0.790
    1UNK    H12   38  -0.079   0.141   0.961
    1UNK    H13   39  -0.143   0.259   0.845
   1.00000   1.00000   1.00000

