LIGPARGEN GENERATED GRO FILE
   36
    1UNK    C00    1   0.100   0.100   0.000
    1UNK    C01    2  -0.053   0.100   0.000
    1UNK    C02    3  -0.113   0.100   0.142
    1UNK    C03    4  -0.071   0.222   0.214
    1UNK    N04    5  -0.039   0.318   0.270
    1UNK    C05    6  -0.267   0.089   0.137
    1UNK    C06    7  -0.328   0.089   0.278
    1UNK    C07    8  -0.481   0.077   0.280
    1UNK    C08    9  -0.540   0.078   0.423
    1UNK    C09   10  -0.498   0.200   0.507
    1UNK    C0A   11  -0.551   0.334   0.457
    1UNK    C0B   12  -0.693   0.058   0.415
    1UNK    C0C   13  -0.762   0.051   0.551
    1UNK    H0D   14   0.138   0.095  -0.103
    1UNK    H0E   15   0.138   0.013   0.055
    1UNK    H0F   16   0.140   0.191   0.046
    1UNK    H0G   17  -0.088   0.011  -0.055
    1UNK    H0H   18  -0.088   0.188  -0.056
    1UNK    H0I   19  -0.074   0.013   0.196
    1UNK    H0J   20  -0.296  -0.004   0.085
    1UNK    H0K   21  -0.309   0.172   0.080
    1UNK    H0M   22  -0.299   0.182   0.328
    1UNK    H0N   23  -0.285   0.006   0.337
    1UNK    H0O   24  -0.509  -0.016   0.229
    1UNK    H0P   25  -0.524   0.159   0.220
    1UNK    H0Q   26  -0.499  -0.011   0.474
    1UNK    H0R   27  -0.389   0.206   0.514
    1UNK    H0S   28  -0.531   0.187   0.611
    1UNK    H0T   29  -0.542   0.344   0.349
    1UNK    H0U   30  -0.495   0.416   0.503
    1UNK    H0V   31  -0.656   0.347   0.484
    1UNK    H0W   32  -0.714  -0.035   0.361
    1UNK    H0X   33  -0.738   0.139   0.357
    1UNK    H0Y   34  -0.716  -0.026   0.614
    1UNK    H0Z   35  -0.867   0.026   0.538
    1UNK    H10   36  -0.757   0.146   0.604
   1.00000   1.00000   1.00000

