LIGPARGEN GENERATED GRO FILE
   37
    1UNK    C00    1   0.100   0.100   0.000
    1UNK    O01    2  -0.043   0.100   0.000
    1UNK    C02    3  -0.096   0.100   0.125
    1UNK    O03    4  -0.032   0.087   0.228
    1UNK    O04    5  -0.228   0.128   0.114
    1UNK    C05    6  -0.304   0.166   0.231
    1UNK    C06    7  -0.289   0.069   0.350
    1UNK    C07    8  -0.275   0.312   0.273
    1UNK    C08    9  -0.134   0.370   0.265
    1UNK    C09   10  -0.136   0.516   0.313
    1UNK    C0A   11  -0.240   0.601   0.239
    1UNK    C0B   12  -0.379   0.535   0.235
    1UNK    C0C   13  -0.366   0.393   0.182
    1UNK    O0D   14  -0.488   0.320   0.181
    1UNK    C0E   15  -0.453   0.180   0.190
    1UNK    C0F   16  -0.517   0.090   0.087
    1UNK    C0G   17  -0.563   0.084   0.230
    1UNK    H0H   18   0.135   0.095  -0.104
    1UNK    H0I   19   0.140   0.013   0.054
    1UNK    H0J   20   0.138   0.193   0.044
    1UNK    H0K   21  -0.190   0.075   0.396
    1UNK    H0M   22  -0.303  -0.034   0.318
    1UNK    H0N   23  -0.361   0.092   0.429
    1UNK    H0O   24  -0.311   0.323   0.377
    1UNK    H0P   25  -0.097   0.368   0.162
    1UNK    H0Q   26  -0.065   0.313   0.327
    1UNK    H0R   27  -0.037   0.560   0.300
    1UNK    H0S   28  -0.159   0.517   0.420
    1UNK    H0T   29  -0.206   0.617   0.136
    1UNK    H0U   30  -0.248   0.700   0.286
    1UNK    H0V   31  -0.447   0.593   0.173
    1UNK    H0W   32  -0.423   0.534   0.336
    1UNK    H0X   33  -0.328   0.395   0.078
    1UNK    H0Y   34  -0.461   0.007   0.048
    1UNK    H0Z   35  -0.584   0.137   0.015
    1UNK    H10   36  -0.540  -0.006   0.285
    1UNK    H11   37  -0.659   0.127   0.255
   1.00000   1.00000   1.00000

