
;
; GENERATED BY LigParGen Server
; Jorgensen Lab @ Yale University 
;
[ atomtypes ]
  opls_818  H818     1.0080     0.000    A    2.50000E-01   1.25520E-01
  opls_816  C816    12.0110     0.000    A    3.45000E-01   3.47272E-01
  opls_824  H824     1.0080     0.000    A    2.50000E-01   1.25520E-01
  opls_805  C805    12.0110     0.000    A    3.50000E-01   2.76144E-01
  opls_836  H836     1.0080     0.000    A    2.50000E-01   1.25520E-01
  opls_834  H834     1.0080     0.000    A    2.50000E-01   1.25520E-01
  opls_828  H828     1.0080     0.000    A    2.50000E-01   1.25520E-01
  opls_801  O801    15.9990     0.000    A    2.90000E-01   5.85760E-01
  opls_803  O803    15.9990     0.000    A    2.96000E-01   8.78640E-01
  opls_806  C806    12.0110     0.000    A    3.50000E-01   2.76144E-01
  opls_827  H827     1.0080     0.000    A    2.50000E-01   1.25520E-01
  opls_809  C809    12.0110     0.000    A    3.50000E-01   2.76144E-01
  opls_822  H822     1.0080     0.000    A    2.50000E-01   1.25520E-01
  opls_807  C807    12.0110     0.000    A    3.50000E-01   2.76144E-01
  opls_825  H825     1.0080     0.000    A    2.50000E-01   1.25520E-01
  opls_826  H826     1.0080     0.000    A    2.50000E-01   1.25520E-01
  opls_830  H830     1.0080     0.000    A    2.50000E-01   1.25520E-01
  opls_821  H821     1.0080     0.000    A    2.50000E-01   1.25520E-01
  opls_820  H820     1.0080     0.000    A    2.50000E-01   1.25520E-01
  opls_829  H829     1.0080     0.000    A    2.50000E-01   1.25520E-01
  opls_831  H831     1.0080     0.000    A    2.50000E-01   1.25520E-01
  opls_832  H832     1.0080     0.000    A    2.50000E-01   1.25520E-01
  opls_800  C800    12.0110     0.000    A    3.50000E-01   2.76144E-01
  opls_814  C814    12.0110     0.000    A    3.45000E-01   3.47272E-01
  opls_811  C811    12.0110     0.000    A    3.50000E-01   2.76144E-01
  opls_802  C802    12.0110     0.000    A    3.55000E-01   2.92880E-01
  opls_823  H823     1.0080     0.000    A    2.50000E-01   1.25520E-01
  opls_813  O813    15.9990     0.000    A    2.90000E-01   5.85760E-01
  opls_815  C815    12.0110     0.000    A    3.45000E-01   3.47272E-01
  opls_835  H835     1.0080     0.000    A    2.50000E-01   1.25520E-01
  opls_819  H819     1.0080     0.000    A    2.50000E-01   1.25520E-01
  opls_810  C810    12.0110     0.000    A    3.50000E-01   2.76144E-01
  opls_833  H833     1.0080     0.000    A    2.50000E-01   1.25520E-01
  opls_812  C812    12.0110     0.000    A    3.50000E-01   2.76144E-01
  opls_808  C808    12.0110     0.000    A    3.50000E-01   2.76144E-01
  opls_817  H817     1.0080     0.000    A    2.50000E-01   1.25520E-01
  opls_804  O804    15.9990     0.000    A    2.90000E-01   5.85760E-01
[ moleculetype ]
; Name               nrexcl
UNK                   3
[ atoms ]
;   nr       type  resnr residue  atom   cgnr     charge       mass  
     1   opls_800      1    UNK   C00      1    -0.0449    12.0110 
     2   opls_801      1    UNK   O01      1    -0.3172    15.9990 
     3   opls_802      1    UNK   C02      1     0.5843    12.0110 
     4   opls_803      1    UNK   O03      1    -0.4987    15.9990 
     5   opls_804      1    UNK   O04      1    -0.3253    15.9990 
     6   opls_805      1    UNK   C05      1     0.1875    12.0110 
     7   opls_806      1    UNK   C06      1    -0.2646    12.0110 
     8   opls_807      1    UNK   C07      1     -0.179    12.0110 
     9   opls_808      1    UNK   C08      1    -0.1678    12.0110 
    10   opls_809      1    UNK   C09      1    -0.1784    12.0110 
    11   opls_810      1    UNK   C0A      1    -0.1753    12.0110 
    12   opls_811      1    UNK   C0B      1    -0.1736    12.0110 
    13   opls_812      1    UNK   C0C      1     0.0572    12.0110 
    14   opls_813      1    UNK   O0D      1    -0.3357    15.9990 
    15   opls_814      1    UNK   C0E      1     0.0404    12.0110 
    16   opls_815      1    UNK   C0F      1    -0.2328    12.0110 
    17   opls_816      1    UNK   C0G      1    -0.2201    12.0110 
    18   opls_817      1    UNK   H0H      1     0.1071     1.0080 
    19   opls_818      1    UNK   H0I      1     0.1071     1.0080 
    20   opls_819      1    UNK   H0J      1     0.1071     1.0080 
    21   opls_820      1    UNK   H0K      1     0.1112     1.0080 
    22   opls_821      1    UNK   H0M      1     0.1112     1.0080 
    23   opls_822      1    UNK   H0N      1     0.1112     1.0080 
    24   opls_823      1    UNK   H0O      1     0.1321     1.0080 
    25   opls_824      1    UNK   H0P      1     0.1056     1.0080 
    26   opls_825      1    UNK   H0Q      1     0.1056     1.0080 
    27   opls_826      1    UNK   H0R      1     0.0926     1.0080 
    28   opls_827      1    UNK   H0S      1     0.0926     1.0080 
    29   opls_828      1    UNK   H0T      1     0.0935     1.0080 
    30   opls_829      1    UNK   H0U      1     0.0935     1.0080 
    31   opls_830      1    UNK   H0V      1     0.1034     1.0080 
    32   opls_831      1    UNK   H0W      1     0.1034     1.0080 
    33   opls_832      1    UNK   H0X      2     0.1131     1.0080 
    34   opls_833      1    UNK   H0Y      2     0.1402     1.0080 
    35   opls_834      1    UNK   H0Z      2     0.1402     1.0080 
    36   opls_835      1    UNK   H10      2     0.1366     1.0080 
    37   opls_836      1    UNK   H11      2     0.1366     1.0080 
[ bonds ]
    2     1     1      0.1410 267776.000
    3     2     1      0.1327 179075.200
    4     3     1      0.1229 476976.000
    5     3     1      0.1327 179075.200
    6     5     1      0.1410 267776.000
    7     6     1      0.1529 224262.400
    8     6     1      0.1529 224262.400
    9     8     1      0.1529 224262.400
   10     9     1      0.1529 224262.400
   11    10     1      0.1529 224262.400
   12    11     1      0.1529 224262.400
   13     8     1      0.1529 224262.400
   14    13     1      0.1410 267776.000
   15     6     1      0.1510 234304.000
   16    15     1      0.1520 217568.000
   17    15     1      0.1520 217568.000
   18     1     1      0.1090 284512.000
   19     1     1      0.1090 284512.000
   20     1     1      0.1090 284512.000
   21     7     1      0.1090 284512.000
   22     7     1      0.1090 284512.000
   23     7     1      0.1090 284512.000
   24     8     1      0.1090 284512.000
   25     9     1      0.1090 284512.000
   26     9     1      0.1090 284512.000
   27    10     1      0.1090 284512.000
   28    10     1      0.1090 284512.000
   29    11     1      0.1090 284512.000
   30    11     1      0.1090 284512.000
   31    12     1      0.1090 284512.000
   32    12     1      0.1090 284512.000
   33    13     1      0.1090 284512.000
   34    16     1      0.1088 284512.000
   35    16     1      0.1088 284512.000
   36    17     1      0.1088 284512.000
   37    17     1      0.1088 284512.000
   13    12     1      0.1529 224262.400
   15    14     1      0.1410 267776.000
   17    16     1      0.1520 217568.000

[ angles ]
;  ai    aj    ak funct            c0            c1            c2            c3 
    1     2     3     1    116.900    694.544
    2     3     4     1    123.400    694.544
    2     3     5     1    118.180    584.923
    3     5     6     1    116.900    694.544
    5     6     7     1    109.500    418.400
    5     6     8     1    109.500    418.400
    6     8     9     1    112.700    488.273
    8     9    10     1    112.700    488.273
    9    10    11     1    112.700    488.273
   10    11    12     1    112.700    488.273
    6     8    13     1    112.700    488.273
    8    13    14     1    109.500    418.400
    5     6    15     1    109.500    418.400
    6    15    16     1    117.200    313.800
    6    15    17     1    117.200    313.800
    2     1    18     1    109.500    292.880
    2     1    19     1    109.500    292.880
    2     1    20     1    109.500    292.880
    6     7    21     1    110.700    313.800
    6     7    22     1    110.700    313.800
    6     7    23     1    110.700    313.800
    6     8    24     1    110.700    313.800
    8     9    25     1    110.700    313.800
    8     9    26     1    110.700    313.800
    9    10    27     1    110.700    313.800
    9    10    28     1    110.700    313.800
   10    11    29     1    110.700    313.800
   10    11    30     1    110.700    313.800
   11    12    31     1    110.700    313.800
   11    12    32     1    110.700    313.800
    8    13    33     1    110.700    313.800
   15    16    34     1    117.200    313.800
   15    16    35     1    117.200    313.800
   15    17    36     1    117.200    313.800
   15    17    37     1    117.200    313.800
   13    14    15     1    109.500    502.080
   14    15    17     1    109.500    418.400
    8    13    12     1    112.700    488.273
   11    10    27     1    110.700    313.800
   17    16    35     1    117.200    313.800
   14    13    33     1    109.500    292.880
   25     9    26     1    107.800    276.144
   15    17    16     1     83.000    251.040
   11    12    13     1    112.700    488.273
    9     8    24     1    110.700    313.800
   27    10    28     1    107.800    276.144
   22     7    23     1    107.800    276.144
   10     9    26     1    110.700    313.800
   34    16    35     1    114.300    292.880
   13    12    31     1    110.700    313.800
    9     8    13     1    112.700    488.273
    4     3     5     1    123.400    694.544
   18     1    19     1    107.800    276.144
   36    17    37     1    114.300    292.880
    6    15    14     1    109.500    418.400
   12    11    30     1    110.700    313.800
    7     6    15     1    112.700    488.273
   21     7    22     1    107.800    276.144
   12    13    14     1    109.500    418.400
    7     6     8     1    112.700    488.273
   16    15    17     1     83.000    251.040
   14    15    16     1    109.500    418.400
   10     9    25     1    110.700    313.800
   16    17    36     1    117.200    313.800
   21     7    23     1    107.800    276.144
   11    10    28     1    110.700    313.800
   18     1    20     1    107.800    276.144
   15    16    17     1     83.000    251.040
    8     6    15     1    112.700    488.273
   13    12    32     1    110.700    313.800
   17    16    34     1    117.200    313.800
   19     1    20     1    107.800    276.144
   13     8    24     1    110.700    313.800
   31    12    32     1    107.800    276.144
   29    11    30     1    107.800    276.144
   12    13    33     1    110.700    313.800
   16    17    37     1    117.200    313.800
   12    11    29     1    110.700    313.800

[ dihedrals ]
; IMPROPER DIHEDRAL ANGLES 
;  ai    aj    ak    al funct            c0            c1            c2            c3            c4            c5
     5     3     2     4    4        180.000     43.932     2  

[ dihedrals ]
; PROPER DIHEDRAL ANGLES
;  ai    aj    ak    al funct            c0            c1            c2            c3            c4            c5
   12   11   10    9        3       2.301  -1.464   0.837  -1.674  -0.000   0.000
   11   12   13    8        3       2.301  -1.464   0.837  -1.674  -0.000   0.000
    9    8    6    7        3       2.301  -1.464   0.837  -1.674  -0.000   0.000
   12   13    8    9        3       2.301  -1.464   0.837  -1.674  -0.000   0.000
   13   12   11   10        3       2.301  -1.464   0.837  -1.674  -0.000   0.000
   13    8    6    7        3       2.301  -1.464   0.837  -1.674  -0.000   0.000
   12   13    8    6        3       2.301  -1.464   0.837  -1.674  -0.000   0.000
   13    8    9   10        3       2.301  -1.464   0.837  -1.674  -0.000   0.000
   10    9    8    6        3       2.301  -1.464   0.837  -1.674  -0.000   0.000
   11   10    9    8        3       2.301  -1.464   0.837  -1.674  -0.000   0.000
    9    8    6    5        3       2.874   0.582   2.092  -5.548  -0.000   0.000
   13    8    6    5        3       2.874   0.582   2.092  -5.548  -0.000   0.000
    7    6    5    3        3      -2.197   5.201   0.527  -3.531  -0.000   0.000
    8    6    5    3        3      -2.197   5.201   0.527  -3.531  -0.000   0.000
    6    5    3    4        3      21.439   0.000  -21.439  -0.000  -0.000   0.000
    6    5    3    2        3      31.206  -9.768  -21.439  -0.000  -0.000   0.000
   13   14   15    6        3       1.715   2.845   1.046  -5.607  -0.000   0.000
   15    6    8    9        3       2.301  -1.464   0.837  -1.674  -0.000   0.000
   15    6    8   13        3       2.301  -1.464   0.837  -1.674  -0.000   0.000
   15    6    5    3        3      -2.197   5.201   0.527  -3.531  -0.000   0.000
   17   15    6    7        3       0.000   0.000   0.000  -0.000  -0.000   0.000
   17   15    6    8        3       0.000   0.000   0.000  -0.000  -0.000   0.000
   16   15    6    8        3       0.000   0.000   0.000  -0.000  -0.000   0.000
   16   15    6    7        3       0.000   0.000   0.000  -0.000  -0.000   0.000
   17   15    6    5        3       0.000   0.000   0.000  -0.000  -0.000   0.000
   16   15    6    5        3       0.000   0.000   0.000  -0.000  -0.000   0.000
   17   15   14   13        3       1.715   2.845   1.046  -5.607  -0.000   0.000
   16   15   14   13        3       1.715   2.845   1.046  -5.607  -0.000   0.000
   15   14   13    8        3       1.715   2.845   1.046  -5.607  -0.000   0.000
   15   14   13   12        3       1.715   2.845   1.046  -5.607  -0.000   0.000
   28   10   11   12        3       0.628   1.883   0.000  -2.510  -0.000   0.000
   21    7    6    8        3       0.628   1.883   0.000  -2.510  -0.000   0.000
   33   13    8    6        3       0.628   1.883   0.000  -2.510  -0.000   0.000
   27   10   11   12        3       0.628   1.883   0.000  -2.510  -0.000   0.000
   33   13    8    9        3       0.628   1.883   0.000  -2.510  -0.000   0.000
   32   12   13    8        3       0.628   1.883   0.000  -2.510  -0.000   0.000
   29   11   10    9        3       0.628   1.883   0.000  -2.510  -0.000   0.000
   31   12   13    8        3       0.628   1.883   0.000  -2.510  -0.000   0.000
   30   11   12   13        3       0.628   1.883   0.000  -2.510  -0.000   0.000
   27   10    9    8        3       0.628   1.883   0.000  -2.510  -0.000   0.000
   26    9    8   13        3       0.628   1.883   0.000  -2.510  -0.000   0.000
   26    9    8    6        3       0.628   1.883   0.000  -2.510  -0.000   0.000
   33   13   12   11        3       0.628   1.883   0.000  -2.510  -0.000   0.000
   26    9   10   11        3       0.628   1.883   0.000  -2.510  -0.000   0.000
   28   10    9    8        3       0.628   1.883   0.000  -2.510  -0.000   0.000
   24    8    9   10        3       0.628   1.883   0.000  -2.510  -0.000   0.000
   25    9    8    6        3       0.628   1.883   0.000  -2.510  -0.000   0.000
   23    7    6    8        3       0.628   1.883   0.000  -2.510  -0.000   0.000
   25    9    8   13        3       0.628   1.883   0.000  -2.510  -0.000   0.000
   31   12   11   10        3       0.628   1.883   0.000  -2.510  -0.000   0.000
   24    8    6    7        3       0.628   1.883   0.000  -2.510  -0.000   0.000
   24    8   13   12        3       0.628   1.883   0.000  -2.510  -0.000   0.000
   30   11   10    9        3       0.628   1.883   0.000  -2.510  -0.000   0.000
   25    9   10   11        3       0.628   1.883   0.000  -2.510  -0.000   0.000
   32   12   11   10        3       0.628   1.883   0.000  -2.510  -0.000   0.000
   22    7    6    8        3       0.628   1.883   0.000  -2.510  -0.000   0.000
   29   11   12   13        3       0.628   1.883   0.000  -2.510  -0.000   0.000
   21    7    6   15        3       0.628   1.883   0.000  -2.510  -0.000   0.000
   22    7    6   15        3       0.628   1.883   0.000  -2.510  -0.000   0.000
   23    7    6   15        3       0.628   1.883   0.000  -2.510  -0.000   0.000
   24    8    6   15        3       0.628   1.883   0.000  -2.510  -0.000   0.000
   32   12   11   29        3       0.628   1.883   0.000  -2.510  -0.000   0.000
   32   12   11   30        3       0.628   1.883   0.000  -2.510  -0.000   0.000
   25    9    8   24        3       0.628   1.883   0.000  -2.510  -0.000   0.000
   30   11   10   27        3       0.628   1.883   0.000  -2.510  -0.000   0.000
   27   10    9   25        3       0.628   1.883   0.000  -2.510  -0.000   0.000
   33   13   12   32        3       0.628   1.883   0.000  -2.510  -0.000   0.000
   26    9    8   24        3       0.628   1.883   0.000  -2.510  -0.000   0.000
   28   10    9   26        3       0.628   1.883   0.000  -2.510  -0.000   0.000
   31   12   11   30        3       0.628   1.883   0.000  -2.510  -0.000   0.000
   29   11   10   28        3       0.628   1.883   0.000  -2.510  -0.000   0.000
   33   13    8   24        3       0.628   1.883   0.000  -2.510  -0.000   0.000
   33   13   12   31        3       0.628   1.883   0.000  -2.510  -0.000   0.000
   28   10    9   25        3       0.628   1.883   0.000  -2.510  -0.000   0.000
   30   11   10   28        3       0.628   1.883   0.000  -2.510  -0.000   0.000
   27   10    9   26        3       0.628   1.883   0.000  -2.510  -0.000   0.000
   31   12   11   29        3       0.628   1.883   0.000  -2.510  -0.000   0.000
   29   11   10   27        3       0.628   1.883   0.000  -2.510  -0.000   0.000
   22    7    6    5        3       0.979   2.937   0.000  -3.916  -0.000   0.000
   24    8   13   14        3       0.979   2.937   0.000  -3.916  -0.000   0.000
   23    7    6    5        3       0.979   2.937   0.000  -3.916  -0.000   0.000
   21    7    6    5        3       0.979   2.937   0.000  -3.916  -0.000   0.000
   24    8    6    5        3       0.979   2.937   0.000  -3.916  -0.000   0.000
   32   12   13   14        3       0.979   2.937   0.000  -3.916  -0.000   0.000
   31   12   13   14        3       0.979   2.937   0.000  -3.916  -0.000   0.000
   19    1    2    3        3       0.414   1.243   0.000  -1.657  -0.000   0.000
   18    1    2    3        3       0.414   1.243   0.000  -1.657  -0.000   0.000
   20    1    2    3        3       0.414   1.243   0.000  -1.657  -0.000   0.000
   33   13   14   15        3       1.590   4.770   0.000  -6.360  -0.000   0.000
   37   17   15    6        3       0.000   0.000   0.000  -0.000  -0.000   0.000
   36   17   15    6        3       0.000   0.000   0.000  -0.000  -0.000   0.000
   34   16   15    6        3       0.000   0.000   0.000  -0.000  -0.000   0.000
   35   16   15    6        3       0.000   0.000   0.000  -0.000  -0.000   0.000
   36   17   16   15        3       0.000   0.000   0.000  -0.000  -0.000   0.000
   34   16   15   17        3       0.000   0.000   0.000  -0.000  -0.000   0.000
   35   16   17   15        3       0.000   0.000   0.000  -0.000  -0.000   0.000
   34   16   17   15        3       0.000   0.000   0.000  -0.000  -0.000   0.000
   35   16   15   17        3       0.000   0.000   0.000  -0.000  -0.000   0.000
   36   17   15   16        3       0.000   0.000   0.000  -0.000  -0.000   0.000
   37   17   16   15        3       0.000   0.000   0.000  -0.000  -0.000   0.000
   37   17   15   16        3       0.000   0.000   0.000  -0.000  -0.000   0.000
   37   17   16   35        3       0.000   0.000   0.000  -0.000  -0.000   0.000
   36   17   16   35        3       0.000   0.000   0.000  -0.000  -0.000   0.000
   37   17   16   34        3       0.000   0.000   0.000  -0.000  -0.000   0.000
   36   17   16   34        3       0.000   0.000   0.000  -0.000  -0.000   0.000
   34   16   15   14        3       0.000   0.000   0.000  -0.000  -0.000   0.000
   35   16   15   14        3       0.000   0.000   0.000  -0.000  -0.000   0.000
   37   17   15   14        3       0.000   0.000   0.000  -0.000  -0.000   0.000
   36   17   15   14        3       0.000   0.000   0.000  -0.000  -0.000   0.000
    4    3    2    1        3      21.439   0.000  -21.439  -0.000  -0.000   0.000
    5    3    2    1        3      31.206  -9.768  -21.439  -0.000  -0.000   0.000
   14   13    8    9        3       2.874   0.582   2.092  -5.548  -0.000   0.000
   14   13    8    6        3       2.874   0.582   2.092  -5.548  -0.000   0.000
   14   13   12   11        3       2.874   0.582   2.092  -5.548  -0.000   0.000
   14   15    6    8        3      -1.157  -3.471   0.000   4.628  -0.000   0.000
   14   15    6    7        3      -1.157  -3.471   0.000   4.628  -0.000   0.000
   14   15    6    5        3      -1.151   1.151   0.000  -0.000  -0.000   0.000

[ pairs ]
     1     4    1
     1     5    1
     2     6    1
     4     6    1
     3     7    1
     3     8    1
     5     9    1
     7     9    1
     6    10    1
     6    12    1
     5    13    1
     3    15    1
     8    11    1
     5    14    1
     7    13    1
     9    12    1
     7    14    1
     5    16    1
     3    18    1
     5    17    1
     3    19    1
    10    13    1
     9    14    1
     7    16    1
     3    20    1
     9    15    1
     8    16    1
     7    17    1
    11    14    1
     8    17    1
     5    21    1
    12    15    1
     5    22    1
     5    23    1
    13    16    1
     8    21    1
     5    24    1
    13    17    1
     8    22    1
     8    23    1
     7    24    1
     6    25    1
     6    26    1
    10    24    1
     8    27    1
    15    21    1
    12    24    1
    11    25    1
     8    28    1
    15    22    1
    11    26    1
    15    23    1
    14    24    1
    13    25    1
     9    29    1
    15    24    1
    13    26    1
    12    27    1
     9    30    1
     8    31    1
     6    33    1
    12    28    1
     8    32    1
     6    34    1
    10    31    1
     6    35    1
    13    29    1
    10    32    1
     9    33    1
     6    36    1
    13    30    1
     6    37    1
    11    33    1
    14    31    1
    14    32    1
    15    33    1
    14    34    1
    24    25    1
    14    35    1
    24    26    1
    14    36    1
    14    37    1
    25    27    1
    26    27    1
    25    28    1
    26    28    1
    27    29    1
    28    29    1
    27    30    1
    24    33    1
    28    30    1
    29    31    1
    30    31    1
    29    32    1
    30    32    1
    31    33    1
    32    33    1
    34    36    1
    35    36    1
    34    37    1
    35    37    1

