
;
; GENERATED BY LigParGen Server
; Jorgensen Lab @ Yale University 
;
[ atomtypes ]
  opls_818  H818     1.0080     0.000    A    2.50000E-01   1.25520E-01
  opls_810  C810    12.0110     0.000    A    3.45000E-01   3.47272E-01
  opls_824  H824     1.0080     0.000    A    2.50000E-01   1.25520E-01
  opls_802  C802    12.0110     0.000    A    3.45000E-01   3.47272E-01
  opls_805  C805    12.0110     0.000    A    3.50000E-01   2.76144E-01
  opls_828  H828     1.0080     0.000    A    2.50000E-01   1.25520E-01
  opls_813  H813     1.0080     0.000    A    2.50000E-01   1.25520E-01
  opls_807  C807    12.0110     0.000    A    3.45000E-01   3.47272E-01
  opls_811  C811    12.0110     0.000    A    3.50000E-01   2.76144E-01
  opls_815  H815     1.0080     0.000    A    2.50000E-01   1.25520E-01
  opls_809  C809    12.0110     0.000    A    3.50000E-01   2.76144E-01
  opls_830  H830     1.0080     0.000    A    2.50000E-01   1.25520E-01
  opls_822  H822     1.0080     0.000    A    2.50000E-01   1.25520E-01
  opls_803  C803    12.0110     0.000    A    3.50000E-01   2.76144E-01
  opls_808  C808    12.0110     0.000    A    3.45000E-01   3.47272E-01
  opls_825  H825     1.0080     0.000    A    2.50000E-01   1.25520E-01
  opls_826  H826     1.0080     0.000    A    2.50000E-01   1.25520E-01
  opls_814  H814     1.0080     0.000    A    2.50000E-01   1.25520E-01
  opls_821  H821     1.0080     0.000    A    2.50000E-01   1.25520E-01
  opls_820  H820     1.0080     0.000    A    2.50000E-01   1.25520E-01
  opls_829  H829     1.0080     0.000    A    2.50000E-01   1.25520E-01
  opls_831  H831     1.0080     0.000    A    2.50000E-01   1.25520E-01
  opls_816  H816     1.0080     0.000    A    2.50000E-01   1.25520E-01
  opls_800  C800    12.0110     0.000    A    3.50000E-01   2.76144E-01
  opls_823  H823     1.0080     0.000    A    2.50000E-01   1.25520E-01
  opls_806  C806    12.0110     0.000    A    3.45000E-01   3.47272E-01
  opls_819  H819     1.0080     0.000    A    2.50000E-01   1.25520E-01
  opls_804  C804    12.0110     0.000    A    3.50000E-01   2.76144E-01
  opls_827  H827     1.0080     0.000    A    2.50000E-01   1.25520E-01
  opls_817  H817     1.0080     0.000    A    2.50000E-01   1.25520E-01
  opls_801  C801    12.0110     0.000    A    3.45000E-01   3.47272E-01
  opls_812  H812     1.0080     0.000    A    2.50000E-01   1.25520E-01
[ moleculetype ]
; Name               nrexcl
UNK                   3
[ atoms ]
;   nr       type  resnr residue  atom   cgnr     charge       mass  
     1   opls_800      1    UNK   C00      1    -0.2085    12.0110 
     2   opls_801      1    UNK   C01      1    -0.1301    12.0110 
     3   opls_802      1    UNK   C02      1    -0.2023    12.0110 
     4   opls_803      1    UNK   C03      1     0.0176    12.0110 
     5   opls_804      1    UNK   C04      1    -0.2247    12.0110 
     6   opls_805      1    UNK   C05      1    -0.2225    12.0110 
     7   opls_806      1    UNK   C06      1    -0.1932    12.0110 
     8   opls_807      1    UNK   C07      1    -0.1053    12.0110 
     9   opls_808      1    UNK   C08      1    -0.2627    12.0110 
    10   opls_809      1    UNK   C09      1    -0.1727    12.0110 
    11   opls_810      1    UNK   C0A      1    -0.0222    12.0110 
    12   opls_811      1    UNK   C0B      1    -0.1957    12.0110 
    13   opls_812      1    UNK   H0C      1     0.0878     1.0080 
    14   opls_813      1    UNK   H0D      1     0.0878     1.0080 
    15   opls_814      1    UNK   H0E      1     0.0878     1.0080 
    16   opls_815      1    UNK   H0F      1     0.1311     1.0080 
    17   opls_816      1    UNK   H0G      1     0.1368     1.0080 
    18   opls_817      1    UNK   H0H      1     0.0837     1.0080 
    19   opls_818      1    UNK   H0I      1     0.0837     1.0080 
    20   opls_819      1    UNK   H0J      1     0.0837     1.0080 
    21   opls_820      1    UNK   H0K      1     0.0848     1.0080 
    22   opls_821      1    UNK   H0M      1     0.0848     1.0080 
    23   opls_822      1    UNK   H0N      1     0.0848     1.0080 
    24   opls_823      1    UNK   H0O      1     0.1426     1.0080 
    25   opls_824      1    UNK   H0P      1     0.1277     1.0080 
    26   opls_825      1    UNK   H0Q      1     0.1277     1.0080 
    27   opls_826      1    UNK   H0R      1     0.0772     1.0080 
    28   opls_827      1    UNK   H0S      1     0.0772     1.0080 
    29   opls_828      1    UNK   H0T      1     0.0772     1.0080 
    30   opls_829      1    UNK   H0U      1     0.0853     1.0080 
    31   opls_830      1    UNK   H0V      1     0.0853     1.0080 
    32   opls_831      1    UNK   H0W      1     0.0853     1.0080 
[ bonds ]
    2     1     1      0.1510 234304.000
    3     2     1      0.1520 217568.000
    4     3     1      0.1510 234304.000
    5     4     1      0.1529 224262.400
    6     4     1      0.1529 224262.400
    7     4     1      0.1510 234304.000
    8     7     1      0.1520 217568.000
    9     7     1      0.1520 217568.000
   10     9     1      0.1510 234304.000
   11     2     1      0.1520 217568.000
   12    11     1      0.1510 234304.000
   13     1     1      0.1090 284512.000
   14     1     1      0.1090 284512.000
   15     1     1      0.1090 284512.000
   16     2     1      0.1088 284512.000
   17     3     1      0.1088 284512.000
   18     5     1      0.1090 284512.000
   19     5     1      0.1090 284512.000
   20     5     1      0.1090 284512.000
   21     6     1      0.1090 284512.000
   22     6     1      0.1090 284512.000
   23     6     1      0.1090 284512.000
   24     7     1      0.1088 284512.000
   25     8     1      0.1088 284512.000
   26     8     1      0.1088 284512.000
   27    10     1      0.1090 284512.000
   28    10     1      0.1090 284512.000
   29    10     1      0.1090 284512.000
   30    12     1      0.1090 284512.000
   31    12     1      0.1090 284512.000
   32    12     1      0.1090 284512.000
   11     3     1      0.1520 217568.000
    9     8     1      0.1520 217568.000
   11     9     1      0.1520 217568.000

[ angles ]
;  ai    aj    ak funct            c0            c1            c2            c3 
    1     2     3     1    117.200    313.800
    2     3     4     1    117.200    313.800
    3     4     5     1    112.700    488.273
    3     4     6     1    112.700    488.273
    3     4     7     1    112.700    488.273
    4     7     8     1    117.200    313.800
    4     7     9     1    117.200    313.800
    7     9    10     1    117.200    313.800
    1     2    11     1    117.200    313.800
    2    11    12     1    117.200    313.800
    2     1    13     1    110.700    313.800
    2     1    14     1    110.700    313.800
    2     1    15     1    110.700    313.800
    1     2    16     1    114.300    292.880
    2     3    17     1    117.200    313.800
    4     5    18     1    110.700    313.800
    4     5    19     1    110.700    313.800
    4     5    20     1    110.700    313.800
    4     6    21     1    110.700    313.800
    4     6    22     1    110.700    313.800
    4     6    23     1    110.700    313.800
    4     7    24     1    114.300    292.880
    7     8    25     1    117.200    313.800
    7     8    26     1    117.200    313.800
    9    10    27     1    110.700    313.800
    9    10    28     1    110.700    313.800
    9    10    29     1    110.700    313.800
   11    12    30     1    110.700    313.800
   11    12    31     1    110.700    313.800
   11    12    32     1    110.700    313.800
   27    10    28     1    107.800    276.144
    5     4     6     1    112.700    488.273
    9     8    25     1    117.200    313.800
   11     2    16     1    117.200    313.800
   13     1    14     1    107.800    276.144
    9     7    24     1    117.200    313.800
    5     4     7     1    112.700    488.273
   21     6    22     1    107.800    276.144
   18     5    20     1    107.800    276.144
    8     9    11     1     83.000    251.040
    6     4     7     1    112.700    488.273
   28    10    29     1    107.800    276.144
    9    11    12     1    117.200    313.800
    4     3    11     1    117.200    313.800
    8     7     9     1     83.000    251.040
   13     1    15     1    107.800    276.144
    7     9     8     1     83.000    251.040
   25     8    26     1    114.300    292.880
    3    11    12     1    117.200    313.800
    2    11     3     1     83.000    251.040
   30    12    32     1    107.800    276.144
    3     2    16     1    117.200    313.800
   30    12    31     1    107.800    276.144
    3     2    11     1     83.000    251.040
    2    11     9     1     83.000    251.040
    7     9    11     1     83.000    251.040
    2     3    11     1     83.000    251.040
   14     1    15     1    107.800    276.144
   22     6    23     1    107.800    276.144
    3    11     9     1     83.000    251.040
   11     3    17     1    117.200    313.800
   31    12    32     1    107.800    276.144
   19     5    20     1    107.800    276.144
   10     9    11     1    117.200    313.800
   18     5    19     1    107.800    276.144
    9     8    26     1    117.200    313.800
    7     8     9     1     83.000    251.040
    4     3    17     1    114.300    292.880
    8     7    24     1    117.200    313.800
    8     9    10     1    117.200    313.800
   27    10    29     1    107.800    276.144
   21     6    23     1    107.800    276.144

[ dihedrals ]
; IMPROPER DIHEDRAL ANGLES 
;  ai    aj    ak    al funct            c0            c1            c2            c3            c4            c5

[ dihedrals ]
; PROPER DIHEDRAL ANGLES
;  ai    aj    ak    al funct            c0            c1            c2            c3            c4            c5
    5    4    3    2        3       0.000   0.000   0.000  -0.000  -0.000   0.000
    6    4    3    2        3       0.000   0.000   0.000  -0.000  -0.000   0.000
    4    3    2    1        3       0.000   0.000   0.000  -0.000  -0.000   0.000
   12   11    2    1        3       0.000   0.000   0.000  -0.000  -0.000   0.000
   12   11    9   10        3       0.000   0.000   0.000  -0.000  -0.000   0.000
   12   11    3    4        3       0.000   0.000   0.000  -0.000  -0.000   0.000
   10    9    7    4        3       0.000   0.000   0.000  -0.000  -0.000   0.000
   12   11    2    3        3       0.000   0.000   0.000  -0.000  -0.000   0.000
   10    9    7    8        3       0.000   0.000   0.000  -0.000  -0.000   0.000
   12   11    9    8        3       0.000   0.000   0.000  -0.000  -0.000   0.000
   12   11    9    7        3       0.000   0.000   0.000  -0.000  -0.000   0.000
   12   11    3    2        3       0.000   0.000   0.000  -0.000  -0.000   0.000
   10    9    8    7        3       0.000   0.000   0.000  -0.000  -0.000   0.000
    4    3   11    2        3       0.000   0.000   0.000  -0.000  -0.000   0.000
   10    9   11    3        3       0.000   0.000   0.000  -0.000  -0.000   0.000
   10    9   11    2        3       0.000   0.000   0.000  -0.000  -0.000   0.000
    7    4    3    2        3       0.000   0.000   0.000  -0.000  -0.000   0.000
    9    7    4    6        3       0.000   0.000   0.000  -0.000  -0.000   0.000
    9    7    4    5        3       0.000   0.000   0.000  -0.000  -0.000   0.000
   11    3    4    6        3       0.000   0.000   0.000  -0.000  -0.000   0.000
    8    7    4    6        3       0.000   0.000   0.000  -0.000  -0.000   0.000
    8    7    4    5        3       0.000   0.000   0.000  -0.000  -0.000   0.000
   11    3    4    5        3       0.000   0.000   0.000  -0.000  -0.000   0.000
    9    7    4    3        3       0.000   0.000   0.000  -0.000  -0.000   0.000
    8    7    4    3        3       0.000   0.000   0.000  -0.000  -0.000   0.000
    9    7    4    8        3       0.000   0.000   0.000  -0.000  -0.000   0.000
   11    2    1    3        3       0.000   0.000   0.000  -0.000  -0.000   0.000
   11    3    4    7        3       0.000   0.000   0.000  -0.000  -0.000   0.000
    9   11    2    1        3       0.000   0.000   0.000  -0.000  -0.000   0.000
   11    9    7    4        3       0.000   0.000   0.000  -0.000  -0.000   0.000
    9   11    3    4        3       0.000   0.000   0.000  -0.000  -0.000   0.000
   11    9    7    8        3       0.000   0.000   0.000  -0.000  -0.000   0.000
    8    9   11    2        3       0.000   0.000   0.000  -0.000  -0.000   0.000
    7    9   11    3        3       0.000   0.000   0.000  -0.000  -0.000   0.000
   11    9    8    7        3       0.000   0.000   0.000  -0.000  -0.000   0.000
    9   11    2    3        3       0.000   0.000   0.000  -0.000  -0.000   0.000
    7    9   11    2        3       0.000   0.000   0.000  -0.000  -0.000   0.000
    8    9   11    3        3       0.000   0.000   0.000  -0.000  -0.000   0.000
    9   11    3    2        3       0.000   0.000   0.000  -0.000  -0.000   0.000
   21    6    4    5        3       0.628   1.883   0.000  -2.510  -0.000   0.000
   23    6    4    5        3       0.628   1.883   0.000  -2.510  -0.000   0.000
   22    6    4    5        3       0.628   1.883   0.000  -2.510  -0.000   0.000
   19    5    4    6        3       0.628   1.883   0.000  -2.510  -0.000   0.000
   20    5    4    6        3       0.628   1.883   0.000  -2.510  -0.000   0.000
   18    5    4    6        3       0.628   1.883   0.000  -2.510  -0.000   0.000
   20    5    4    3        3       0.628   1.883   0.000  -2.510  -0.000   0.000
   19    5    4    7        3       0.628   1.883   0.000  -2.510  -0.000   0.000
   22    6    4    3        3       0.628   1.883   0.000  -2.510  -0.000   0.000
   20    5    4    7        3       0.628   1.883   0.000  -2.510  -0.000   0.000
   19    5    4    3        3       0.628   1.883   0.000  -2.510  -0.000   0.000
   21    6    4    3        3       0.628   1.883   0.000  -2.510  -0.000   0.000
   18    5    4    3        3       0.628   1.883   0.000  -2.510  -0.000   0.000
   18    5    4    7        3       0.628   1.883   0.000  -2.510  -0.000   0.000
   21    6    4    7        3       0.628   1.883   0.000  -2.510  -0.000   0.000
   23    6    4    3        3       0.628   1.883   0.000  -2.510  -0.000   0.000
   22    6    4    7        3       0.628   1.883   0.000  -2.510  -0.000   0.000
   23    6    4    7        3       0.628   1.883   0.000  -2.510  -0.000   0.000
   30   12   11    3        3       0.628   1.883   0.000  -2.510  -0.000   0.000
   31   12   11    2        3       0.628   1.883   0.000  -2.510  -0.000   0.000
   32   12   11    2        3       0.628   1.883   0.000  -2.510  -0.000   0.000
   32   12   11    9        3       0.628   1.883   0.000  -2.510  -0.000   0.000
   31   12   11    9        3       0.628   1.883   0.000  -2.510  -0.000   0.000
   27   10    9   11        3       0.628   1.883   0.000  -2.510  -0.000   0.000
   31   12   11    3        3       0.628   1.883   0.000  -2.510  -0.000   0.000
   27   10    9    8        3       0.628   1.883   0.000  -2.510  -0.000   0.000
   14    1    2    3        3       0.628   1.883   0.000  -2.510  -0.000   0.000
   28   10    9    8        3       0.628   1.883   0.000  -2.510  -0.000   0.000
   28   10    9   11        3       0.628   1.883   0.000  -2.510  -0.000   0.000
   15    1    2    3        3       0.628   1.883   0.000  -2.510  -0.000   0.000
   28   10    9    7        3       0.628   1.883   0.000  -2.510  -0.000   0.000
   29   10    9    8        3       0.628   1.883   0.000  -2.510  -0.000   0.000
   15    1    2   11        3       0.628   1.883   0.000  -2.510  -0.000   0.000
   29   10    9   11        3       0.628   1.883   0.000  -2.510  -0.000   0.000
   13    1    2    3        3       0.628   1.883   0.000  -2.510  -0.000   0.000
   14    1    2   11        3       0.628   1.883   0.000  -2.510  -0.000   0.000
   32   12   11    3        3       0.628   1.883   0.000  -2.510  -0.000   0.000
   27   10    9    7        3       0.628   1.883   0.000  -2.510  -0.000   0.000
   13    1    2   11        3       0.628   1.883   0.000  -2.510  -0.000   0.000
   29   10    9    7        3       0.628   1.883   0.000  -2.510  -0.000   0.000
   30   12   11    9        3       0.628   1.883   0.000  -2.510  -0.000   0.000
   30   12   11    2        3       0.628   1.883   0.000  -2.510  -0.000   0.000
   24    7    4    5        3       0.628   1.883   0.000  -2.510  -0.000   0.000
   17    3    4    5        3       0.628   1.883   0.000  -2.510  -0.000   0.000
   24    7    4    6        3       0.628   1.883   0.000  -2.510  -0.000   0.000
   17    3    4    6        3       0.628   1.883   0.000  -2.510  -0.000   0.000
   17    3    4    7        3       0.000   0.000   0.000  -0.000  -0.000   0.000
   24    7    4    3        3       0.000   0.000   0.000  -0.000  -0.000   0.000
   16    2    1   14        3       0.628   1.883   0.000  -2.510  -0.000   0.000
   16    2    1   15        3       0.628   1.883   0.000  -2.510  -0.000   0.000
   16    2    1   13        3       0.628   1.883   0.000  -2.510  -0.000   0.000
   25    8    7    4        3       0.000   0.000   0.000  -0.000  -0.000   0.000
   17    3    2    1        3       0.000   0.000   0.000  -0.000  -0.000   0.000
   26    8    7    4        3       0.000   0.000   0.000  -0.000  -0.000   0.000
   25    8    9   10        3       0.000   0.000   0.000  -0.000  -0.000   0.000
   16    2    3    4        3       0.000   0.000   0.000  -0.000  -0.000   0.000
   26    8    9   10        3       0.000   0.000   0.000  -0.000  -0.000   0.000
   24    7    9   10        3       0.000   0.000   0.000  -0.000  -0.000   0.000
   16    2   11   12        3       0.000   0.000   0.000  -0.000  -0.000   0.000
   17    3   11   12        3       0.000   0.000   0.000  -0.000  -0.000   0.000
   24    7    9   11        3       0.000   0.000   0.000  -0.000  -0.000   0.000
   17    3    2   11        3       0.000   0.000   0.000  -0.000  -0.000   0.000
   16    2    3   11        3       0.000   0.000   0.000  -0.000  -0.000   0.000
   16    2   11    9        3       0.000   0.000   0.000  -0.000  -0.000   0.000
   25    8    9   11        3       0.000   0.000   0.000  -0.000  -0.000   0.000
   16    2   11    3        3       0.000   0.000   0.000  -0.000  -0.000   0.000
   26    8    9    7        3       0.000   0.000   0.000  -0.000  -0.000   0.000
   25    8    7    9        3       0.000   0.000   0.000  -0.000  -0.000   0.000
   26    8    7    9        3       0.000   0.000   0.000  -0.000  -0.000   0.000
   25    8    9    7        3       0.000   0.000   0.000  -0.000  -0.000   0.000
   24    7    8    9        3       0.000   0.000   0.000  -0.000  -0.000   0.000
   17    3   11    9        3       0.000   0.000   0.000  -0.000  -0.000   0.000
   26    8    9   11        3       0.000   0.000   0.000  -0.000  -0.000   0.000
   17    3   11    2        3       0.000   0.000   0.000  -0.000  -0.000   0.000
   24    7    9    8        3       0.000   0.000   0.000  -0.000  -0.000   0.000
   25    8    7   24        3       0.000   0.000   0.000  -0.000  -0.000   0.000
   26    8    7   24        3       0.000   0.000   0.000  -0.000  -0.000   0.000
   17    3    2   16        3       0.000   0.000   0.000  -0.000  -0.000   0.000

[ pairs ]
     1     4    1
     2     5    1
     2     6    1
     2     7    1
     2     8    1
     1     9    1
     3     8    1
     2    10    1
     5     8    1
     3    10    1
     1    12    1
     6     8    1
     5     9    1
     4    10    1
     6     9    1
     5    11    1
     4    12    1
     3    13    1
     6    11    1
     3    14    1
     3    15    1
     1    17    1
     7    12    1
     8    12    1
     4    16    1
     3    18    1
    10    12    1
     5    17    1
     3    19    1
     6    17    1
     3    20    1
    11    13    1
     7    17    1
     6    18    1
     3    21    1
    11    14    1
     9    16    1
     7    18    1
     6    19    1
     3    22    1
    11    15    1
     9    17    1
     7    19    1
     6    20    1
     5    21    1
     3    23    1
     7    20    1
     5    22    1
     3    24    1
    12    16    1
     7    21    1
     5    23    1
    13    16    1
    12    17    1
     7    22    1
     5    24    1
     4    25    1
    14    16    1
     7    23    1
     6    24    1
     4    26    1
    15    16    1
     2    30    1
    16    17    1
     3    30    1
     2    31    1
    10    24    1
     7    27    1
     3    31    1
     2    32    1
    11    24    1
    10    25    1
     8    27    1
     7    28    1
     3    32    1
    11    25    1
    10    26    1
     8    28    1
     7    29    1
    11    26    1
     8    29    1
    11    27    1
    11    28    1
     9    30    1
    11    29    1
     9    31    1
     9    32    1
    24    25    1
    24    26    1

