LIGPARGEN GENERATED GRO FILE
   32
    1UNK    C00    1   0.100   0.100   0.000
    1UNK    C01    2  -0.050   0.100   0.000
    1UNK    C02    3  -0.114   0.100   0.135
    1UNK    C03    4  -0.251   0.050   0.169
    1UNK    C04    5  -0.260   0.004   0.315
    1UNK    C05    6  -0.302  -0.064   0.081
    1UNK    C06    7  -0.313   0.183   0.148
    1UNK    C07    8  -0.423   0.240   0.073
    1UNK    C08    9  -0.290   0.231  -0.001
    1UNK    C09   10  -0.321   0.183  -0.140
    1UNK    C0A   11  -0.137   0.221   0.041
    1UNK    C0B   12  -0.068   0.354   0.050
    1UNK    H0C   13   0.137  -0.002   0.014
    1UNK    H0D   14   0.143   0.160   0.081
    1UNK    H0E   15   0.138   0.138  -0.095
    1UNK    H0F   16  -0.086   0.031  -0.074
    1UNK    H0G   17  -0.052   0.118   0.222
    1UNK    H0H   18  -0.200  -0.087   0.331
    1UNK    H0I   19  -0.364  -0.019   0.343
    1UNK    H0J   20  -0.223   0.079   0.385
    1UNK    H0K   21  -0.245  -0.156   0.100
    1UNK    H0M   22  -0.295  -0.045  -0.026
    1UNK    H0N   23  -0.408  -0.085   0.102
    1UNK    H0O   24  -0.286   0.249   0.232
    1UNK    H0P   25  -0.457   0.340   0.101
    1UNK    H0Q   26  -0.506   0.174   0.049
    1UNK    H0R   27  -0.421   0.141  -0.151
    1UNK    H0S   28  -0.250   0.109  -0.178
    1UNK    H0T   29  -0.315   0.270  -0.207
    1UNK    H0U   30  -0.080   0.407  -0.046
    1UNK    H0V   31   0.039   0.348   0.070
    1UNK    H0W   32  -0.113   0.417   0.128
   1.00000   1.00000   1.00000

