
;
; GENERATED BY LigParGen Server
; Jorgensen Lab @ Yale University 
;
[ atomtypes ]
  opls_818  H818     1.0080     0.000    A    2.50000E-01   1.25520E-01
  opls_824  H824     1.0080     0.000    A    2.50000E-01   1.25520E-01
  opls_836  H836     1.0080     0.000    A    2.50000E-01   1.25520E-01
  opls_834  H834     1.0080     0.000    A    2.50000E-01   1.25520E-01
  opls_828  H828     1.0080     0.000    A    2.50000E-01   1.25520E-01
  opls_801  O801    15.9990     0.000    A    2.90000E-01   5.85760E-01
  opls_803  O803    15.9990     0.000    A    2.96000E-01   8.78640E-01
  opls_806  C806    12.0110     0.000    A    3.50000E-01   2.76144E-01
  opls_827  H827     1.0080     0.000    A    2.50000E-01   1.25520E-01
  opls_812  C812    12.0110     0.000    A    3.50000E-01   2.76144E-01
  opls_822  H822     1.0080     0.000    A    2.50000E-01   1.25520E-01
  opls_807  C807    12.0110     0.000    A    3.50000E-01   2.76144E-01
  opls_825  H825     1.0080     0.000    A    2.50000E-01   1.25520E-01
  opls_830  H830     1.0080     0.000    A    2.50000E-01   1.25520E-01
  opls_810  O810    15.9990     0.000    A    2.96000E-01   8.78640E-01
  opls_805  C805    12.0110     0.000    A    3.50000E-01   2.76144E-01
  opls_820  H820     1.0080     0.000    A    2.50000E-01   1.25520E-01
  opls_809  C809    12.0110     0.000    A    3.55000E-01   2.92880E-01
  opls_821  H821     1.0080     0.000    A    2.50000E-01   1.25520E-01
  opls_831  H831     1.0080     0.000    A    2.50000E-01   1.25520E-01
  opls_832  H832     1.0080     0.000    A    2.50000E-01   1.25520E-01
  opls_800  C800    12.0110     0.000    A    3.50000E-01   2.76144E-01
  opls_811  C811    12.0110     0.000    A    3.50000E-01   2.76144E-01
  opls_802  C802    12.0110     0.000    A    3.55000E-01   2.92880E-01
  opls_823  H823     1.0080     0.000    A    2.50000E-01   1.25520E-01
  opls_808  O808    15.9990     0.000    A    2.90000E-01   5.85760E-01
  opls_813  C813    12.0110     0.000    A    3.50000E-01   2.76144E-01
  opls_816  O816    15.9990     0.000    A    2.90000E-01   5.85760E-01
  opls_826  H826     1.0080     0.000    A    2.50000E-01   1.25520E-01
  opls_815  N815    14.0070     0.000    A    3.20000E-01   7.11280E-01
  opls_819  H819     1.0080     0.000    A    2.50000E-01   1.25520E-01
  opls_804  C804    12.0110     0.000    A    3.50000E-01   2.76144E-01
  opls_833  H833     1.0080     0.000    A    2.50000E-01   1.25520E-01
  opls_817  C817    12.0110     0.000    A    3.50000E-01   2.76144E-01
  opls_835  H835     1.0080     0.000    A    2.50000E-01   1.25520E-01
  opls_829  H829     1.0080     0.000    A    2.50000E-01   1.25520E-01
  opls_814  C814    12.0110     0.000    A    3.30000E-01   2.76144E-01
[ moleculetype ]
; Name               nrexcl
UNK                   3
[ atoms ]
;   nr       type  resnr residue  atom   cgnr     charge       mass  
     1   opls_800      1    UNK   C00      1    -0.0598    12.0110 
     2   opls_801      1    UNK   O01      1    -0.3493    15.9990 
     3   opls_802      1    UNK   C02      1     0.4413    12.0110 
     4   opls_803      1    UNK   O03      1    -0.4451    15.9990 
     5   opls_804      1    UNK   C04      1    -0.1296    12.0110 
     6   opls_805      1    UNK   C05      1    -0.2363    12.0110 
     7   opls_806      1    UNK   C06      1     0.0706    12.0110 
     8   opls_807      1    UNK   C07      1    -0.2643    12.0110 
     9   opls_808      1    UNK   O08      1    -0.3597    15.9990 
    10   opls_809      1    UNK   C09      1     0.4461    12.0110 
    11   opls_810      1    UNK   O0A      1    -0.4382    15.9990 
    12   opls_811      1    UNK   C0B      1    -0.1862    12.0110 
    13   opls_812      1    UNK   C0C      1     0.2718    12.0110 
    14   opls_813      1    UNK   C0D      1    -0.2718    12.0110 
    15   opls_814      1    UNK   C0E      1     0.1402    12.0110 
    16   opls_815      1    UNK   N0F      1    -0.3597    14.0070 
    17   opls_816      1    UNK   O0G      1    -0.3701    15.9990 
    18   opls_817      1    UNK   C0H      1    -0.0553    12.0110 
    19   opls_818      1    UNK   H0I      1     0.1039     1.0080 
    20   opls_819      1    UNK   H0J      1     0.1039     1.0080 
    21   opls_820      1    UNK   H0K      1     0.1039     1.0080 
    22   opls_821      1    UNK   H0M      1     0.1513     1.0080 
    23   opls_822      1    UNK   H0N      1      0.101     1.0080 
    24   opls_823      1    UNK   H0O      1      0.101     1.0080 
    25   opls_824      1    UNK   H0P      1      0.101     1.0080 
    26   opls_825      1    UNK   H0Q      1     0.1571     1.0080 
    27   opls_826      1    UNK   H0R      1     0.1035     1.0080 
    28   opls_827      1    UNK   H0S      1     0.1035     1.0080 
    29   opls_828      1    UNK   H0T      1     0.1035     1.0080 
    30   opls_829      1    UNK   H0U      1     0.1538     1.0080 
    31   opls_830      1    UNK   H0V      1     0.1538     1.0080 
    32   opls_831      1    UNK   H0W      1     0.1115     1.0080 
    33   opls_832      1    UNK   H0X      2     0.1115     1.0080 
    34   opls_833      1    UNK   H0Y      2     0.1115     1.0080 
    35   opls_834      1    UNK   H0Z      2     0.0932     1.0080 
    36   opls_835      1    UNK   H10      2     0.0932     1.0080 
    37   opls_836      1    UNK   H11      2     0.0932     1.0080 
[ bonds ]
    2     1     1      0.1410 267776.000
    3     2     1      0.1327 179075.200
    4     3     1      0.1229 476976.000
    5     3     1      0.1522 265265.600
    6     5     1      0.1529 224262.400
    7     5     1      0.1529 224262.400
    8     7     1      0.1529 224262.400
    9     7     1      0.1410 267776.000
   10     9     1      0.1327 179075.200
   11    10     1      0.1229 476976.000
   12    10     1      0.1522 265265.600
   13    12     1      0.1529 224262.400
   14    13     1      0.1529 224262.400
   15    13     1      0.1470 326352.000
   16    15     1      0.1157 543920.000
   17    13     1      0.1410 267776.000
   18    17     1      0.1410 267776.000
   19     1     1      0.1090 284512.000
   20     1     1      0.1090 284512.000
   21     1     1      0.1090 284512.000
   22     5     1      0.1090 284512.000
   23     6     1      0.1090 284512.000
   24     6     1      0.1090 284512.000
   25     6     1      0.1090 284512.000
   26     7     1      0.1090 284512.000
   27     8     1      0.1090 284512.000
   28     8     1      0.1090 284512.000
   29     8     1      0.1090 284512.000
   30    12     1      0.1090 284512.000
   31    12     1      0.1090 284512.000
   32    14     1      0.1090 284512.000
   33    14     1      0.1090 284512.000
   34    14     1      0.1090 284512.000
   35    18     1      0.1090 284512.000
   36    18     1      0.1090 284512.000
   37    18     1      0.1090 284512.000

[ angles ]
;  ai    aj    ak funct            c0            c1            c2            c3 
    1     2     3     1    116.900    694.544
    2     3     4     1    123.400    694.544
    2     3     5     1    111.400    677.808
    3     5     6     1    111.100    527.184
    3     5     7     1    111.100    527.184
    5     7     8     1    112.700    488.273
    5     7     9     1    109.500    418.400
    7     9    10     1    116.900    694.544
    9    10    11     1    123.400    694.544
    9    10    12     1    111.400    677.808
   10    12    13     1    111.100    527.184
   12    13    14     1    112.700    488.273
   12    13    15     1    112.700    488.273
   13    15    16     1    180.000   1255.200
   12    13    17     1    109.500    418.400
   13    17    18     1    109.500    502.080
    2     1    19     1    109.500    292.880
    2     1    20     1    109.500    292.880
    2     1    21     1    109.500    292.880
    3     5    22     1    109.500    292.880
    5     6    23     1    110.700    313.800
    5     6    24     1    110.700    313.800
    5     6    25     1    110.700    313.800
    5     7    26     1    110.700    313.800
    7     8    27     1    110.700    313.800
    7     8    28     1    110.700    313.800
    7     8    29     1    110.700    313.800
   10    12    30     1    109.500    292.880
   10    12    31     1    109.500    292.880
   13    14    32     1    110.700    313.800
   13    14    33     1    110.700    313.800
   13    14    34     1    110.700    313.800
   17    18    35     1    109.500    292.880
   17    18    36     1    109.500    292.880
   17    18    37     1    109.500    292.880
   36    18    37     1    107.800    276.144
   14    13    17     1    109.500    418.400
   28     8    29     1    107.800    276.144
   27     8    29     1    107.800    276.144
   20     1    21     1    107.800    276.144
    6     5    22     1    110.700    313.800
   33    14    34     1    107.800    276.144
   13    12    31     1    110.700    313.800
    8     7    26     1    110.700    313.800
   14    13    15     1    112.700    488.273
    4     3     5     1    120.400    669.440
   13    12    30     1    110.700    313.800
   27     8    28     1    107.800    276.144
   35    18    37     1    107.800    276.144
    9     7    26     1    109.500    292.880
    6     5     7     1    112.700    488.273
   35    18    36     1    107.800    276.144
   23     6    24     1    107.800    276.144
   19     1    21     1    107.800    276.144
   19     1    20     1    107.800    276.144
   30    12    31     1    107.800    276.144
   24     6    25     1    107.800    276.144
   15    13    17     1    110.580    432.207
   23     6    25     1    107.800    276.144
   32    14    33     1    107.800    276.144
    7     5    22     1    110.700    313.800
   11    10    12     1    120.400    669.440
   32    14    34     1    107.800    276.144
    8     7     9     1    109.500    418.400

[ dihedrals ]
; IMPROPER DIHEDRAL ANGLES 
;  ai    aj    ak    al funct            c0            c1            c2            c3            c4            c5
    12    10     9    11    4        180.000     43.932     2  
     5     3     2     4    4        180.000     43.932     2  

[ dihedrals ]
; PROPER DIHEDRAL ANGLES
;  ai    aj    ak    al funct            c0            c1            c2            c3            c4            c5
   10    9    7    8        3      -2.197   5.201   0.527  -3.531  -0.000   0.000
   10    9    7    5        3      -2.197   5.201   0.527  -3.531  -0.000   0.000
   12   10    9    7        3      31.206  -9.768  -21.439  -0.000  -0.000   0.000
    5    3    2    1        3      31.206  -9.768  -21.439  -0.000  -0.000   0.000
    7    5    3    4        3       0.000   0.000   0.000  -0.000  -0.000   0.000
   13   12   10   11        3       0.000   0.000   0.000  -0.000  -0.000   0.000
    6    5    3    4        3       0.000   0.000   0.000  -0.000  -0.000   0.000
    7    5    3    2        3      -1.157  -3.471   0.000   4.628  -0.000   0.000
   13   12   10    9        3      -1.157  -3.471   0.000   4.628  -0.000   0.000
    6    5    3    2        3      -1.157  -3.471   0.000   4.628  -0.000   0.000
    8    7    5    3        3      -4.960   6.286   1.310  -2.636  -0.000   0.000
   14   13   12   10        3      -4.960   6.286   1.310  -2.636  -0.000   0.000
    8    7    5    6        3       2.301  -1.464   0.837  -1.674  -0.000   0.000
   18   17   13   14        3       1.715   2.845   1.046  -5.607  -0.000   0.000
   18   17   13   12        3       1.715   2.845   1.046  -5.607  -0.000   0.000
   18   17   13   15        3       1.715   2.845   1.046  -5.607  -0.000   0.000
   15   13   12   10        3      -4.960   6.286   1.310  -2.636  -0.000   0.000
   22    5    3    4        3       0.000   0.000   0.000  -0.000  -0.000   0.000
   31   12   10   11        3       0.000   0.000   0.000  -0.000  -0.000   0.000
   30   12   10   11        3       0.000   0.000   0.000  -0.000  -0.000   0.000
   30   12   10    9        3       0.276   0.828   0.000  -1.105  -0.000   0.000
   22    5    3    2        3       0.276   0.828   0.000  -1.105  -0.000   0.000
   31   12   10    9        3       0.276   0.828   0.000  -1.105  -0.000   0.000
   25    6    5    3        3      -0.209  -0.628   0.000   0.837  -0.000   0.000
   23    6    5    3        3      -0.209  -0.628   0.000   0.837  -0.000   0.000
   24    6    5    3        3      -0.209  -0.628   0.000   0.837  -0.000   0.000
   26    7    5    3        3      -0.209  -0.628   0.000   0.837  -0.000   0.000
   30   12   13   14        3       0.628   1.883   0.000  -2.510  -0.000   0.000
   25    6    5    7        3       0.628   1.883   0.000  -2.510  -0.000   0.000
   27    8    7    5        3       0.628   1.883   0.000  -2.510  -0.000   0.000
   28    8    7    5        3       0.628   1.883   0.000  -2.510  -0.000   0.000
   34   14   13   12        3       0.628   1.883   0.000  -2.510  -0.000   0.000
   22    5    7    8        3       0.628   1.883   0.000  -2.510  -0.000   0.000
   29    8    7    5        3       0.628   1.883   0.000  -2.510  -0.000   0.000
   26    7    5    6        3       0.628   1.883   0.000  -2.510  -0.000   0.000
   24    6    5    7        3       0.628   1.883   0.000  -2.510  -0.000   0.000
   32   14   13   12        3       0.628   1.883   0.000  -2.510  -0.000   0.000
   31   12   13   14        3       0.628   1.883   0.000  -2.510  -0.000   0.000
   33   14   13   12        3       0.628   1.883   0.000  -2.510  -0.000   0.000
   23    6    5    7        3       0.628   1.883   0.000  -2.510  -0.000   0.000
   32   14   13   15        3       0.766   2.297   0.000  -3.063  -0.000   0.000
   34   14   13   15        3       0.766   2.297   0.000  -3.063  -0.000   0.000
   33   14   13   15        3       0.766   2.297   0.000  -3.063  -0.000   0.000
   31   12   13   15        3       0.766   2.297   0.000  -3.063  -0.000   0.000
   30   12   13   15        3       0.766   2.297   0.000  -3.063  -0.000   0.000
   28    8    7   26        3       0.628   1.883   0.000  -2.510  -0.000   0.000
   23    6    5   22        3       0.628   1.883   0.000  -2.510  -0.000   0.000
   27    8    7   26        3       0.628   1.883   0.000  -2.510  -0.000   0.000
   24    6    5   22        3       0.628   1.883   0.000  -2.510  -0.000   0.000
   29    8    7   26        3       0.628   1.883   0.000  -2.510  -0.000   0.000
   25    6    5   22        3       0.628   1.883   0.000  -2.510  -0.000   0.000
   26    7    5   22        3       0.628   1.883   0.000  -2.510  -0.000   0.000
   32   14   13   17        3       0.979   2.937   0.000  -3.916  -0.000   0.000
   22    5    7    9        3       0.979   2.937   0.000  -3.916  -0.000   0.000
   30   12   13   17        3       0.979   2.937   0.000  -3.916  -0.000   0.000
   28    8    7    9        3       0.979   2.937   0.000  -3.916  -0.000   0.000
   33   14   13   17        3       0.979   2.937   0.000  -3.916  -0.000   0.000
   31   12   13   17        3       0.979   2.937   0.000  -3.916  -0.000   0.000
   27    8    7    9        3       0.979   2.937   0.000  -3.916  -0.000   0.000
   29    8    7    9        3       0.979   2.937   0.000  -3.916  -0.000   0.000
   34   14   13   17        3       0.979   2.937   0.000  -3.916  -0.000   0.000
   21    1    2    3        3       0.414   1.243   0.000  -1.657  -0.000   0.000
   19    1    2    3        3       0.414   1.243   0.000  -1.657  -0.000   0.000
   20    1    2    3        3       0.414   1.243   0.000  -1.657  -0.000   0.000
   26    7    9   10        3       0.414   1.243   0.000  -1.657  -0.000   0.000
   37   18   17   13        3       1.590   4.770   0.000  -6.360  -0.000   0.000
   35   18   17   13        3       1.590   4.770   0.000  -6.360  -0.000   0.000
   36   18   17   13        3       1.590   4.770   0.000  -6.360  -0.000   0.000
   16   15   13   12        3       0.000   0.000   0.000  -0.000  -0.000   0.000
   16   15   13   14        3       0.000   0.000   0.000  -0.000  -0.000   0.000
   11   10    9    7        3      21.439   0.000  -21.439  -0.000  -0.000   0.000
    4    3    2    1        3      21.439   0.000  -21.439  -0.000  -0.000   0.000
    9    7    5    3        3      -12.929  12.929   0.000  -0.000  -0.000   0.000
   17   13   12   10        3      -12.929  12.929   0.000  -0.000  -0.000   0.000
    9    7    5    6        3       2.874   0.582   2.092  -5.548  -0.000   0.000
   17   13   15   16        3       0.000   0.000   0.000  -0.000  -0.000   0.000

[ pairs ]
     1     4    1
     1     5    1
     2     6    1
     2     7    1
     4     6    1
     4     7    1
     3     8    1
     3     9    1
     6     8    1
     6     9    1
     5    10    1
     8    10    1
     7    11    1
     7    12    1
     9    13    1
     3    19    1
     3    20    1
    11    13    1
    10    14    1
     3    21    1
     2    22    1
    10    15    1
     4    22    1
     3    23    1
    10    17    1
     3    24    1
    12    16    1
     3    25    1
     3    26    1
    14    16    1
    12    18    1
     8    22    1
     7    23    1
     9    22    1
     7    24    1
    14    18    1
     7    25    1
     6    26    1
     5    27    1
    16    17    1
    15    18    1
     5    28    1
     5    29    1
    10    26    1
     9    27    1
     9    28    1
     9    29    1
     9    30    1
     9    31    1
    11    30    1
    11    31    1
    14    30    1
    12    32    1
    22    23    1
    15    30    1
    14    31    1
    12    33    1
    22    24    1
    15    31    1
    12    34    1
    22    25    1
    17    30    1
    15    32    1
    22    26    1
    17    31    1
    15    33    1
    13    35    1
    17    32    1
    15    34    1
    13    36    1
    17    33    1
    13    37    1
    17    34    1
    26    27    1
    26    28    1
    26    29    1

