LIGPARGEN GENERATED GRO FILE
   37
    1UNK    C00    1   0.100   0.100   0.000
    1UNK    O01    2  -0.043   0.100   0.000
    1UNK    C02    3  -0.098   0.100   0.125
    1UNK    O03    4  -0.034   0.100   0.229
    1UNK    C04    5  -0.249   0.100   0.116
    1UNK    C05    6  -0.297  -0.045   0.112
    1UNK    C06    7  -0.308   0.177   0.236
    1UNK    C07    8  -0.271   0.326   0.231
    1UNK    O08    9  -0.452   0.169   0.230
    1UNK    C09   10  -0.517   0.125   0.340
    1UNK    O0A   11  -0.463   0.084   0.443
    1UNK    C0B   12  -0.667   0.130   0.323
    1UNK    C0C   13  -0.724   0.273   0.316
    1UNK    C0D   14  -0.679   0.356   0.438
    1UNK    C0E   15  -0.680   0.339   0.190
    1UNK    N0F   16  -0.647   0.390   0.091
    1UNK    O0G   17  -0.868   0.254   0.319
    1UNK    C0H   18  -0.947   0.373   0.314
    1UNK    H0I   19   0.134   0.082  -0.102
    1UNK    H0J   20   0.140   0.020   0.064
    1UNK    H0K   21   0.137   0.198   0.033
    1UNK    H0M   22  -0.280   0.149   0.023
    1UNK    H0N   23  -0.266  -0.099   0.202
    1UNK    H0O   24  -0.254  -0.098   0.026
    1UNK    H0P   25  -0.406  -0.051   0.103
    1UNK    H0Q   26  -0.269   0.135   0.329
    1UNK    H0R   27  -0.309   0.373   0.139
    1UNK    H0S   28  -0.163   0.341   0.235
    1UNK    H0T   29  -0.317   0.379   0.315
    1UNK    H0U   30  -0.712   0.077   0.408
    1UNK    H0V   31  -0.694   0.071   0.234
    1UNK    H0W   32  -0.570   0.361   0.446
    1UNK    H0X   33  -0.720   0.314   0.530
    1UNK    H0Y   34  -0.714   0.459   0.431
    1UNK    H0Z   35  -1.052   0.343   0.310
    1UNK    H10   36  -0.925   0.432   0.224
    1UNK    H11   37  -0.932   0.434   0.404
   1.00000   1.00000   1.00000

