LIGPARGEN GENERATED GRO FILE
   23
    1UNK    C00    1   0.100   0.100   0.000
    1UNK    O01    2  -0.043   0.100   0.000
    1UNK    C02    3  -0.097   0.100   0.125
    1UNK    O03    4  -0.033   0.100   0.229
    1UNK    C04    5  -0.248   0.100   0.118
    1UNK    C05    6  -0.297  -0.045   0.111
    1UNK    C06    7  -0.313   0.180   0.233
    1UNK    C07    8  -0.290   0.125   0.374
    1UNK    S08    9  -0.265   0.353   0.223
    1UNK    O09   10  -0.301   0.402   0.092
    1UNK    O0A   11  -0.310   0.422   0.343
    1UNK    F0B   12  -0.107   0.360   0.228
    1UNK    H0C   13   0.134   0.081  -0.102
    1UNK    H0D   14   0.140   0.021   0.064
    1UNK    H0E   15   0.137   0.198   0.032
    1UNK    H0F   16  -0.276   0.149   0.023
    1UNK    H0G   17  -0.272  -0.101   0.201
    1UNK    H0H   18  -0.250  -0.098   0.027
    1UNK    H0I   19  -0.406  -0.049   0.097
    1UNK    H0J   20  -0.421   0.181   0.216
    1UNK    H0K   21  -0.186   0.132   0.405
    1UNK    H0M   22  -0.323   0.021   0.382
    1UNK    H0N   23  -0.348   0.183   0.447
   1.00000   1.00000   1.00000

