
;
; GENERATED BY LigParGen Server
; Jorgensen Lab @ Yale University 
;
[ atomtypes ]
  opls_808  C808    12.0110     0.000    A    3.50000E-01   2.76144E-01
  opls_814  C814    12.0110     0.000    A    3.50000E-01   2.76144E-01
  opls_855  H855     1.0080     0.000    A    2.50000E-01   1.25520E-01
  opls_824  H824     1.0080     0.000    A    2.50000E-01   1.25520E-01
  opls_815  C815    12.0110     0.000    A    3.50000E-01   2.76144E-01
  opls_805  C805    12.0110     0.000    A    3.50000E-01   2.76144E-01
  opls_818  C818    12.0110     0.000    A    3.50000E-01   2.76144E-01
  opls_843  H843     1.0080     0.000    A    2.50000E-01   1.25520E-01
  opls_836  H836     1.0080     0.000    A    2.50000E-01   1.25520E-01
  opls_834  H834     1.0080     0.000    A    2.50000E-01   1.25520E-01
  opls_810  C810    12.0110     0.000    A    3.50000E-01   2.76144E-01
  opls_828  H828     1.0080     0.000    A    2.50000E-01   1.25520E-01
  opls_851  H851     1.0080     0.000    A    2.50000E-01   1.25520E-01
  opls_812  C812    12.0110     0.000    A    3.50000E-01   2.76144E-01
  opls_802  C802    12.0110     0.000    A    3.50000E-01   2.76144E-01
  opls_827  H827     1.0080     0.000    A    2.50000E-01   1.25520E-01
  opls_809  C809    12.0110     0.000    A    3.50000E-01   2.76144E-01
  opls_806  C806    12.0110     0.000    A    3.50000E-01   2.76144E-01
  opls_822  H822     1.0080     0.000    A    2.50000E-01   1.25520E-01
  opls_803  C803    12.0110     0.000    A    3.50000E-01   2.76144E-01
  opls_838  H838     1.0080     0.000    A    2.50000E-01   1.25520E-01
  opls_830  H830     1.0080     0.000    A    2.50000E-01   1.25520E-01
  opls_821  H821     1.0080     0.000    A    2.50000E-01   1.25520E-01
  opls_842  H842     1.0080     0.000    A    2.50000E-01   1.25520E-01
  opls_820  H820     1.0080     0.000    A    2.50000E-01   1.25520E-01
  opls_837  H837     1.0080     0.000    A    2.50000E-01   1.25520E-01
  opls_829  H829     1.0080     0.000    A    2.50000E-01   1.25520E-01
  opls_831  H831     1.0080     0.000    A    2.50000E-01   1.25520E-01
  opls_853  H853     1.0080     0.000    A    2.50000E-01   1.25520E-01
  opls_832  H832     1.0080     0.000    A    2.50000E-01   1.25520E-01
  opls_800  C800    12.0110     0.000    A    3.50000E-01   2.76144E-01
  opls_846  H846     1.0080     0.000    A    2.50000E-01   1.25520E-01
  opls_848  H848     1.0080     0.000    A    2.50000E-01   1.25520E-01
  opls_811  C811    12.0110     0.000    A    3.50000E-01   2.76144E-01
  opls_823  H823     1.0080     0.000    A    2.50000E-01   1.25520E-01
  opls_813  C813    12.0110     0.000    A    3.50000E-01   2.76144E-01
  opls_826  H826     1.0080     0.000    A    2.50000E-01   1.25520E-01
  opls_835  H835     1.0080     0.000    A    2.50000E-01   1.25520E-01
  opls_841  H841     1.0080     0.000    A    2.50000E-01   1.25520E-01
  opls_825  H825     1.0080     0.000    A    2.50000E-01   1.25520E-01
  opls_804  C804    12.0110     0.000    A    3.50000E-01   2.76144E-01
  opls_833  H833     1.0080     0.000    A    2.50000E-01   1.25520E-01
  opls_839  H839     1.0080     0.000    A    2.50000E-01   1.25520E-01
  opls_817  C817    12.0110     0.000    A    3.50000E-01   2.76144E-01
  opls_852  H852     1.0080     0.000    A    2.50000E-01   1.25520E-01
  opls_801  C801    12.0110     0.000    A    3.50000E-01   2.76144E-01
  opls_816  F816    18.9984     0.000    A    2.90000E-01   2.51040E-01
  opls_850  H850     1.0080     0.000    A    2.50000E-01   1.25520E-01
  opls_840  H840     1.0080     0.000    A    2.50000E-01   1.25520E-01
  opls_849  H849     1.0080     0.000    A    2.50000E-01   1.25520E-01
  opls_847  H847     1.0080     0.000    A    2.50000E-01   1.25520E-01
  opls_819  F819    18.9984     0.000    A    2.90000E-01   2.51040E-01
  opls_844  H844     1.0080     0.000    A    2.50000E-01   1.25520E-01
  opls_845  H845     1.0080     0.000    A    2.50000E-01   1.25520E-01
  opls_854  H854     1.0080     0.000    A    2.50000E-01   1.25520E-01
  opls_807  C807    12.0110     0.000    A    3.50000E-01   2.76144E-01
[ moleculetype ]
; Name               nrexcl
UNK                   3
[ atoms ]
;   nr       type  resnr residue  atom   cgnr     charge       mass  
     1   opls_800      1    UNK   C00      1    -0.2389    12.0110 
     2   opls_801      1    UNK   C01      1    -0.1801    12.0110 
     3   opls_802      1    UNK   C02      1    -0.1789    12.0110 
     4   opls_803      1    UNK   C03      1      -0.18    12.0110 
     5   opls_804      1    UNK   C04      1    -0.1806    12.0110 
     6   opls_805      1    UNK   C05      1    -0.1804    12.0110 
     7   opls_806      1    UNK   C06      1    -0.1813    12.0110 
     8   opls_807      1    UNK   C07      1    -0.1775    12.0110 
     9   opls_808      1    UNK   C08      1    -0.1771    12.0110 
    10   opls_809      1    UNK   C09      1    -0.1714    12.0110 
    11   opls_810      1    UNK   C0A      1    -0.1133    12.0110 
    12   opls_811      1    UNK   C0B      1    -0.2351    12.0110 
    13   opls_812      1    UNK   C0C      1    -0.1678    12.0110 
    14   opls_813      1    UNK   C0D      1    -0.2071    12.0110 
    15   opls_814      1    UNK   C0E      1     0.0956    12.0110 
    16   opls_815      1    UNK   C0F      1     -0.272    12.0110 
    17   opls_816      1    UNK   F0G      1    -0.1707    18.9984 
    18   opls_817      1    UNK   C0H      1       0.04    12.0110 
    19   opls_818      1    UNK   C0I      1    -0.2791    12.0110 
    20   opls_819      1    UNK   F0J      1    -0.1722    18.9984 
    21   opls_820      1    UNK   H0K      1     0.0808     1.0080 
    22   opls_821      1    UNK   H0M      1     0.0808     1.0080 
    23   opls_822      1    UNK   H0N      1     0.0808     1.0080 
    24   opls_823      1    UNK   H0O      1     0.0886     1.0080 
    25   opls_824      1    UNK   H0P      1     0.0886     1.0080 
    26   opls_825      1    UNK   H0Q      1     0.0896     1.0080 
    27   opls_826      1    UNK   H0R      1     0.0896     1.0080 
    28   opls_827      1    UNK   H0S      1     0.0901     1.0080 
    29   opls_828      1    UNK   H0T      1     0.0901     1.0080 
    30   opls_829      1    UNK   H0U      1      0.089     1.0080 
    31   opls_830      1    UNK   H0V      1      0.089     1.0080 
    32   opls_831      1    UNK   H0W      1     0.0908     1.0080 
    33   opls_832      1    UNK   H0X      2     0.0908     1.0080 
    34   opls_833      1    UNK   H0Y      2     0.0896     1.0080 
    35   opls_834      1    UNK   H0Z      2     0.0896     1.0080 
    36   opls_835      1    UNK   H10      2     0.0892     1.0080 
    37   opls_836      1    UNK   H11      2     0.0892     1.0080 
    38   opls_837      1    UNK   H12      2     0.0931     1.0080 
    39   opls_838      1    UNK   H13      2     0.0931     1.0080 
    40   opls_839      1    UNK   H14      2     0.0868     1.0080 
    41   opls_840      1    UNK   H15      2     0.0868     1.0080 
    42   opls_841      1    UNK   H16      2     0.0904     1.0080 
    43   opls_842      1    UNK   H17      2     0.0831     1.0080 
    44   opls_843      1    UNK   H18      2     0.0831     1.0080 
    45   opls_844      1    UNK   H19      2     0.0831     1.0080 
    46   opls_845      1    UNK   H1A      2     0.0985     1.0080 
    47   opls_846      1    UNK   H1B      2     0.0985     1.0080 
    48   opls_847      1    UNK   H1C      2     0.1032     1.0080 
    49   opls_848      1    UNK   H1D      2     0.1032     1.0080 
    50   opls_849      1    UNK   H1E      2     0.1043     1.0080 
    51   opls_850      1    UNK   H1F      2     0.1043     1.0080 
    52   opls_851      1    UNK   H1G      2     0.1043     1.0080 
    53   opls_852      1    UNK   H1H      2     0.1113     1.0080 
    54   opls_853      1    UNK   H1I      2     0.1014     1.0080 
    55   opls_854      1    UNK   H1J      2     0.1014     1.0080 
    56   opls_855      1    UNK   H1K      2     0.1014     1.0080 
[ bonds ]
    2     1     1      0.1529 224262.400
    3     2     1      0.1529 224262.400
    4     3     1      0.1529 224262.400
    5     4     1      0.1529 224262.400
    6     5     1      0.1529 224262.400
    7     6     1      0.1529 224262.400
    8     7     1      0.1529 224262.400
    9     8     1      0.1529 224262.400
   10     9     1      0.1529 224262.400
   11    10     1      0.1529 224262.400
   12    11     1      0.1529 224262.400
   13    11     1      0.1529 224262.400
   14    13     1      0.1529 224262.400
   15    14     1      0.1529 224262.400
   16    15     1      0.1529 224262.400
   17    15     1      0.1360 307105.600
   18    15     1      0.1529 224262.400
   19    18     1      0.1529 224262.400
   20    18     1      0.1360 307105.600
   21     1     1      0.1090 284512.000
   22     1     1      0.1090 284512.000
   23     1     1      0.1090 284512.000
   24     2     1      0.1090 284512.000
   25     2     1      0.1090 284512.000
   26     3     1      0.1090 284512.000
   27     3     1      0.1090 284512.000
   28     4     1      0.1090 284512.000
   29     4     1      0.1090 284512.000
   30     5     1      0.1090 284512.000
   31     5     1      0.1090 284512.000
   32     6     1      0.1090 284512.000
   33     6     1      0.1090 284512.000
   34     7     1      0.1090 284512.000
   35     7     1      0.1090 284512.000
   36     8     1      0.1090 284512.000
   37     8     1      0.1090 284512.000
   38     9     1      0.1090 284512.000
   39     9     1      0.1090 284512.000
   40    10     1      0.1090 284512.000
   41    10     1      0.1090 284512.000
   42    11     1      0.1090 284512.000
   43    12     1      0.1090 284512.000
   44    12     1      0.1090 284512.000
   45    12     1      0.1090 284512.000
   46    13     1      0.1090 284512.000
   47    13     1      0.1090 284512.000
   48    14     1      0.1090 284512.000
   49    14     1      0.1090 284512.000
   50    16     1      0.1090 284512.000
   51    16     1      0.1090 284512.000
   52    16     1      0.1090 284512.000
   53    18     1      0.1090 284512.000
   54    19     1      0.1090 284512.000
   55    19     1      0.1090 284512.000
   56    19     1      0.1090 284512.000

[ angles ]
;  ai    aj    ak funct            c0            c1            c2            c3 
    1     2     3     1    112.700    488.273
    2     3     4     1    112.700    488.273
    3     4     5     1    112.700    488.273
    4     5     6     1    112.700    488.273
    5     6     7     1    112.700    488.273
    6     7     8     1    112.700    488.273
    7     8     9     1    112.700    488.273
    8     9    10     1    112.700    488.273
    9    10    11     1    112.700    488.273
   10    11    12     1    112.700    488.273
   10    11    13     1    112.700    488.273
   11    13    14     1    112.700    488.273
   13    14    15     1    112.700    488.273
   14    15    16     1    112.700    488.273
   14    15    17     1    109.500    418.400
   14    15    18     1    112.700    488.273
   15    18    19     1    112.700    488.273
   15    18    20     1    109.500    418.400
    2     1    21     1    110.700    313.800
    2     1    22     1    110.700    313.800
    2     1    23     1    110.700    313.800
    1     2    24     1    110.700    313.800
    1     2    25     1    110.700    313.800
    2     3    26     1    110.700    313.800
    2     3    27     1    110.700    313.800
    3     4    28     1    110.700    313.800
    3     4    29     1    110.700    313.800
    4     5    30     1    110.700    313.800
    4     5    31     1    110.700    313.800
    5     6    32     1    110.700    313.800
    5     6    33     1    110.700    313.800
    6     7    34     1    110.700    313.800
    6     7    35     1    110.700    313.800
    7     8    36     1    110.700    313.800
    7     8    37     1    110.700    313.800
    8     9    38     1    110.700    313.800
    8     9    39     1    110.700    313.800
    9    10    40     1    110.700    313.800
    9    10    41     1    110.700    313.800
   10    11    42     1    110.700    313.800
   11    12    43     1    110.700    313.800
   11    12    44     1    110.700    313.800
   11    12    45     1    110.700    313.800
   11    13    46     1    110.700    313.800
   11    13    47     1    110.700    313.800
   13    14    48     1    110.700    313.800
   13    14    49     1    110.700    313.800
   15    16    50     1    110.700    313.800
   15    16    51     1    110.700    313.800
   15    16    52     1    110.700    313.800
   15    18    53     1    110.700    313.800
   18    19    54     1    110.700    313.800
   18    19    55     1    110.700    313.800
   18    19    56     1    110.700    313.800
   54    19    56     1    107.800    276.144
   12    11    42     1    110.700    313.800
   55    19    56     1    107.800    276.144
   10     9    39     1    110.700    313.800
    9     8    36     1    110.700    313.800
   20    18    53     1    107.000    334.720
   51    16    52     1    107.800    276.144
   19    18    53     1    110.700    313.800
   43    12    45     1    107.800    276.144
   32     6    33     1    107.800    276.144
    7     6    32     1    110.700    313.800
    6     5    30     1    110.700    313.800
    3     2    25     1    110.700    313.800
    5     4    28     1    110.700    313.800
   50    16    51     1    107.800    276.144
    9     8    37     1    110.700    313.800
   40    10    41     1    107.800    276.144
   54    19    55     1    107.800    276.144
   11    10    41     1    110.700    313.800
   15    14    49     1    110.700    313.800
   16    15    18     1    112.700    488.273
   11    10    40     1    110.700    313.800
   14    13    47     1    110.700    313.800
   36     8    37     1    107.800    276.144
    8     7    35     1    110.700    313.800
    4     3    27     1    110.700    313.800
   43    12    44     1    107.800    276.144
   21     1    23     1    107.800    276.144
   24     2    25     1    107.800    276.144
   44    12    45     1    107.800    276.144
   19    18    20     1    109.500    418.400
    6     5    31     1    110.700    313.800
   14    13    46     1    110.700    313.800
   21     1    22     1    107.800    276.144
    4     3    26     1    110.700    313.800
    8     7    34     1    110.700    313.800
   34     7    35     1    107.800    276.144
   50    16    52     1    107.800    276.144
    5     4    29     1    110.700    313.800
   28     4    29     1    107.800    276.144
   26     3    27     1    107.800    276.144
   10     9    38     1    110.700    313.800
   22     1    23     1    107.800    276.144
   46    13    47     1    107.800    276.144
   48    14    49     1    107.800    276.144
   15    14    48     1    110.700    313.800
   12    11    13     1    112.700    488.273
   13    11    42     1    110.700    313.800
    3     2    24     1    110.700    313.800
    7     6    33     1    110.700    313.800
   16    15    17     1    109.500    418.400
   30     5    31     1    107.800    276.144
   38     9    39     1    107.800    276.144
   17    15    18     1    109.500    418.400

[ dihedrals ]
; IMPROPER DIHEDRAL ANGLES 
;  ai    aj    ak    al funct            c0            c1            c2            c3            c4            c5

[ dihedrals ]
; PROPER DIHEDRAL ANGLES
;  ai    aj    ak    al funct            c0            c1            c2            c3            c4            c5
    4    3    2    1        3       2.301  -1.464   0.837  -1.674  -0.000   0.000
   18   15   14   13        3       2.301  -1.464   0.837  -1.674  -0.000   0.000
   14   13   11   12        3       2.301  -1.464   0.837  -1.674  -0.000   0.000
   19   18   15   14        3       2.301  -1.464   0.837  -1.674  -0.000   0.000
   13   11   10    9        3       2.301  -1.464   0.837  -1.674  -0.000   0.000
   16   15   14   13        3       2.301  -1.464   0.837  -1.674  -0.000   0.000
   15   14   13   11        3       2.301  -1.464   0.837  -1.674  -0.000   0.000
   19   18   15   16        3       2.301  -1.464   0.837  -1.674  -0.000   0.000
   14   13   11   10        3       2.301  -1.464   0.837  -1.674  -0.000   0.000
   12   11   10    9        3       2.301  -1.464   0.837  -1.674  -0.000   0.000
   11   10    9    8        3       2.301  -1.464   0.837  -1.674  -0.000   0.000
   10    9    8    7        3       2.301  -1.464   0.837  -1.674  -0.000   0.000
    9    8    7    6        3       2.301  -1.464   0.837  -1.674  -0.000   0.000
    8    7    6    5        3       2.301  -1.464   0.837  -1.674  -0.000   0.000
    7    6    5    4        3       2.301  -1.464   0.837  -1.674  -0.000   0.000
    6    5    4    3        3       2.301  -1.464   0.837  -1.674  -0.000   0.000
    5    4    3    2        3       2.301  -1.464   0.837  -1.674  -0.000   0.000
   19   18   15   17        3      -0.209   1.883   1.674  -3.347  -0.000   0.000
   20   18   15   16        3      -0.209   1.883   1.674  -3.347  -0.000   0.000
   20   18   15   14        3      -0.209   1.883   1.674  -3.347  -0.000   0.000
   17   15   14   13        3      -0.209   1.883   1.674  -3.347  -0.000   0.000
   20   18   15   17        3      -4.707   6.799   0.000  -2.092  -0.000   0.000
   47   13   11   12        3       0.628   1.883   0.000  -2.510  -0.000   0.000
   29    4    5    6        3       0.628   1.883   0.000  -2.510  -0.000   0.000
   48   14   13   11        3       0.628   1.883   0.000  -2.510  -0.000   0.000
   43   12   11   13        3       0.628   1.883   0.000  -2.510  -0.000   0.000
   52   16   15   14        3       0.628   1.883   0.000  -2.510  -0.000   0.000
   27    3    2    1        3       0.628   1.883   0.000  -2.510  -0.000   0.000
   39    9    8    7        3       0.628   1.883   0.000  -2.510  -0.000   0.000
   36    8    9   10        3       0.628   1.883   0.000  -2.510  -0.000   0.000
   29    4    3    2        3       0.628   1.883   0.000  -2.510  -0.000   0.000
   47   13   14   15        3       0.628   1.883   0.000  -2.510  -0.000   0.000
   51   16   15   18        3       0.628   1.883   0.000  -2.510  -0.000   0.000
   47   13   11   10        3       0.628   1.883   0.000  -2.510  -0.000   0.000
   34    7    8    9        3       0.628   1.883   0.000  -2.510  -0.000   0.000
   37    8    7    6        3       0.628   1.883   0.000  -2.510  -0.000   0.000
   44   12   11   10        3       0.628   1.883   0.000  -2.510  -0.000   0.000
   24    2    3    4        3       0.628   1.883   0.000  -2.510  -0.000   0.000
   49   14   15   16        3       0.628   1.883   0.000  -2.510  -0.000   0.000
   40   10    9    8        3       0.628   1.883   0.000  -2.510  -0.000   0.000
   46   13   11   12        3       0.628   1.883   0.000  -2.510  -0.000   0.000
   26    3    4    5        3       0.628   1.883   0.000  -2.510  -0.000   0.000
   31    5    4    3        3       0.628   1.883   0.000  -2.510  -0.000   0.000
   49   14   15   18        3       0.628   1.883   0.000  -2.510  -0.000   0.000
   28    4    5    6        3       0.628   1.883   0.000  -2.510  -0.000   0.000
   44   12   11   13        3       0.628   1.883   0.000  -2.510  -0.000   0.000
   37    8    9   10        3       0.628   1.883   0.000  -2.510  -0.000   0.000
   25    2    3    4        3       0.628   1.883   0.000  -2.510  -0.000   0.000
   42   11   10    9        3       0.628   1.883   0.000  -2.510  -0.000   0.000
   41   10   11   13        3       0.628   1.883   0.000  -2.510  -0.000   0.000
   46   13   11   10        3       0.628   1.883   0.000  -2.510  -0.000   0.000
   48   14   15   16        3       0.628   1.883   0.000  -2.510  -0.000   0.000
   52   16   15   18        3       0.628   1.883   0.000  -2.510  -0.000   0.000
   53   18   15   14        3       0.628   1.883   0.000  -2.510  -0.000   0.000
   48   14   15   18        3       0.628   1.883   0.000  -2.510  -0.000   0.000
   45   12   11   13        3       0.628   1.883   0.000  -2.510  -0.000   0.000
   50   16   15   18        3       0.628   1.883   0.000  -2.510  -0.000   0.000
   42   11   13   14        3       0.628   1.883   0.000  -2.510  -0.000   0.000
   40   10   11   12        3       0.628   1.883   0.000  -2.510  -0.000   0.000
   36    8    7    6        3       0.628   1.883   0.000  -2.510  -0.000   0.000
   39    9   10   11        3       0.628   1.883   0.000  -2.510  -0.000   0.000
   22    1    2    3        3       0.628   1.883   0.000  -2.510  -0.000   0.000
   33    6    7    8        3       0.628   1.883   0.000  -2.510  -0.000   0.000
   32    6    7    8        3       0.628   1.883   0.000  -2.510  -0.000   0.000
   46   13   14   15        3       0.628   1.883   0.000  -2.510  -0.000   0.000
   32    6    5    4        3       0.628   1.883   0.000  -2.510  -0.000   0.000
   34    7    6    5        3       0.628   1.883   0.000  -2.510  -0.000   0.000
   30    5    6    7        3       0.628   1.883   0.000  -2.510  -0.000   0.000
   33    6    5    4        3       0.628   1.883   0.000  -2.510  -0.000   0.000
   56   19   18   15        3       0.628   1.883   0.000  -2.510  -0.000   0.000
   35    7    6    5        3       0.628   1.883   0.000  -2.510  -0.000   0.000
   30    5    4    3        3       0.628   1.883   0.000  -2.510  -0.000   0.000
   53   18   15   16        3       0.628   1.883   0.000  -2.510  -0.000   0.000
   40   10   11   13        3       0.628   1.883   0.000  -2.510  -0.000   0.000
   41   10   11   12        3       0.628   1.883   0.000  -2.510  -0.000   0.000
   35    7    8    9        3       0.628   1.883   0.000  -2.510  -0.000   0.000
   28    4    3    2        3       0.628   1.883   0.000  -2.510  -0.000   0.000
   45   12   11   10        3       0.628   1.883   0.000  -2.510  -0.000   0.000
   50   16   15   14        3       0.628   1.883   0.000  -2.510  -0.000   0.000
   27    3    4    5        3       0.628   1.883   0.000  -2.510  -0.000   0.000
   38    9    8    7        3       0.628   1.883   0.000  -2.510  -0.000   0.000
   21    1    2    3        3       0.628   1.883   0.000  -2.510  -0.000   0.000
   26    3    2    1        3       0.628   1.883   0.000  -2.510  -0.000   0.000
   43   12   11   10        3       0.628   1.883   0.000  -2.510  -0.000   0.000
   41   10    9    8        3       0.628   1.883   0.000  -2.510  -0.000   0.000
   49   14   13   11        3       0.628   1.883   0.000  -2.510  -0.000   0.000
   23    1    2    3        3       0.628   1.883   0.000  -2.510  -0.000   0.000
   38    9   10   11        3       0.628   1.883   0.000  -2.510  -0.000   0.000
   55   19   18   15        3       0.628   1.883   0.000  -2.510  -0.000   0.000
   51   16   15   14        3       0.628   1.883   0.000  -2.510  -0.000   0.000
   31    5    6    7        3       0.628   1.883   0.000  -2.510  -0.000   0.000
   54   19   18   15        3       0.628   1.883   0.000  -2.510  -0.000   0.000
   50   16   15   17        3       0.837   2.510   0.000  -3.347  -0.000   0.000
   54   19   18   20        3       0.837   2.510   0.000  -3.347  -0.000   0.000
   55   19   18   20        3       0.837   2.510   0.000  -3.347  -0.000   0.000
   56   19   18   20        3       0.837   2.510   0.000  -3.347  -0.000   0.000
   49   14   15   17        3       0.837   2.510   0.000  -3.347  -0.000   0.000
   53   18   15   17        3       0.837   2.510   0.000  -3.347  -0.000   0.000
   52   16   15   17        3       0.837   2.510   0.000  -3.347  -0.000   0.000
   51   16   15   17        3       0.837   2.510   0.000  -3.347  -0.000   0.000
   48   14   15   17        3       0.837   2.510   0.000  -3.347  -0.000   0.000
   35    7    6   33        3       0.628   1.883   0.000  -2.510  -0.000   0.000
   38    9    8   36        3       0.628   1.883   0.000  -2.510  -0.000   0.000
   27    3    2   25        3       0.628   1.883   0.000  -2.510  -0.000   0.000
   30    5    4   28        3       0.628   1.883   0.000  -2.510  -0.000   0.000
   28    4    3   26        3       0.628   1.883   0.000  -2.510  -0.000   0.000
   38    9    8   37        3       0.628   1.883   0.000  -2.510  -0.000   0.000
   49   14   13   47        3       0.628   1.883   0.000  -2.510  -0.000   0.000
   34    7    6   33        3       0.628   1.883   0.000  -2.510  -0.000   0.000
   35    7    6   32        3       0.628   1.883   0.000  -2.510  -0.000   0.000
   25    2    1   22        3       0.628   1.883   0.000  -2.510  -0.000   0.000
   39    9    8   37        3       0.628   1.883   0.000  -2.510  -0.000   0.000
   41   10    9   38        3       0.628   1.883   0.000  -2.510  -0.000   0.000
   29    4    3   27        3       0.628   1.883   0.000  -2.510  -0.000   0.000
   39    9    8   36        3       0.628   1.883   0.000  -2.510  -0.000   0.000
   32    6    5   31        3       0.628   1.883   0.000  -2.510  -0.000   0.000
   36    8    7   34        3       0.628   1.883   0.000  -2.510  -0.000   0.000
   47   13   11   42        3       0.628   1.883   0.000  -2.510  -0.000   0.000
   45   12   11   42        3       0.628   1.883   0.000  -2.510  -0.000   0.000
   42   11   10   40        3       0.628   1.883   0.000  -2.510  -0.000   0.000
   29    4    3   26        3       0.628   1.883   0.000  -2.510  -0.000   0.000
   28    4    3   27        3       0.628   1.883   0.000  -2.510  -0.000   0.000
   37    8    7   35        3       0.628   1.883   0.000  -2.510  -0.000   0.000
   56   19   18   53        3       0.628   1.883   0.000  -2.510  -0.000   0.000
   27    3    2   24        3       0.628   1.883   0.000  -2.510  -0.000   0.000
   26    3    2   25        3       0.628   1.883   0.000  -2.510  -0.000   0.000
   25    2    1   21        3       0.628   1.883   0.000  -2.510  -0.000   0.000
   25    2    1   23        3       0.628   1.883   0.000  -2.510  -0.000   0.000
   31    5    4   28        3       0.628   1.883   0.000  -2.510  -0.000   0.000
   30    5    4   29        3       0.628   1.883   0.000  -2.510  -0.000   0.000
   24    2    1   22        3       0.628   1.883   0.000  -2.510  -0.000   0.000
   46   13   11   42        3       0.628   1.883   0.000  -2.510  -0.000   0.000
   31    5    4   29        3       0.628   1.883   0.000  -2.510  -0.000   0.000
   40   10    9   38        3       0.628   1.883   0.000  -2.510  -0.000   0.000
   32    6    5   30        3       0.628   1.883   0.000  -2.510  -0.000   0.000
   54   19   18   53        3       0.628   1.883   0.000  -2.510  -0.000   0.000
   40   10    9   39        3       0.628   1.883   0.000  -2.510  -0.000   0.000
   26    3    2   24        3       0.628   1.883   0.000  -2.510  -0.000   0.000
   36    8    7   35        3       0.628   1.883   0.000  -2.510  -0.000   0.000
   48   14   13   47        3       0.628   1.883   0.000  -2.510  -0.000   0.000
   55   19   18   53        3       0.628   1.883   0.000  -2.510  -0.000   0.000
   33    6    5   31        3       0.628   1.883   0.000  -2.510  -0.000   0.000
   43   12   11   42        3       0.628   1.883   0.000  -2.510  -0.000   0.000
   34    7    6   32        3       0.628   1.883   0.000  -2.510  -0.000   0.000
   49   14   13   46        3       0.628   1.883   0.000  -2.510  -0.000   0.000
   42   11   10   41        3       0.628   1.883   0.000  -2.510  -0.000   0.000
   24    2    1   23        3       0.628   1.883   0.000  -2.510  -0.000   0.000
   33    6    5   30        3       0.628   1.883   0.000  -2.510  -0.000   0.000
   41   10    9   39        3       0.628   1.883   0.000  -2.510  -0.000   0.000
   48   14   13   46        3       0.628   1.883   0.000  -2.510  -0.000   0.000
   44   12   11   42        3       0.628   1.883   0.000  -2.510  -0.000   0.000
   37    8    7   34        3       0.628   1.883   0.000  -2.510  -0.000   0.000
   24    2    1   21        3       0.628   1.883   0.000  -2.510  -0.000   0.000

[ pairs ]
     1     4    1
     2     5    1
     3     6    1
     4     7    1
     5     8    1
     6     9    1
     7    10    1
     8    11    1
     9    12    1
     9    13    1
    10    14    1
     3    21    1
     3    22    1
    12    14    1
    11    15    1
     3    23    1
     1    26    1
     4    24    1
     1    27    1
    13    16    1
     4    25    1
    13    17    1
     2    28    1
    13    18    1
     5    26    1
     2    29    1
     5    27    1
    14    19    1
     3    30    1
    14    20    1
     6    28    1
     3    31    1
    16    19    1
     6    29    1
    17    19    1
    16    20    1
     4    32    1
    17    20    1
     7    30    1
     4    33    1
     7    31    1
     5    34    1
     8    32    1
     5    35    1
     8    33    1
     6    36    1
     9    34    1
     6    37    1
     9    35    1
    21    24    1
     7    38    1
    22    24    1
    21    25    1
    10    36    1
     7    39    1
    23    24    1
    22    25    1
    10    37    1
    23    25    1
     8    40    1
    11    38    1
     8    41    1
    24    26    1
    11    39    1
    25    26    1
    24    27    1
     9    42    1
    25    27    1
    12    40    1
    13    40    1
    12    41    1
    10    43    1
    26    28    1
    13    41    1
    10    44    1
    27    28    1
    26    29    1
    10    45    1
    27    29    1
    14    42    1
    13    43    1
    10    46    1
    13    44    1
    10    47    1
    28    30    1
    13    45    1
    12    46    1
    29    30    1
    28    31    1
    12    47    1
    11    48    1
    29    31    1
    11    49    1
    15    46    1
    30    32    1
    15    47    1
    31    32    1
    30    33    1
    31    33    1
    16    48    1
    14    50    1
    17    48    1
    16    49    1
    14    51    1
    32    34    1
    18    48    1
    17    49    1
    14    52    1
    33    34    1
    32    35    1
    18    49    1
    17    50    1
    14    53    1
    33    35    1
    18    50    1
    17    51    1
    18    51    1
    17    52    1
    16    53    1
    15    54    1
    34    36    1
    18    52    1
    17    53    1
    15    55    1
    35    36    1
    34    37    1
    15    56    1
    35    37    1
    36    38    1
    20    54    1
    37    38    1
    36    39    1
    20    55    1
    37    39    1
    20    56    1
    38    40    1
    39    40    1
    38    41    1
    39    41    1
    40    42    1
    41    42    1
    42    43    1
    42    44    1
    42    45    1
    42    46    1
    42    47    1
    46    48    1
    47    48    1
    46    49    1
    47    49    1
    53    54    1
    53    55    1
    53    56    1

