LIGPARGEN GENERATED GRO FILE
   56
    1UNK    C00    1   0.100   0.100   0.000
    1UNK    C01    2  -0.052   0.100   0.000
    1UNK    C02    3  -0.107   0.100   0.142
    1UNK    C03    4  -0.259   0.100   0.141
    1UNK    C04    5  -0.314   0.100   0.283
    1UNK    C05    6  -0.467   0.099   0.282
    1UNK    C06    7  -0.519   0.099   0.425
    1UNK    C07    8  -0.672   0.105   0.428
    1UNK    C08    9  -0.725   0.105   0.572
    1UNK    C09   10  -0.685   0.231   0.650
    1UNK    C0A   11  -0.723   0.228   0.799
    1UNK    C0B   12  -0.875   0.230   0.816
    1UNK    C0C   13  -0.660   0.110   0.878
    1UNK    C0D   14  -0.507   0.111   0.872
    1UNK    C0E   15  -0.439  -0.008   0.944
    1UNK    C0F   16  -0.476  -0.017   1.091
    1UNK    F0G   17  -0.487  -0.122   0.884
    1UNK    C0H   18  -0.286  -0.006   0.922
    1UNK    C0I   19  -0.215   0.119   0.972
    1UNK    F0J   20  -0.231  -0.113   0.987
    1UNK    H0K   21   0.138   0.100  -0.103
    1UNK    H0M   22   0.139   0.011   0.051
    1UNK    H0N   23   0.139   0.189   0.051
    1UNK    H0O   24  -0.088   0.012  -0.054
    1UNK    H0P   25  -0.088   0.188  -0.054
    1UNK    H0Q   26  -0.070   0.188   0.196
    1UNK    H0R   27  -0.070   0.012   0.196
    1UNK    H0S   28  -0.296   0.012   0.087
    1UNK    H0T   29  -0.296   0.188   0.088
    1UNK    H0U   30  -0.278   0.188   0.337
    1UNK    H0V   31  -0.277   0.012   0.337
    1UNK    H0W   32  -0.504   0.011   0.228
    1UNK    H0X   33  -0.504   0.188   0.229
    1UNK    H0Y   34  -0.476   0.186   0.476
    1UNK    H0Z   35  -0.484   0.009   0.477
    1UNK    H10   36  -0.713   0.018   0.376
    1UNK    H11   37  -0.707   0.195   0.375
    1UNK    H12   38  -0.689   0.015   0.621
    1UNK    H13   39  -0.834   0.098   0.568
    1UNK    H14   40  -0.731   0.319   0.603
    1UNK    H15   41  -0.577   0.248   0.644
    1UNK    H16   42  -0.685   0.321   0.844
    1UNK    H17   43  -0.921   0.138   0.778
    1UNK    H18   44  -0.919   0.314   0.761
    1UNK    H19   45  -0.902   0.240   0.921
    1UNK    H1A   46  -0.699   0.015   0.841
    1UNK    H1B   47  -0.692   0.119   0.982
    1UNK    H1C   48  -0.471   0.206   0.914
    1UNK    H1D   49  -0.475   0.107   0.768
    1UNK    H1E   50  -0.582  -0.041   1.104
    1UNK    H1F   51  -0.455   0.076   1.145
    1UNK    H1G   52  -0.421  -0.098   1.140
    1UNK    H1H   53  -0.264  -0.020   0.816
    1UNK    H1I   54  -0.231   0.134   1.080
    1UNK    H1J   55  -0.247   0.209   0.919
    1UNK    H1K   56  -0.107   0.107   0.959
   1.00000   1.00000   1.00000

