LIGPARGEN GENERATED GRO FILE
   39
    1UNK    C00    1   0.100   0.100   0.000
    1UNK    C01    2  -0.052   0.100   0.000
    1UNK    C02    3  -0.111   0.100   0.142
    1UNK    C03    4  -0.267   0.114   0.161
    1UNK    C04    5  -0.347  -0.007   0.104
    1UNK    C05    6  -0.340  -0.019  -0.047
    1UNK    C06    7  -0.418  -0.137  -0.104
    1UNK    N07    8  -0.482  -0.234  -0.151
    1UNK    C08    9  -0.304   0.141   0.315
    1UNK    C09   10  -0.458   0.155   0.334
    1UNK    C0A   11  -0.253   0.022   0.403
    1UNK    C0B   12  -0.292   0.023   0.551
    1UNK    C0C   13  -0.239   0.274   0.367
    1UNK    C0D   14  -0.276   0.402   0.292
    1UNK    H0E   15   0.137   0.091  -0.103
    1UNK    H0F   16   0.138   0.015   0.057
    1UNK    H0G   17   0.140   0.193   0.044
    1UNK    H0H   18  -0.075   0.008  -0.052
    1UNK    H0I   19  -0.091   0.185  -0.058
    1UNK    H0J   20  -0.062   0.183   0.194
    1UNK    H0K   21  -0.077   0.008   0.190
    1UNK    H0M   22  -0.299   0.202   0.103
    1UNK    H0N   23  -0.453   0.002   0.129
    1UNK    H0O   24  -0.312  -0.101   0.149
    1UNK    H0P   25  -0.241  -0.041  -0.082
    1UNK    H0Q   26  -0.374   0.073  -0.095
    1UNK    H0R   27  -0.510   0.060   0.319
    1UNK    H0S   28  -0.501   0.229   0.265
    1UNK    H0T   29  -0.483   0.187   0.436
    1UNK    H0U   30  -0.143   0.020   0.400
    1UNK    H0V   31  -0.287  -0.073   0.362
    1UNK    H0W   32  -0.283   0.121   0.597
    1UNK    H0X   33  -0.227  -0.046   0.606
    1UNK    H0Y   34  -0.395  -0.012   0.564
    1UNK    H0Z   35  -0.130   0.265   0.369
    1UNK    H10   36  -0.268   0.291   0.472
    1UNK    H11   37  -0.247   0.398   0.187
    1UNK    H12   38  -0.224   0.487   0.337
    1UNK    H13   39  -0.383   0.423   0.299
   1.00000   1.00000   1.00000

