LIGPARGEN GENERATED GRO FILE
   37
    1UNK    C00    1   0.100   0.100   0.000
    1UNK    C01    2  -0.052   0.100   0.000
    1UNK    C02    3  -0.107   0.100   0.139
    1UNK    C03    4  -0.103   0.218   0.231
    1UNK    C04    5  -0.238   0.171   0.173
    1UNK    C05    6  -0.308   0.267   0.073
    1UNK    C06    7  -0.252   0.410   0.073
    1UNK    C07    8  -0.457   0.273   0.109
    1UNK    S08    9  -0.464   0.224   0.279
    1UNK    O09   10  -0.420   0.334   0.361
    1UNK    O0A   11  -0.593   0.161   0.301
    1UNK    C0B   12  -0.335   0.098   0.269
    1UNK    C0C   13  -0.397  -0.031   0.214
    1UNK    S0D   14  -0.293  -0.174   0.224
    1UNK    C0E   15  -0.402  -0.308   0.183
    1UNK    O0F   16  -0.197  -0.171   0.116
    1UNK    O0G   17  -0.252  -0.191   0.362
    1UNK    H0H   18   0.138   0.091  -0.102
    1UNK    H0I   19   0.140   0.017   0.059
    1UNK    H0J   20   0.138   0.193   0.043
    1UNK    H0K   21  -0.087   0.010  -0.051
    1UNK    H0M   22  -0.087   0.185  -0.059
    1UNK    H0N   23  -0.076   0.009   0.191
    1UNK    H0O   24  -0.051   0.305   0.195
    1UNK    H0P   25  -0.083   0.199   0.336
    1UNK    H0Q   26  -0.300   0.227  -0.028
    1UNK    H0R   27  -0.252   0.454   0.173
    1UNK    H0S   28  -0.311   0.475   0.007
    1UNK    H0T   29  -0.149   0.412   0.035
    1UNK    H0U   30  -0.512   0.198   0.051
    1UNK    H0V   31  -0.504   0.370   0.095
    1UNK    H0W   32  -0.294   0.086   0.369
    1UNK    H0X   33  -0.429  -0.021   0.110
    1UNK    H0Y   34  -0.485  -0.057   0.274
    1UNK    H0Z   35  -0.448  -0.286   0.086
    1UNK    H10   36  -0.477  -0.320   0.260
    1UNK    H11   37  -0.341  -0.399   0.174
   1.00000   1.00000   1.00000

