LIGPARGEN GENERATED GRO FILE
   43
    1UNK    C00    1   0.100   0.100   0.000
    1UNK    C01    2  -0.052   0.100   0.000
    1UNK    C02    3  -0.107   0.100   0.142
    1UNK    S03    4  -0.286   0.100   0.143
    1UNK    O04    5  -0.330   0.222   0.078
    1UNK    O05    6  -0.331  -0.030   0.095
    1UNK    C06    7  -0.327   0.113   0.315
    1UNK    C07    8  -0.477   0.115   0.339
    1UNK    C08    9  -0.486   0.093   0.489
    1UNK    C09   10  -0.375  -0.008   0.522
    1UNK    C0A   11  -0.304   0.018   0.656
    1UNK    C0B   12  -0.395   0.057   0.772
    1UNK    C0C   13  -0.305   0.036   0.894
    1UNK    C0D   14  -0.232  -0.094   0.862
    1UNK    C0E   15  -0.093  -0.100   0.925
    1UNK    C0F   16  -0.228  -0.105   0.709
    1UNK    C0G   17  -0.278  -0.003   0.402
    1UNK    H0H   18   0.138   0.100  -0.103
    1UNK    H0I   19   0.139   0.011   0.051
    1UNK    H0J   20   0.139   0.189   0.051
    1UNK    H0K   21  -0.088   0.012  -0.054
    1UNK    H0M   22  -0.088   0.188  -0.054
    1UNK    H0N   23  -0.075   0.190   0.196
    1UNK    H0O   24  -0.074   0.011   0.196
    1UNK    H0P   25  -0.283   0.208   0.351
    1UNK    H0Q   26  -0.527   0.033   0.285
    1UNK    H0R   27  -0.523   0.209   0.309
    1UNK    H0S   28  -0.585   0.054   0.518
    1UNK    H0T   29  -0.471   0.188   0.541
    1UNK    H0U   30  -0.420  -0.108   0.525
    1UNK    H0V   31  -0.231   0.100   0.642
    1UNK    H0W   32  -0.483  -0.007   0.777
    1UNK    H0X   33  -0.428   0.162   0.766
    1UNK    H0Y   34  -0.363   0.030   0.986
    1UNK    H0Z   35  -0.235   0.120   0.903
    1UNK    H10   36  -0.290  -0.178   0.902
    1UNK    H11   37  -0.030  -0.018   0.888
    1UNK    H12   38  -0.044  -0.195   0.902
    1UNK    H13   39  -0.100  -0.090   1.034
    1UNK    H14   40  -0.279  -0.198   0.679
    1UNK    H15   41  -0.127  -0.110   0.669
    1UNK    H16   42  -0.283  -0.098   0.348
    1UNK    H17   43  -0.174   0.012   0.432
   1.00000   1.00000   1.00000

