
;
; GENERATED BY LigParGen Server
; Jorgensen Lab @ Yale University 
;
[ atomtypes ]
  opls_818  H818     1.0080     0.000    A    2.50000E-01   1.25520E-01
  opls_814  C814    12.0110     0.000    A    3.50000E-01   2.76144E-01
  opls_824  H824     1.0080     0.000    A    2.50000E-01   1.25520E-01
  opls_815  C815    12.0110     0.000    A    3.50000E-01   2.76144E-01
  opls_833  H833     1.0080     0.000    A    2.50000E-01   1.25520E-01
  opls_805  O805    15.9990     0.000    A    2.96000E-01   7.11280E-01
  opls_836  H836     1.0080     0.000    A    2.50000E-01   1.25520E-01
  opls_834  H834     1.0080     0.000    A    2.50000E-01   1.25520E-01
  opls_810  C810    12.0110     0.000    A    3.50000E-01   2.76144E-01
  opls_828  H828     1.0080     0.000    A    2.50000E-01   1.25520E-01
  opls_812  C812    12.0110     0.000    A    3.50000E-01   2.76144E-01
  opls_802  C802    12.0110     0.000    A    3.50000E-01   2.76144E-01
  opls_800  C800    12.0110     0.000    A    3.50000E-01   2.76144E-01
  opls_809  C809    12.0110     0.000    A    3.50000E-01   2.76144E-01
  opls_806  C806    12.0110     0.000    A    3.50000E-01   2.76144E-01
  opls_822  H822     1.0080     0.000    A    2.50000E-01   1.25520E-01
  opls_807  C807    12.0110     0.000    A    3.50000E-01   2.76144E-01
  opls_838  H838     1.0080     0.000    A    2.50000E-01   1.25520E-01
  opls_825  H825     1.0080     0.000    A    2.50000E-01   1.25520E-01
  opls_830  H830     1.0080     0.000    A    2.50000E-01   1.25520E-01
  opls_821  H821     1.0080     0.000    A    2.50000E-01   1.25520E-01
  opls_842  H842     1.0080     0.000    A    2.50000E-01   1.25520E-01
  opls_820  H820     1.0080     0.000    A    2.50000E-01   1.25520E-01
  opls_837  H837     1.0080     0.000    A    2.50000E-01   1.25520E-01
  opls_829  H829     1.0080     0.000    A    2.50000E-01   1.25520E-01
  opls_831  H831     1.0080     0.000    A    2.50000E-01   1.25520E-01
  opls_832  H832     1.0080     0.000    A    2.50000E-01   1.25520E-01
  opls_804  O804    15.9990     0.000    A    2.96000E-01   7.11280E-01
  opls_811  C811    12.0110     0.000    A    3.50000E-01   2.76144E-01
  opls_823  H823     1.0080     0.000    A    2.50000E-01   1.25520E-01
  opls_813  C813    12.0110     0.000    A    3.50000E-01   2.76144E-01
  opls_826  H826     1.0080     0.000    A    2.50000E-01   1.25520E-01
  opls_835  H835     1.0080     0.000    A    2.50000E-01   1.25520E-01
  opls_841  H841     1.0080     0.000    A    2.50000E-01   1.25520E-01
  opls_819  H819     1.0080     0.000    A    2.50000E-01   1.25520E-01
  opls_816  C816    12.0110     0.000    A    3.50000E-01   2.76144E-01
  opls_827  H827     1.0080     0.000    A    2.50000E-01   1.25520E-01
  opls_839  H839     1.0080     0.000    A    2.50000E-01   1.25520E-01
  opls_801  C801    12.0110     0.000    A    3.50000E-01   2.76144E-01
  opls_808  C808    12.0110     0.000    A    3.50000E-01   2.76144E-01
  opls_817  H817     1.0080     0.000    A    2.50000E-01   1.25520E-01
  opls_803  S803    32.0600     0.000    A    3.55000E-01   1.04600E+00
  opls_840  H840     1.0080     0.000    A    2.50000E-01   1.25520E-01
[ moleculetype ]
; Name               nrexcl
UNK                   3
[ atoms ]
;   nr       type  resnr residue  atom   cgnr     charge       mass  
     1   opls_800      1    UNK   C00      1    -0.2282    12.0110 
     2   opls_801      1    UNK   C01      1    -0.1457    12.0110 
     3   opls_802      1    UNK   C02      1    -0.4983    12.0110 
     4   opls_803      1    UNK   S03      1     1.2986    32.0600 
     5   opls_804      1    UNK   O04      1    -0.5657    15.9990 
     6   opls_805      1    UNK   O05      1    -0.5657    15.9990 
     7   opls_806      1    UNK   C06      1    -0.4549    12.0110 
     8   opls_807      1    UNK   C07      1     -0.147    12.0110 
     9   opls_808      1    UNK   C08      1    -0.1669    12.0110 
    10   opls_809      1    UNK   C09      1    -0.1007    12.0110 
    11   opls_810      1    UNK   C0A      1    -0.1153    12.0110 
    12   opls_811      1    UNK   C0B      1     -0.177    12.0110 
    13   opls_812      1    UNK   C0C      1    -0.1813    12.0110 
    14   opls_813      1    UNK   C0D      1    -0.1228    12.0110 
    15   opls_814      1    UNK   C0E      1     -0.231    12.0110 
    16   opls_815      1    UNK   C0F      1    -0.1764    12.0110 
    17   opls_816      1    UNK   C0G      1    -0.1453    12.0110 
    18   opls_817      1    UNK   H0H      1     0.0865     1.0080 
    19   opls_818      1    UNK   H0I      1     0.0865     1.0080 
    20   opls_819      1    UNK   H0J      1     0.0865     1.0080 
    21   opls_820      1    UNK   H0K      1     0.1115     1.0080 
    22   opls_821      1    UNK   H0M      1     0.1115     1.0080 
    23   opls_822      1    UNK   H0N      1     0.1557     1.0080 
    24   opls_823      1    UNK   H0O      1     0.1557     1.0080 
    25   opls_824      1    UNK   H0P      1     0.1624     1.0080 
    26   opls_825      1    UNK   H0Q      1     0.1169     1.0080 
    27   opls_826      1    UNK   H0R      1     0.1169     1.0080 
    28   opls_827      1    UNK   H0S      1     0.1008     1.0080 
    29   opls_828      1    UNK   H0T      1     0.1008     1.0080 
    30   opls_829      1    UNK   H0U      1     0.1074     1.0080 
    31   opls_830      1    UNK   H0V      1     0.0988     1.0080 
    32   opls_831      1    UNK   H0W      1     0.0961     1.0080 
    33   opls_832      1    UNK   H0X      2     0.0961     1.0080 
    34   opls_833      1    UNK   H0Y      2      0.095     1.0080 
    35   opls_834      1    UNK   H0Z      2      0.095     1.0080 
    36   opls_835      1    UNK   H10      2     0.0994     1.0080 
    37   opls_836      1    UNK   H11      2     0.0823     1.0080 
    38   opls_837      1    UNK   H12      2     0.0823     1.0080 
    39   opls_838      1    UNK   H13      2     0.0823     1.0080 
    40   opls_839      1    UNK   H14      2     0.0926     1.0080 
    41   opls_840      1    UNK   H15      2     0.0926     1.0080 
    42   opls_841      1    UNK   H16      2     0.1061     1.0080 
    43   opls_842      1    UNK   H17      2     0.1061     1.0080 
[ bonds ]
    2     1     1      0.1529 224262.400
    3     2     1      0.1529 224262.400
    4     3     1      0.1770 284512.000
    5     4     1      0.1440 585760.000
    6     4     1      0.1440 585760.000
    7     4     1      0.1770 284512.000
    8     7     1      0.1529 224262.400
    9     8     1      0.1529 224262.400
   10     9     1      0.1529 224262.400
   11    10     1      0.1529 224262.400
   12    11     1      0.1529 224262.400
   13    12     1      0.1529 224262.400
   14    13     1      0.1529 224262.400
   15    14     1      0.1529 224262.400
   16    11     1      0.1529 224262.400
   17     7     1      0.1529 224262.400
   18     1     1      0.1090 284512.000
   19     1     1      0.1090 284512.000
   20     1     1      0.1090 284512.000
   21     2     1      0.1090 284512.000
   22     2     1      0.1090 284512.000
   23     3     1      0.1090 284512.000
   24     3     1      0.1090 284512.000
   25     7     1      0.1090 284512.000
   26     8     1      0.1090 284512.000
   27     8     1      0.1090 284512.000
   28     9     1      0.1090 284512.000
   29     9     1      0.1090 284512.000
   30    10     1      0.1090 284512.000
   31    11     1      0.1090 284512.000
   32    12     1      0.1090 284512.000
   33    12     1      0.1090 284512.000
   34    13     1      0.1090 284512.000
   35    13     1      0.1090 284512.000
   36    14     1      0.1090 284512.000
   37    15     1      0.1090 284512.000
   38    15     1      0.1090 284512.000
   39    15     1      0.1090 284512.000
   40    16     1      0.1090 284512.000
   41    16     1      0.1090 284512.000
   42    17     1      0.1090 284512.000
   43    17     1      0.1090 284512.000
   17    10     1      0.1529 224262.400
   16    14     1      0.1529 224262.400

[ angles ]
;  ai    aj    ak funct            c0            c1            c2            c3 
    1     2     3     1    112.700    488.273
    2     3     4     1    108.600    418.400
    3     4     5     1    108.900    619.232
    3     4     6     1    108.900    619.232
    3     4     7     1    102.000    518.816
    4     7     8     1    108.600    418.400
    7     8     9     1    112.700    488.273
    8     9    10     1    112.700    488.273
    9    10    11     1    112.700    488.273
   10    11    12     1    112.700    488.273
   11    12    13     1    112.700    488.273
   12    13    14     1    112.700    488.273
   13    14    15     1    112.700    488.273
   10    11    16     1    112.700    488.273
    4     7    17     1    108.600    418.400
    2     1    18     1    110.700    313.800
    2     1    19     1    110.700    313.800
    2     1    20     1    110.700    313.800
    1     2    21     1    110.700    313.800
    1     2    22     1    110.700    313.800
    2     3    23     1    110.700    313.800
    2     3    24     1    110.700    313.800
    4     7    25     1    109.500    292.880
    7     8    26     1    110.700    313.800
    7     8    27     1    110.700    313.800
    8     9    28     1    110.700    313.800
    8     9    29     1    110.700    313.800
    9    10    30     1    110.700    313.800
   10    11    31     1    110.700    313.800
   11    12    32     1    110.700    313.800
   11    12    33     1    110.700    313.800
   12    13    34     1    110.700    313.800
   12    13    35     1    110.700    313.800
   13    14    36     1    110.700    313.800
   14    15    37     1    110.700    313.800
   14    15    38     1    110.700    313.800
   14    15    39     1    110.700    313.800
   11    16    40     1    110.700    313.800
   11    16    41     1    110.700    313.800
    7    17    42     1    110.700    313.800
    7    17    43     1    110.700    313.800
    5     4     7     1    108.900    619.232
    9    10    17     1    112.700    488.273
   17     7    25     1    110.700    313.800
    4     3    23     1    109.500    292.880
   14    13    34     1    110.700    313.800
   37    15    39     1    107.800    276.144
    9     8    27     1    110.700    313.800
   10    17    43     1    110.700    313.800
    4     3    24     1    109.500    292.880
   28     9    29     1    107.800    276.144
   14    16    41     1    110.700    313.800
   37    15    38     1    107.800    276.144
   42    17    43     1    107.800    276.144
   11    10    30     1    110.700    313.800
    5     4     6     1    119.000    870.272
   15    14    16     1    112.700    488.273
   10     9    29     1    110.700    313.800
   12    11    31     1    110.700    313.800
   16    14    36     1    110.700    313.800
   14    13    35     1    110.700    313.800
   13    14    16     1    112.700    488.273
   18     1    19     1    107.800    276.144
   16    11    31     1    110.700    313.800
   10    17    42     1    110.700    313.800
   21     2    22     1    107.800    276.144
    8     7    17     1    112.700    488.273
   11    16    14     1    112.700    488.273
    7    17    10     1    112.700    488.273
   40    16    41     1    107.800    276.144
   17    10    30     1    110.700    313.800
   13    12    32     1    110.700    313.800
   23     3    24     1    107.800    276.144
    8     7    25     1    110.700    313.800
   11    10    17     1    112.700    488.273
   12    11    16     1    112.700    488.273
   18     1    20     1    107.800    276.144
    9     8    26     1    110.700    313.800
   15    14    36     1    110.700    313.800
   10     9    28     1    110.700    313.800
    3     2    21     1    110.700    313.800
    6     4     7     1    108.900    619.232
   34    13    35     1    107.800    276.144
   32    12    33     1    107.800    276.144
    3     2    22     1    110.700    313.800
   14    16    40     1    110.700    313.800
   38    15    39     1    107.800    276.144
   19     1    20     1    107.800    276.144
   13    12    33     1    110.700    313.800
   26     8    27     1    107.800    276.144

[ dihedrals ]
; IMPROPER DIHEDRAL ANGLES 
;  ai    aj    ak    al funct            c0            c1            c2            c3            c4            c5

[ dihedrals ]
; PROPER DIHEDRAL ANGLES
;  ai    aj    ak    al funct            c0            c1            c2            c3            c4            c5
   14   16   11   10        3       2.301  -1.464   0.837  -1.674  -0.000   0.000
   17   10   11   16        3       2.301  -1.464   0.837  -1.674  -0.000   0.000
   16   11   12   13        3       2.301  -1.464   0.837  -1.674  -0.000   0.000
   15   14   16   11        3       2.301  -1.464   0.837  -1.674  -0.000   0.000
   17    7    8    9        3       2.301  -1.464   0.837  -1.674  -0.000   0.000
   10   17    7    8        3       2.301  -1.464   0.837  -1.674  -0.000   0.000
   13   14   16   11        3       2.301  -1.464   0.837  -1.674  -0.000   0.000
   17   10   11   12        3       2.301  -1.464   0.837  -1.674  -0.000   0.000
   11   10   17    7        3       2.301  -1.464   0.837  -1.674  -0.000   0.000
   16   11   10    9        3       2.301  -1.464   0.837  -1.674  -0.000   0.000
    9   10   17    7        3       2.301  -1.464   0.837  -1.674  -0.000   0.000
   16   14   13   12        3       2.301  -1.464   0.837  -1.674  -0.000   0.000
   14   13   12   11        3       2.301  -1.464   0.837  -1.674  -0.000   0.000
   13   12   11   10        3       2.301  -1.464   0.837  -1.674  -0.000   0.000
   15   14   13   12        3       2.301  -1.464   0.837  -1.674  -0.000   0.000
   14   16   11   12        3       2.301  -1.464   0.837  -1.674  -0.000   0.000
   12   11   10    9        3       2.301  -1.464   0.837  -1.674  -0.000   0.000
   11   10    9    8        3       2.301  -1.464   0.837  -1.674  -0.000   0.000
   10    9    8    7        3       2.301  -1.464   0.837  -1.674  -0.000   0.000
   17   10    9    8        3       2.301  -1.464   0.837  -1.674  -0.000   0.000
    9    8    7    4        3       2.784   0.278   0.828  -3.891  -0.000   0.000
   10   17    7    4        3       2.784   0.278   0.828  -3.891  -0.000   0.000
   17    7    4    3        3       0.000   0.000   0.000  -0.000  -0.000   0.000
    8    7    4    3        3       0.000   0.000   0.000  -0.000  -0.000   0.000
    8    7    4    5        3       0.000   0.000   0.000  -0.000  -0.000   0.000
    8    7    4    6        3       0.000   0.000   0.000  -0.000  -0.000   0.000
   17    7    4    6        3       0.000   0.000   0.000  -0.000  -0.000   0.000
   17    7    4    5        3       0.000   0.000   0.000  -0.000  -0.000   0.000
    7    4    3    2        3       0.000   0.000   0.000  -0.000  -0.000   0.000
   34   13   14   16        3       0.628   1.883   0.000  -2.510  -0.000   0.000
   25    7    8    9        3       0.628   1.883   0.000  -2.510  -0.000   0.000
   31   11   12   13        3       0.628   1.883   0.000  -2.510  -0.000   0.000
   33   12   11   16        3       0.628   1.883   0.000  -2.510  -0.000   0.000
   29    9   10   11        3       0.628   1.883   0.000  -2.510  -0.000   0.000
   27    8    9   10        3       0.628   1.883   0.000  -2.510  -0.000   0.000
   40   16   11   12        3       0.628   1.883   0.000  -2.510  -0.000   0.000
   31   11   10   17        3       0.628   1.883   0.000  -2.510  -0.000   0.000
   28    9   10   17        3       0.628   1.883   0.000  -2.510  -0.000   0.000
   41   16   14   13        3       0.628   1.883   0.000  -2.510  -0.000   0.000
   43   17    7    8        3       0.628   1.883   0.000  -2.510  -0.000   0.000
   43   17   10    9        3       0.628   1.883   0.000  -2.510  -0.000   0.000
   41   16   14   15        3       0.628   1.883   0.000  -2.510  -0.000   0.000
   42   17    7    8        3       0.628   1.883   0.000  -2.510  -0.000   0.000
   40   16   14   15        3       0.628   1.883   0.000  -2.510  -0.000   0.000
   31   11   16   14        3       0.628   1.883   0.000  -2.510  -0.000   0.000
   38   15   14   16        3       0.628   1.883   0.000  -2.510  -0.000   0.000
   34   13   14   15        3       0.628   1.883   0.000  -2.510  -0.000   0.000
   32   12   11   10        3       0.628   1.883   0.000  -2.510  -0.000   0.000
   35   13   14   15        3       0.628   1.883   0.000  -2.510  -0.000   0.000
   30   10   11   16        3       0.628   1.883   0.000  -2.510  -0.000   0.000
   20    1    2    3        3       0.628   1.883   0.000  -2.510  -0.000   0.000
   35   13   12   11        3       0.628   1.883   0.000  -2.510  -0.000   0.000
   32   12   13   14        3       0.628   1.883   0.000  -2.510  -0.000   0.000
   24    3    2    1        3       0.628   1.883   0.000  -2.510  -0.000   0.000
   38   15   14   13        3       0.628   1.883   0.000  -2.510  -0.000   0.000
   40   16   11   10        3       0.628   1.883   0.000  -2.510  -0.000   0.000
   41   16   11   10        3       0.628   1.883   0.000  -2.510  -0.000   0.000
   30   10   11   12        3       0.628   1.883   0.000  -2.510  -0.000   0.000
   23    3    2    1        3       0.628   1.883   0.000  -2.510  -0.000   0.000
   36   14   16   11        3       0.628   1.883   0.000  -2.510  -0.000   0.000
   28    9   10   11        3       0.628   1.883   0.000  -2.510  -0.000   0.000
   41   16   11   12        3       0.628   1.883   0.000  -2.510  -0.000   0.000
   35   13   14   16        3       0.628   1.883   0.000  -2.510  -0.000   0.000
   31   11   10    9        3       0.628   1.883   0.000  -2.510  -0.000   0.000
   28    9    8    7        3       0.628   1.883   0.000  -2.510  -0.000   0.000
   43   17   10   11        3       0.628   1.883   0.000  -2.510  -0.000   0.000
   32   12   11   16        3       0.628   1.883   0.000  -2.510  -0.000   0.000
   27    8    7   17        3       0.628   1.883   0.000  -2.510  -0.000   0.000
   36   14   13   12        3       0.628   1.883   0.000  -2.510  -0.000   0.000
   30   10    9    8        3       0.628   1.883   0.000  -2.510  -0.000   0.000
   29    9    8    7        3       0.628   1.883   0.000  -2.510  -0.000   0.000
   40   16   14   13        3       0.628   1.883   0.000  -2.510  -0.000   0.000
   34   13   12   11        3       0.628   1.883   0.000  -2.510  -0.000   0.000
   39   15   14   13        3       0.628   1.883   0.000  -2.510  -0.000   0.000
   19    1    2    3        3       0.628   1.883   0.000  -2.510  -0.000   0.000
   33   12   11   10        3       0.628   1.883   0.000  -2.510  -0.000   0.000
   30   10   17    7        3       0.628   1.883   0.000  -2.510  -0.000   0.000
   29    9   10   17        3       0.628   1.883   0.000  -2.510  -0.000   0.000
   39   15   14   16        3       0.628   1.883   0.000  -2.510  -0.000   0.000
   26    8    9   10        3       0.628   1.883   0.000  -2.510  -0.000   0.000
   25    7   17   10        3       0.628   1.883   0.000  -2.510  -0.000   0.000
   42   17   10   11        3       0.628   1.883   0.000  -2.510  -0.000   0.000
   26    8    7   17        3       0.628   1.883   0.000  -2.510  -0.000   0.000
   42   17   10    9        3       0.628   1.883   0.000  -2.510  -0.000   0.000
   33   12   13   14        3       0.628   1.883   0.000  -2.510  -0.000   0.000
   37   15   14   16        3       0.628   1.883   0.000  -2.510  -0.000   0.000
   18    1    2    3        3       0.628   1.883   0.000  -2.510  -0.000   0.000
   37   15   14   13        3       0.628   1.883   0.000  -2.510  -0.000   0.000
   23    3    2   21        3       0.628   1.883   0.000  -2.510  -0.000   0.000
   35   13   12   32        3       0.628   1.883   0.000  -2.510  -0.000   0.000
   34   13   12   33        3       0.628   1.883   0.000  -2.510  -0.000   0.000
   33   12   11   31        3       0.628   1.883   0.000  -2.510  -0.000   0.000
   37   15   14   36        3       0.628   1.883   0.000  -2.510  -0.000   0.000
   41   16   11   31        3       0.628   1.883   0.000  -2.510  -0.000   0.000
   27    8    7   25        3       0.628   1.883   0.000  -2.510  -0.000   0.000
   22    2    1   18        3       0.628   1.883   0.000  -2.510  -0.000   0.000
   39   15   14   36        3       0.628   1.883   0.000  -2.510  -0.000   0.000
   38   15   14   36        3       0.628   1.883   0.000  -2.510  -0.000   0.000
   36   14   13   34        3       0.628   1.883   0.000  -2.510  -0.000   0.000
   29    9    8   26        3       0.628   1.883   0.000  -2.510  -0.000   0.000
   30   10    9   28        3       0.628   1.883   0.000  -2.510  -0.000   0.000
   26    8    7   25        3       0.628   1.883   0.000  -2.510  -0.000   0.000
   22    2    1   20        3       0.628   1.883   0.000  -2.510  -0.000   0.000
   21    2    1   20        3       0.628   1.883   0.000  -2.510  -0.000   0.000
   36   14   13   35        3       0.628   1.883   0.000  -2.510  -0.000   0.000
   21    2    1   18        3       0.628   1.883   0.000  -2.510  -0.000   0.000
   43   17   10   30        3       0.628   1.883   0.000  -2.510  -0.000   0.000
   32   12   11   31        3       0.628   1.883   0.000  -2.510  -0.000   0.000
   42   17    7   25        3       0.628   1.883   0.000  -2.510  -0.000   0.000
   29    9    8   27        3       0.628   1.883   0.000  -2.510  -0.000   0.000
   24    3    2   21        3       0.628   1.883   0.000  -2.510  -0.000   0.000
   41   16   14   36        3       0.628   1.883   0.000  -2.510  -0.000   0.000
   30   10    9   29        3       0.628   1.883   0.000  -2.510  -0.000   0.000
   43   17    7   25        3       0.628   1.883   0.000  -2.510  -0.000   0.000
   24    3    2   22        3       0.628   1.883   0.000  -2.510  -0.000   0.000
   31   11   10   30        3       0.628   1.883   0.000  -2.510  -0.000   0.000
   28    9    8   26        3       0.628   1.883   0.000  -2.510  -0.000   0.000
   22    2    1   19        3       0.628   1.883   0.000  -2.510  -0.000   0.000
   23    3    2   22        3       0.628   1.883   0.000  -2.510  -0.000   0.000
   34   13   12   32        3       0.628   1.883   0.000  -2.510  -0.000   0.000
   40   16   14   36        3       0.628   1.883   0.000  -2.510  -0.000   0.000
   40   16   11   31        3       0.628   1.883   0.000  -2.510  -0.000   0.000
   35   13   12   33        3       0.628   1.883   0.000  -2.510  -0.000   0.000
   28    9    8   27        3       0.628   1.883   0.000  -2.510  -0.000   0.000
   42   17   10   30        3       0.628   1.883   0.000  -2.510  -0.000   0.000
   21    2    1   19        3       0.628   1.883   0.000  -2.510  -0.000   0.000
   22    2    3    4        3       0.946   2.837   0.000  -3.782  -0.000   0.000
   43   17    7    4        3       0.946   2.837   0.000  -3.782  -0.000   0.000
   26    8    7    4        3       0.946   2.837   0.000  -3.782  -0.000   0.000
   27    8    7    4        3       0.946   2.837   0.000  -3.782  -0.000   0.000
   21    2    3    4        3       0.946   2.837   0.000  -3.782  -0.000   0.000
   42   17    7    4        3       0.946   2.837   0.000  -3.782  -0.000   0.000
   25    7    4    3        3       0.732   2.197   0.000  -2.929  -0.000   0.000
   23    3    4    7        3       0.732   2.197   0.000  -2.929  -0.000   0.000
   24    3    4    7        3       0.732   2.197   0.000  -2.929  -0.000   0.000
   25    7    4    6        3       0.732   2.197   0.000  -2.929  -0.000   0.000
   23    3    4    6        3       0.732   2.197   0.000  -2.929  -0.000   0.000
   24    3    4    5        3       0.732   2.197   0.000  -2.929  -0.000   0.000
   23    3    4    5        3       0.732   2.197   0.000  -2.929  -0.000   0.000
   25    7    4    5        3       0.732   2.197   0.000  -2.929  -0.000   0.000
   24    3    4    6        3       0.732   2.197   0.000  -2.929  -0.000   0.000
    6    4    3    2        3       0.000   0.000   0.000  -0.000  -0.000   0.000
    5    4    3    2        3       0.000   0.000   0.000  -0.000  -0.000   0.000
    4    3    2    1        3       2.784   0.278   0.828  -3.891  -0.000   0.000

[ pairs ]
     1     4    1
     2     5    1
     2     6    1
     2     7    1
     3     8    1
     5     8    1
     4     9    1
     6     8    1
     4    10    1
     7    11    1
     8    11    1
     3    17    1
     9    12    1
     3    18    1
     5    17    1
     3    19    1
    10    13    1
     6    17    1
     3    20    1
    10    14    1
     1    23    1
     9    16    1
     4    21    1
     1    24    1
    11    15    1
     4    22    1
    12    15    1
     5    23    1
     3    25    1
    12    17    1
     6    23    1
     5    24    1
     7    23    1
     6    24    1
     5    25    1
     4    26    1
     7    24    1
     6    25    1
     4    27    1
    16    17    1
     9    25    1
    10    25    1
     7    28    1
    10    26    1
     7    29    1
    10    27    1
     7    30    1
     8    30    1
    18    21    1
    11    28    1
    19    21    1
    18    22    1
    11    29    1
     9    31    1
    20    21    1
    19    22    1
    20    22    1
    12    30    1
    10    32    1
    17    26    1
    10    33    1
    21    23    1
    17    27    1
    13    31    1
    22    23    1
    21    24    1
    17    28    1
    14    31    1
    11    34    1
    22    24    1
    17    29    1
    16    30    1
    14    32    1
    11    35    1
     4    42    1
    14    33    1
    11    36    1
     4    43    1
    17    31    1
    16    32    1
    12    36    1
    16    33    1
    15    34    1
    16    34    1
    15    35    1
    13    37    1
    10    40    1
     8    42    1
    25    26    1
    16    35    1
    13    38    1
    10    41    1
     9    42    1
     8    43    1
    25    27    1
    13    39    1
    12    40    1
     9    43    1
    16    37    1
    13    40    1
    12    41    1
    11    42    1
    26    28    1
    16    38    1
    13    41    1
    11    43    1
    27    28    1
    26    29    1
    16    39    1
    15    40    1
    27    29    1
    15    41    1
    28    30    1
    29    30    1
    30    31    1
    31    32    1
    31    33    1
    32    34    1
    33    34    1
    32    35    1
    25    42    1
    33    35    1
    25    43    1
    34    36    1
    35    36    1
    31    40    1
    31    41    1
    30    42    1
    36    37    1
    30    43    1
    36    38    1
    36    39    1
    36    40    1
    36    41    1

