
;
; GENERATED BY LigParGen Server
; Jorgensen Lab @ Yale University 
;
[ atomtypes ]
  opls_818  H818     1.0080     0.000    A    2.50000E-01   1.25520E-01
  opls_814  C814    12.0110     0.000    A    3.50000E-01   2.76144E-01
  opls_824  H824     1.0080     0.000    A    2.50000E-01   1.25520E-01
  opls_805  C805    12.0110     0.000    A    3.50000E-01   2.76144E-01
  opls_843  H843     1.0080     0.000    A    2.50000E-01   1.25520E-01
  opls_836  H836     1.0080     0.000    A    2.50000E-01   1.25520E-01
  opls_834  H834     1.0080     0.000    A    2.50000E-01   1.25520E-01
  opls_828  H828     1.0080     0.000    A    2.50000E-01   1.25520E-01
  opls_812  O812    15.9990     0.000    A    2.90000E-01   5.85760E-01
  opls_802  C802    12.0110     0.000    A    3.50000E-01   2.76144E-01
  opls_827  H827     1.0080     0.000    A    2.50000E-01   1.25520E-01
  opls_801  C801    12.0110     0.000    A    3.50000E-01   2.76144E-01
  opls_806  C806    12.0110     0.000    A    3.50000E-01   2.76144E-01
  opls_811  O811    15.9990     0.000    A    2.96000E-01   8.78640E-01
  opls_822  H822     1.0080     0.000    A    2.50000E-01   1.25520E-01
  opls_803  C803    12.0110     0.000    A    3.50000E-01   2.76144E-01
  opls_838  H838     1.0080     0.000    A    2.50000E-01   1.25520E-01
  opls_825  H825     1.0080     0.000    A    2.50000E-01   1.25520E-01
  opls_830  H830     1.0080     0.000    A    2.50000E-01   1.25520E-01
  opls_809  O809    15.9990     0.000    A    2.96000E-01   8.78640E-01
  opls_804  C804    12.0110     0.000    A    3.50000E-01   2.76144E-01
  opls_842  H842     1.0080     0.000    A    2.50000E-01   1.25520E-01
  opls_820  H820     1.0080     0.000    A    2.50000E-01   1.25520E-01
  opls_837  H837     1.0080     0.000    A    2.50000E-01   1.25520E-01
  opls_821  H821     1.0080     0.000    A    2.50000E-01   1.25520E-01
  opls_831  H831     1.0080     0.000    A    2.50000E-01   1.25520E-01
  opls_810  C810    12.0110     0.000    A    3.55000E-01   2.92880E-01
  opls_832  H832     1.0080     0.000    A    2.50000E-01   1.25520E-01
  opls_800  C800    12.0110     0.000    A    3.50000E-01   2.76144E-01
  opls_815  C815    12.0110     0.000    A    3.50000E-01   2.76144E-01
  opls_823  H823     1.0080     0.000    A    2.50000E-01   1.25520E-01
  opls_813  C813    12.0110     0.000    A    3.50000E-01   2.76144E-01
  opls_826  H826     1.0080     0.000    A    2.50000E-01   1.25520E-01
  opls_835  H835     1.0080     0.000    A    2.50000E-01   1.25520E-01
  opls_841  H841     1.0080     0.000    A    2.50000E-01   1.25520E-01
  opls_819  H819     1.0080     0.000    A    2.50000E-01   1.25520E-01
  opls_816  C816    12.0110     0.000    A    3.50000E-01   2.76144E-01
  opls_833  H833     1.0080     0.000    A    2.50000E-01   1.25520E-01
  opls_839  H839     1.0080     0.000    A    2.50000E-01   1.25520E-01
  opls_817  C817    12.0110     0.000    A    3.50000E-01   2.76144E-01
  opls_840  H840     1.0080     0.000    A    2.50000E-01   1.25520E-01
  opls_829  H829     1.0080     0.000    A    2.50000E-01   1.25520E-01
  opls_844  H844     1.0080     0.000    A    2.50000E-01   1.25520E-01
  opls_845  H845     1.0080     0.000    A    2.50000E-01   1.25520E-01
  opls_808  C808    12.0110     0.000    A    3.55000E-01   2.92880E-01
  opls_807  C807    12.0110     0.000    A    3.50000E-01   2.76144E-01
[ moleculetype ]
; Name               nrexcl
UNK                   3
[ atoms ]
;   nr       type  resnr residue  atom   cgnr     charge       mass  
     1   opls_800      1    UNK   C00      1    -0.2394    12.0110 
     2   opls_801      1    UNK   C01      1    -0.1817    12.0110 
     3   opls_802      1    UNK   C02      1    -0.1686    12.0110 
     4   opls_803      1    UNK   C03      1    -0.0971    12.0110 
     5   opls_804      1    UNK   C04      1    -0.1832    12.0110 
     6   opls_805      1    UNK   C05      1      -0.23    12.0110 
     7   opls_806      1    UNK   C06      1    -0.1623    12.0110 
     8   opls_807      1    UNK   C07      1    -0.0967    12.0110 
     9   opls_808      1    UNK   C08      1     0.3324    12.0110 
    10   opls_809      1    UNK   O09      1    -0.4413    15.9990 
    11   opls_810      1    UNK   C0A      1     0.4497    12.0110 
    12   opls_811      1    UNK   O0B      1    -0.4435    15.9990 
    13   opls_812      1    UNK   O0C      1    -0.3645    15.9990 
    14   opls_813      1    UNK   C0D      1     -0.061    12.0110 
    15   opls_814      1    UNK   C0E      1    -0.1078    12.0110 
    16   opls_815      1    UNK   C0F      1    -0.2369    12.0110 
    17   opls_816      1    UNK   C0G      1     -0.181    12.0110 
    18   opls_817      1    UNK   C0H      1    -0.2375    12.0110 
    19   opls_818      1    UNK   H0I      1     0.0807     1.0080 
    20   opls_819      1    UNK   H0J      1     0.0807     1.0080 
    21   opls_820      1    UNK   H0K      1     0.0807     1.0080 
    22   opls_821      1    UNK   H0M      1     0.0917     1.0080 
    23   opls_822      1    UNK   H0N      1     0.0917     1.0080 
    24   opls_823      1    UNK   H0O      1     0.0877     1.0080 
    25   opls_824      1    UNK   H0P      1     0.0877     1.0080 
    26   opls_825      1    UNK   H0Q      1     0.1044     1.0080 
    27   opls_826      1    UNK   H0R      1     0.0924     1.0080 
    28   opls_827      1    UNK   H0S      1     0.0924     1.0080 
    29   opls_828      1    UNK   H0T      1     0.0807     1.0080 
    30   opls_829      1    UNK   H0U      1     0.0807     1.0080 
    31   opls_830      1    UNK   H0V      1     0.0807     1.0080 
    32   opls_831      1    UNK   H0W      1     0.1103     1.0080 
    33   opls_832      1    UNK   H0X      2     0.1103     1.0080 
    34   opls_833      1    UNK   H0Y      2     0.1292     1.0080 
    35   opls_834      1    UNK   H0Z      2     0.1072     1.0080 
    36   opls_835      1    UNK   H10      2     0.1072     1.0080 
    37   opls_836      1    UNK   H11      2     0.1072     1.0080 
    38   opls_837      1    UNK   H12      2     0.1262     1.0080 
    39   opls_838      1    UNK   H13      2     0.0928     1.0080 
    40   opls_839      1    UNK   H14      2     0.0928     1.0080 
    41   opls_840      1    UNK   H15      2     0.0928     1.0080 
    42   opls_841      1    UNK   H16      2     0.0917     1.0080 
    43   opls_842      1    UNK   H17      2     0.0917     1.0080 
    44   opls_843      1    UNK   H18      2     0.0863     1.0080 
    45   opls_844      1    UNK   H19      2     0.0863     1.0080 
    46   opls_845      1    UNK   H1A      2     0.0863     1.0080 
[ bonds ]
    2     1     1      0.1529 224262.400
    3     2     1      0.1529 224262.400
    4     3     1      0.1529 224262.400
    5     4     1      0.1529 224262.400
    6     5     1      0.1529 224262.400
    7     4     1      0.1529 224262.400
    8     7     1      0.1529 224262.400
    9     8     1      0.1522 265265.600
   10     9     1      0.1229 476976.000
   11     8     1      0.1522 265265.600
   12    11     1      0.1229 476976.000
   13    11     1      0.1327 179075.200
   14    13     1      0.1410 267776.000
   15     8     1      0.1529 224262.400
   16    15     1      0.1529 224262.400
   17    15     1      0.1529 224262.400
   18    17     1      0.1529 224262.400
   19     1     1      0.1090 284512.000
   20     1     1      0.1090 284512.000
   21     1     1      0.1090 284512.000
   22     2     1      0.1090 284512.000
   23     2     1      0.1090 284512.000
   24     3     1      0.1090 284512.000
   25     3     1      0.1090 284512.000
   26     4     1      0.1090 284512.000
   27     5     1      0.1090 284512.000
   28     5     1      0.1090 284512.000
   29     6     1      0.1090 284512.000
   30     6     1      0.1090 284512.000
   31     6     1      0.1090 284512.000
   32     7     1      0.1090 284512.000
   33     7     1      0.1090 284512.000
   34     9     1      0.1090 284512.000
   35    14     1      0.1090 284512.000
   36    14     1      0.1090 284512.000
   37    14     1      0.1090 284512.000
   38    15     1      0.1090 284512.000
   39    16     1      0.1090 284512.000
   40    16     1      0.1090 284512.000
   41    16     1      0.1090 284512.000
   42    17     1      0.1090 284512.000
   43    17     1      0.1090 284512.000
   44    18     1      0.1090 284512.000
   45    18     1      0.1090 284512.000
   46    18     1      0.1090 284512.000

[ angles ]
;  ai    aj    ak funct            c0            c1            c2            c3 
    1     2     3     1    112.700    488.273
    2     3     4     1    112.700    488.273
    3     4     5     1    112.700    488.273
    4     5     6     1    112.700    488.273
    3     4     7     1    112.700    488.273
    4     7     8     1    112.700    488.273
    7     8     9     1    111.100    527.184
    8     9    10     1    120.400    669.440
    7     8    11     1    111.100    527.184
    8    11    12     1    120.400    669.440
    8    11    13     1    111.400    677.808
   11    13    14     1    116.900    694.544
    7     8    15     1    112.700    488.273
    8    15    16     1    112.700    488.273
    8    15    17     1    112.700    488.273
   15    17    18     1    112.700    488.273
    2     1    19     1    110.700    313.800
    2     1    20     1    110.700    313.800
    2     1    21     1    110.700    313.800
    1     2    22     1    110.700    313.800
    1     2    23     1    110.700    313.800
    2     3    24     1    110.700    313.800
    2     3    25     1    110.700    313.800
    3     4    26     1    110.700    313.800
    4     5    27     1    110.700    313.800
    4     5    28     1    110.700    313.800
    5     6    29     1    110.700    313.800
    5     6    30     1    110.700    313.800
    5     6    31     1    110.700    313.800
    4     7    32     1    110.700    313.800
    4     7    33     1    110.700    313.800
    8     9    34     1    115.000    292.880
   13    14    35     1    109.500    292.880
   13    14    36     1    109.500    292.880
   13    14    37     1    109.500    292.880
    8    15    38     1    110.700    313.800
   15    16    39     1    110.700    313.800
   15    16    40     1    110.700    313.800
   15    16    41     1    110.700    313.800
   15    17    42     1    110.700    313.800
   15    17    43     1    110.700    313.800
   17    18    44     1    110.700    313.800
   17    18    45     1    110.700    313.800
   17    18    46     1    110.700    313.800
   32     7    33     1    107.800    276.144
   29     6    31     1    107.800    276.144
   39    16    41     1    107.800    276.144
    7     4    26     1    110.700    313.800
   19     1    20     1    107.800    276.144
    5     4     7     1    112.700    488.273
   17    15    38     1    110.700    313.800
   39    16    40     1    107.800    276.144
    5     4    26     1    110.700    313.800
   40    16    41     1    107.800    276.144
   45    18    46     1    107.800    276.144
   10     9    34     1    123.000    292.880
   30     6    31     1    107.800    276.144
   35    14    37     1    107.800    276.144
    3     2    22     1    110.700    313.800
    3     2    23     1    110.700    313.800
   18    17    43     1    110.700    313.800
    6     5    27     1    110.700    313.800
   22     2    23     1    107.800    276.144
   20     1    21     1    107.800    276.144
   19     1    21     1    107.800    276.144
    4     3    25     1    110.700    313.800
   44    18    46     1    107.800    276.144
   44    18    45     1    107.800    276.144
    8     7    32     1    110.700    313.800
   29     6    30     1    107.800    276.144
    4     3    24     1    110.700    313.800
    9     8    15     1    111.100    527.184
   24     3    25     1    107.800    276.144
    9     8    11     1    111.100    527.184
    8     7    33     1    110.700    313.800
   12    11    13     1    123.400    694.544
   16    15    38     1    110.700    313.800
   11     8    15     1    111.100    527.184
   35    14    36     1    107.800    276.144
   36    14    37     1    107.800    276.144
   16    15    17     1    112.700    488.273
   18    17    42     1    110.700    313.800
   42    17    43     1    107.800    276.144
    6     5    28     1    110.700    313.800
   27     5    28     1    107.800    276.144

[ dihedrals ]
; IMPROPER DIHEDRAL ANGLES 
;  ai    aj    ak    al funct            c0            c1            c2            c3            c4            c5
    34     9     8    10    4        180.000     43.932     2  
    13    11     8    12    4        180.000     43.932     2  

[ dihedrals ]
; PROPER DIHEDRAL ANGLES
;  ai    aj    ak    al funct            c0            c1            c2            c3            c4            c5
   11    8    9   10        3       0.000   0.000   0.000  -0.000  -0.000   0.000
    9    8    7    4        3      -4.960   6.286   1.310  -2.636  -0.000   0.000
   11    8    7    4        3      -4.960   6.286   1.310  -2.636  -0.000   0.000
   15    8    9   10        3       0.000   0.000   0.000  -0.000  -0.000   0.000
   15    8   11   12        3       0.000   0.000   0.000  -0.000  -0.000   0.000
   15    8   11   13        3      -1.157  -3.471   0.000   4.628  -0.000   0.000
   17   15    8    9        3      -4.960   6.286   1.310  -2.636  -0.000   0.000
   17   15    8   11        3      -4.960   6.286   1.310  -2.636  -0.000   0.000
   16   15    8    9        3      -4.960   6.286   1.310  -2.636  -0.000   0.000
   16   15    8   11        3      -4.960   6.286   1.310  -2.636  -0.000   0.000
   17   15    8    7        3       2.301  -1.464   0.837  -1.674  -0.000   0.000
    4    3    2    1        3       2.301  -1.464   0.837  -1.674  -0.000   0.000
    7    4    3    2        3       2.301  -1.464   0.837  -1.674  -0.000   0.000
    7    4    5    6        3       2.301  -1.464   0.837  -1.674  -0.000   0.000
   15    8    7    4        3       2.301  -1.464   0.837  -1.674  -0.000   0.000
   18   17   15   16        3       2.301  -1.464   0.837  -1.674  -0.000   0.000
    8    7    4    5        3       2.301  -1.464   0.837  -1.674  -0.000   0.000
    5    4    3    2        3       2.301  -1.464   0.837  -1.674  -0.000   0.000
    6    5    4    3        3       2.301  -1.464   0.837  -1.674  -0.000   0.000
   16   15    8    7        3       2.301  -1.464   0.837  -1.674  -0.000   0.000
   18   17   15    8        3       2.301  -1.464   0.837  -1.674  -0.000   0.000
    8    7    4    3        3       2.301  -1.464   0.837  -1.674  -0.000   0.000
   14   13   11    8        3      31.206  -9.768  -21.439  -0.000  -0.000   0.000
   14   13   11   12        3      21.439   0.000  -21.439  -0.000  -0.000   0.000
   34    9    8   11        3       0.000   0.000   0.000  -0.000  -0.000   0.000
   34    9    8   15        3       0.000   0.000   0.000  -0.000  -0.000   0.000
   34    9    8    7        3       0.000   0.000   0.000  -0.000  -0.000   0.000
   33    7    8    9        3      -0.209  -0.628   0.000   0.837  -0.000   0.000
   32    7    8    9        3      -0.209  -0.628   0.000   0.837  -0.000   0.000
   33    7    8   11        3      -0.209  -0.628   0.000   0.837  -0.000   0.000
   38   15    8   11        3      -0.209  -0.628   0.000   0.837  -0.000   0.000
   32    7    8   11        3      -0.209  -0.628   0.000   0.837  -0.000   0.000
   38   15    8    9        3      -0.209  -0.628   0.000   0.837  -0.000   0.000
   30    6    5    4        3       0.628   1.883   0.000  -2.510  -0.000   0.000
   32    7    4    5        3       0.628   1.883   0.000  -2.510  -0.000   0.000
   22    2    3    4        3       0.628   1.883   0.000  -2.510  -0.000   0.000
   42   17   15   16        3       0.628   1.883   0.000  -2.510  -0.000   0.000
   21    1    2    3        3       0.628   1.883   0.000  -2.510  -0.000   0.000
   38   15    8    7        3       0.628   1.883   0.000  -2.510  -0.000   0.000
   32    7    4    3        3       0.628   1.883   0.000  -2.510  -0.000   0.000
   28    5    4    7        3       0.628   1.883   0.000  -2.510  -0.000   0.000
   33    7    4    5        3       0.628   1.883   0.000  -2.510  -0.000   0.000
   45   18   17   15        3       0.628   1.883   0.000  -2.510  -0.000   0.000
   24    3    4    5        3       0.628   1.883   0.000  -2.510  -0.000   0.000
   40   16   15    8        3       0.628   1.883   0.000  -2.510  -0.000   0.000
   27    5    4    3        3       0.628   1.883   0.000  -2.510  -0.000   0.000
   39   16   15   17        3       0.628   1.883   0.000  -2.510  -0.000   0.000
   42   17   15    8        3       0.628   1.883   0.000  -2.510  -0.000   0.000
   26    4    5    6        3       0.628   1.883   0.000  -2.510  -0.000   0.000
   20    1    2    3        3       0.628   1.883   0.000  -2.510  -0.000   0.000
   24    3    2    1        3       0.628   1.883   0.000  -2.510  -0.000   0.000
   31    6    5    4        3       0.628   1.883   0.000  -2.510  -0.000   0.000
   38   15   17   18        3       0.628   1.883   0.000  -2.510  -0.000   0.000
   24    3    4    7        3       0.628   1.883   0.000  -2.510  -0.000   0.000
   41   16   15   17        3       0.628   1.883   0.000  -2.510  -0.000   0.000
   43   17   15   16        3       0.628   1.883   0.000  -2.510  -0.000   0.000
   40   16   15   17        3       0.628   1.883   0.000  -2.510  -0.000   0.000
   33    7    4    3        3       0.628   1.883   0.000  -2.510  -0.000   0.000
   27    5    4    7        3       0.628   1.883   0.000  -2.510  -0.000   0.000
   25    3    2    1        3       0.628   1.883   0.000  -2.510  -0.000   0.000
   46   18   17   15        3       0.628   1.883   0.000  -2.510  -0.000   0.000
   41   16   15    8        3       0.628   1.883   0.000  -2.510  -0.000   0.000
   26    4    7    8        3       0.628   1.883   0.000  -2.510  -0.000   0.000
   19    1    2    3        3       0.628   1.883   0.000  -2.510  -0.000   0.000
   29    6    5    4        3       0.628   1.883   0.000  -2.510  -0.000   0.000
   39   16   15    8        3       0.628   1.883   0.000  -2.510  -0.000   0.000
   44   18   17   15        3       0.628   1.883   0.000  -2.510  -0.000   0.000
   25    3    4    7        3       0.628   1.883   0.000  -2.510  -0.000   0.000
   25    3    4    5        3       0.628   1.883   0.000  -2.510  -0.000   0.000
   28    5    4    3        3       0.628   1.883   0.000  -2.510  -0.000   0.000
   43   17   15    8        3       0.628   1.883   0.000  -2.510  -0.000   0.000
   33    7    8   15        3       0.628   1.883   0.000  -2.510  -0.000   0.000
   26    4    3    2        3       0.628   1.883   0.000  -2.510  -0.000   0.000
   23    2    3    4        3       0.628   1.883   0.000  -2.510  -0.000   0.000
   32    7    8   15        3       0.628   1.883   0.000  -2.510  -0.000   0.000
   24    3    2   23        3       0.628   1.883   0.000  -2.510  -0.000   0.000
   25    3    2   22        3       0.628   1.883   0.000  -2.510  -0.000   0.000
   40   16   15   38        3       0.628   1.883   0.000  -2.510  -0.000   0.000
   39   16   15   38        3       0.628   1.883   0.000  -2.510  -0.000   0.000
   32    7    4   26        3       0.628   1.883   0.000  -2.510  -0.000   0.000
   30    6    5   27        3       0.628   1.883   0.000  -2.510  -0.000   0.000
   23    2    1   20        3       0.628   1.883   0.000  -2.510  -0.000   0.000
   27    5    4   26        3       0.628   1.883   0.000  -2.510  -0.000   0.000
   45   18   17   42        3       0.628   1.883   0.000  -2.510  -0.000   0.000
   29    6    5   28        3       0.628   1.883   0.000  -2.510  -0.000   0.000
   22    2    1   21        3       0.628   1.883   0.000  -2.510  -0.000   0.000
   44   18   17   43        3       0.628   1.883   0.000  -2.510  -0.000   0.000
   28    5    4   26        3       0.628   1.883   0.000  -2.510  -0.000   0.000
   31    6    5   27        3       0.628   1.883   0.000  -2.510  -0.000   0.000
   29    6    5   27        3       0.628   1.883   0.000  -2.510  -0.000   0.000
   22    2    1   20        3       0.628   1.883   0.000  -2.510  -0.000   0.000
   23    2    1   19        3       0.628   1.883   0.000  -2.510  -0.000   0.000
   31    6    5   28        3       0.628   1.883   0.000  -2.510  -0.000   0.000
   25    3    2   23        3       0.628   1.883   0.000  -2.510  -0.000   0.000
   46   18   17   43        3       0.628   1.883   0.000  -2.510  -0.000   0.000
   42   17   15   38        3       0.628   1.883   0.000  -2.510  -0.000   0.000
   24    3    2   22        3       0.628   1.883   0.000  -2.510  -0.000   0.000
   23    2    1   21        3       0.628   1.883   0.000  -2.510  -0.000   0.000
   43   17   15   38        3       0.628   1.883   0.000  -2.510  -0.000   0.000
   22    2    1   19        3       0.628   1.883   0.000  -2.510  -0.000   0.000
   26    4    3   25        3       0.628   1.883   0.000  -2.510  -0.000   0.000
   26    4    3   24        3       0.628   1.883   0.000  -2.510  -0.000   0.000
   33    7    4   26        3       0.628   1.883   0.000  -2.510  -0.000   0.000
   46   18   17   42        3       0.628   1.883   0.000  -2.510  -0.000   0.000
   41   16   15   38        3       0.628   1.883   0.000  -2.510  -0.000   0.000
   45   18   17   43        3       0.628   1.883   0.000  -2.510  -0.000   0.000
   44   18   17   42        3       0.628   1.883   0.000  -2.510  -0.000   0.000
   30    6    5   28        3       0.628   1.883   0.000  -2.510  -0.000   0.000
   35   14   13   11        3       0.414   1.243   0.000  -1.657  -0.000   0.000
   37   14   13   11        3       0.414   1.243   0.000  -1.657  -0.000   0.000
   36   14   13   11        3       0.414   1.243   0.000  -1.657  -0.000   0.000
   12   11    8    9        3       0.000   0.000   0.000  -0.000  -0.000   0.000
   12   11    8    7        3       0.000   0.000   0.000  -0.000  -0.000   0.000
   10    9    8    7        3       0.000   0.000   0.000  -0.000  -0.000   0.000
   13   11    8    9        3      -1.157  -3.471   0.000   4.628  -0.000   0.000
   13   11    8    7        3      -1.157  -3.471   0.000   4.628  -0.000   0.000

[ pairs ]
     1     4    1
     2     5    1
     3     6    1
     2     7    1
     3     8    1
     6     7    1
     5     8    1
     4     9    1
     4    11    1
     7    10    1
     7    12    1
     4    15    1
     7    13    1
    10    11    1
     9    12    1
     9    13    1
     8    14    1
     3    19    1
     7    16    1
     3    20    1
     7    17    1
     3    21    1
    10    15    1
     9    16    1
     1    24    1
    12    14    1
     9    17    1
     8    18    1
     4    22    1
     1    25    1
    12    15    1
    11    16    1
     4    23    1
    13    15    1
    11    17    1
     2    26    1
     5    24    1
     5    25    1
     3    27    1
     7    24    1
     3    28    1
     7    25    1
     6    26    1
     4    29    1
    16    18    1
     8    26    1
     7    27    1
     4    30    1
     7    28    1
     4    31    1
     3    32    1
     3    33    1
     5    32    1
     5    33    1
    19    22    1
     9    32    1
     7    34    1
    20    22    1
    19    23    1
     9    33    1
    21    22    1
    20    23    1
    11    32    1
    21    23    1
    11    33    1
    11    34    1
     7    38    1
    22    24    1
    11    35    1
    23    24    1
    22    25    1
    15    32    1
    11    36    1
     9    38    1
     8    39    1
    23    25    1
    15    33    1
    11    37    1
     8    40    1
    15    34    1
    11    38    1
     8    41    1
    24    26    1
     8    42    1
    25    26    1
     8    43    1
    26    27    1
    26    28    1
    27    29    1
    18    38    1
    17    39    1
    28    29    1
    27    30    1
    17    40    1
    28    30    1
    27    31    1
    26    32    1
    17    41    1
    16    42    1
    28    31    1
    26    33    1
    16    43    1
    15    44    1
    15    45    1
    15    46    1
    38    39    1
    38    40    1
    38    41    1
    38    42    1
    38    43    1
    42    44    1
    43    44    1
    42    45    1
    43    45    1
    42    46    1
    43    46    1

