LIGPARGEN GENERATED GRO FILE
   46
    1UNK    C00    1   0.100   0.100   0.000
    1UNK    C01    2  -0.052   0.100   0.000
    1UNK    C02    3  -0.114   0.100   0.140
    1UNK    C03    4  -0.269   0.109   0.142
    1UNK    C04    5  -0.342  -0.009   0.074
    1UNK    C05    6  -0.312  -0.053  -0.067
    1UNK    C06    7  -0.317   0.128   0.291
    1UNK    C07    8  -0.471   0.141   0.327
    1UNK    C08    9  -0.480   0.169   0.477
    1UNK    O09   10  -0.395   0.135   0.561
    1UNK    C0A   11  -0.527   0.257   0.246
    1UNK    O0B   12  -0.547   0.251   0.125
    1UNK    O0C   13  -0.552   0.367   0.322
    1UNK    C0D   14  -0.610   0.479   0.253
    1UNK    C0E   15  -0.559   0.012   0.302
    1UNK    C0F   16  -0.508  -0.113   0.375
    1UNK    C0G   17  -0.711   0.033   0.325
    1UNK    C0H   18  -0.794  -0.084   0.272
    1UNK    H0I   19   0.136   0.090  -0.103
    1UNK    H0J   20   0.139   0.015   0.057
    1UNK    H0K   21   0.140   0.193   0.041
    1UNK    H0M   22  -0.079   0.010  -0.054
    1UNK    H0N   23  -0.089   0.186  -0.057
    1UNK    H0O   24  -0.074   0.187   0.194
    1UNK    H0P   25  -0.081   0.011   0.195
    1UNK    H0Q   26  -0.295   0.201   0.087
    1UNK    H0R   27  -0.445   0.025   0.064
    1UNK    H0S   28  -0.338  -0.096   0.139
    1UNK    H0T   29  -0.298   0.032  -0.134
    1UNK    H0U   30  -0.398  -0.110  -0.105
    1UNK    H0V   31  -0.227  -0.121  -0.072
    1UNK    H0W   32  -0.269   0.220   0.327
    1UNK    H0X   33  -0.273   0.048   0.351
    1UNK    H0Y   34  -0.573   0.216   0.513
    1UNK    H0Z   35  -0.563   0.570   0.291
    1UNK    H10   36  -0.717   0.483   0.276
    1UNK    H11   37  -0.596   0.476   0.145
    1UNK    H12   38  -0.556  -0.012   0.197
    1UNK    H13   39  -0.533  -0.111   0.482
    1UNK    H14   40  -0.400  -0.125   0.365
    1UNK    H15   41  -0.552  -0.203   0.332
    1UNK    H16   42  -0.745   0.123   0.271
    1UNK    H17   43  -0.734   0.050   0.431
    1UNK    H18   44  -0.766  -0.108   0.169
    1UNK    H19   45  -0.901  -0.059   0.273
    1UNK    H1A   46  -0.780  -0.173   0.334
   1.00000   1.00000   1.00000

