LIGPARGEN GENERATED GRO FILE
   41
    1UNK    C00    1   0.100   0.100   0.000
    1UNK    C01    2  -0.053   0.100   0.000
    1UNK    C02    3  -0.121   0.100   0.140
    1UNK    C03    4  -0.082   0.232   0.206
    1UNK    O04    5  -0.162   0.320   0.237
    1UNK    C05    6  -0.272   0.096   0.116
    1UNK    O06    7  -0.326   0.031   0.027
    1UNK    C07    8  -0.079  -0.019   0.235
    1UNK    C08    9  -0.153  -0.009   0.371
    1UNK    C09   10  -0.126  -0.116   0.478
    1UNK    C0A   11   0.017  -0.113   0.532
    1UNK    C0B   12  -0.178  -0.253   0.438
    1UNK    C0C   13  -0.091  -0.341   0.348
    1UNK    C0D   14  -0.021  -0.276   0.228
    1UNK    O0E   15   0.113  -0.234   0.253
    1UNK    C0F   16   0.202  -0.338   0.292
    1UNK    C0G   17  -0.098  -0.158   0.167
    1UNK    H0H   18   0.137   0.089  -0.103
    1UNK    H0I   19   0.141   0.018   0.059
    1UNK    H0J   20   0.140   0.195   0.038
    1UNK    H0K   21  -0.086   0.014  -0.059
    1UNK    H0M   22  -0.086   0.188  -0.056
    1UNK    H0N   23   0.025   0.246   0.226
    1UNK    H0O   24  -0.334   0.149   0.191
    1UNK    H0P   25   0.028  -0.005   0.257
    1UNK    H0Q   26  -0.261  -0.009   0.353
    1UNK    H0R   27  -0.130   0.088   0.416
    1UNK    H0S   28  -0.189  -0.086   0.564
    1UNK    H0T   29   0.093  -0.116   0.454
    1UNK    H0U   30   0.035  -0.197   0.600
    1UNK    H0V   31   0.035  -0.021   0.588
    1UNK    H0W   32  -0.276  -0.241   0.390
    1UNK    H0X   33  -0.198  -0.311   0.529
    1UNK    H0Y   34  -0.157  -0.419   0.309
    1UNK    H0Z   35  -0.019  -0.394   0.412
    1UNK    H10   36  -0.015  -0.353   0.150
    1UNK    H11   37   0.304  -0.300   0.281
    1UNK    H12   38   0.190  -0.426   0.229
    1UNK    H13   39   0.188  -0.363   0.397
    1UNK    H14   40  -0.204  -0.182   0.158
    1UNK    H15   41  -0.059  -0.151   0.065
   1.00000   1.00000   1.00000

