LIGPARGEN GENERATED GRO FILE
   28
    1UNK    C00    1   0.100   0.100   0.000
    1UNK    C01    2  -0.052   0.100   0.000
    1UNK    C02    3  -0.108   0.100   0.144
    1UNK    C03    4  -0.262   0.109   0.146
    1UNK    C04    5  -0.319   0.098   0.287
    1UNK    C05    6  -0.323   0.003   0.056
    1UNK    N06    7  -0.374  -0.085  -0.018
    1UNK    C07    8  -0.298   0.240   0.080
    1UNK    O08    9  -0.341   0.337   0.142
    1UNK    C09   10  -0.265   0.256  -0.068
    1UNK    C0A   11  -0.348   0.362  -0.138
    1UNK    C0B   12  -0.218   0.160  -0.176
    1UNK    C0C   13  -0.114   0.212  -0.086
    1UNK    H0D   14   0.139   0.018   0.062
    1UNK    H0E   15   0.141   0.194   0.038
    1UNK    H0F   16   0.138   0.084  -0.101
    1UNK    H0G   17  -0.079   0.003  -0.045
    1UNK    H0H   18  -0.065   0.184   0.200
    1UNK    H0I   19  -0.076   0.008   0.195
    1UNK    H0J   20  -0.300  -0.001   0.330
    1UNK    H0K   21  -0.428   0.114   0.287
    1UNK    H0M   22  -0.275   0.173   0.354
    1UNK    H0N   23  -0.445   0.370  -0.088
    1UNK    H0O   24  -0.373   0.335  -0.241
    1UNK    H0P   25  -0.298   0.459  -0.136
    1UNK    H0Q   26  -0.210   0.194  -0.280
    1UNK    H0R   27  -0.248   0.057  -0.177
    1UNK    H0S   28  -0.043   0.287  -0.119
   1.00000   1.00000   1.00000

