LIGPARGEN GENERATED GRO FILE
   35
    1UNK    C00    1   0.100   0.100   0.000
    1UNK    C01    2  -0.053   0.100   0.000
    1UNK    C02    3  -0.106   0.100   0.143
    1UNK    O03    4  -0.100   0.219  -0.065
    1UNK    C04    5  -0.101   0.214  -0.200
    1UNK    O05    6  -0.066   0.119  -0.269
    1UNK    O06    7  -0.148   0.332  -0.247
    1UNK    C07    8  -0.155   0.342  -0.390
    1UNK    C08    9  -0.281   0.274  -0.444
    1UNK    C09   10  -0.406   0.337  -0.385
    1UNK    C0A   11  -0.434   0.486  -0.418
    1UNK    N0B   12  -0.578   0.453  -0.439
    1UNK    C0C   13  -0.651   0.476  -0.314
    1UNK    C0D   14  -0.539   0.310  -0.460
    1UNK    C0E   15  -0.636   0.201  -0.406
    1UNK    O0F   16  -0.665   0.177  -0.288
    1UNK    H0G   17   0.139   0.011   0.051
    1UNK    H0H   18   0.139   0.190   0.050
    1UNK    H0I   19   0.139   0.101  -0.102
    1UNK    H0J   20  -0.091   0.011  -0.051
    1UNK    H0K   21  -0.075   0.190   0.197
    1UNK    H0M   22  -0.072   0.012   0.198
    1UNK    H0N   23  -0.216   0.100   0.142
    1UNK    H0O   24  -0.065   0.300  -0.436
    1UNK    H0P   25  -0.157   0.449  -0.414
    1UNK    H0Q   26  -0.280   0.167  -0.418
    1UNK    H0R   27  -0.281   0.281  -0.553
    1UNK    H0S   28  -0.413   0.316  -0.278
    1UNK    H0T   29  -0.386   0.521  -0.510
    1UNK    H0U   30  -0.411   0.557  -0.338
    1UNK    H0V   31  -0.657   0.584  -0.295
    1UNK    H0W   32  -0.605   0.430  -0.225
    1UNK    H0X   33  -0.754   0.440  -0.323
    1UNK    H0Y   34  -0.522   0.291  -0.568
    1UNK    H0Z   35  -0.682   0.139  -0.485
   1.00000   1.00000   1.00000

