
;
; GENERATED BY LigParGen Server
; Jorgensen Lab @ Yale University 
;
[ atomtypes ]
  opls_818  H818     1.0080     0.000    A    2.50000E-01   1.25520E-01
  opls_810  C810    12.0110     0.000    A    3.45000E-01   3.47272E-01
  opls_803  O803    15.9990     0.000    A    2.90000E-01   5.85760E-01
  opls_824  H824     1.0080     0.000    A    2.50000E-01   1.25520E-01
  opls_805  O805    15.9990     0.000    A    2.96000E-01   8.78640E-01
  opls_834  H834     1.0080     0.000    A    2.50000E-01   1.25520E-01
  opls_828  H828     1.0080     0.000    A    2.50000E-01   1.25520E-01
  opls_814  C814    12.0110     0.000    A    3.55000E-01   2.92880E-01
  opls_832  H832     1.0080     0.000    A    2.50000E-01   1.25520E-01
  opls_806  O806    15.9990     0.000    A    2.90000E-01   5.85760E-01
  opls_802  C802    12.0110     0.000    A    3.50000E-01   2.76144E-01
  opls_827  H827     1.0080     0.000    A    2.50000E-01   1.25520E-01
  opls_801  C801    12.0110     0.000    A    3.50000E-01   2.76144E-01
  opls_822  H822     1.0080     0.000    A    2.50000E-01   1.25520E-01
  opls_807  C807    12.0110     0.000    A    3.50000E-01   2.76144E-01
  opls_825  H825     1.0080     0.000    A    2.50000E-01   1.25520E-01
  opls_830  H830     1.0080     0.000    A    2.50000E-01   1.25520E-01
  opls_821  H821     1.0080     0.000    A    2.50000E-01   1.25520E-01
  opls_820  H820     1.0080     0.000    A    2.50000E-01   1.25520E-01
  opls_829  H829     1.0080     0.000    A    2.50000E-01   1.25520E-01
  opls_831  H831     1.0080     0.000    A    2.50000E-01   1.25520E-01
  opls_804  C804    12.0110     0.000    A    3.55000E-01   2.92880E-01
  opls_816  H816     1.0080     0.000    A    2.50000E-01   1.25520E-01
  opls_800  C800    12.0110     0.000    A    3.50000E-01   2.76144E-01
  opls_813  C813    12.0110     0.000    A    3.45000E-01   3.47272E-01
  opls_823  H823     1.0080     0.000    A    2.50000E-01   1.25520E-01
  opls_833  H833     1.0080     0.000    A    2.50000E-01   1.25520E-01
  opls_826  H826     1.0080     0.000    A    2.50000E-01   1.25520E-01
  opls_819  H819     1.0080     0.000    A    2.50000E-01   1.25520E-01
  opls_812  C812    12.0110     0.000    A    3.50000E-01   2.76144E-01
  opls_808  C808    12.0110     0.000    A    3.50000E-01   2.76144E-01
  opls_815  O815    15.9990     0.000    A    2.96000E-01   8.78640E-01
  opls_817  H817     1.0080     0.000    A    2.50000E-01   1.25520E-01
  opls_809  C809    12.0110     0.000    A    3.45000E-01   3.47272E-01
  opls_811  N811    14.0070     0.000    A    3.25000E-01   7.11280E-01
[ moleculetype ]
; Name               nrexcl
UNK                   3
[ atoms ]
;   nr       type  resnr residue  atom   cgnr     charge       mass  
     1   opls_800      1    UNK   C00      1    -0.2752    12.0110 
     2   opls_801      1    UNK   C01      1     0.0799    12.0110 
     3   opls_802      1    UNK   C02      1     -0.248    12.0110 
     4   opls_803      1    UNK   O03      1    -0.3216    15.9990 
     5   opls_804      1    UNK   C04      1     0.5729    12.0110 
     6   opls_805      1    UNK   O05      1    -0.5028    15.9990 
     7   opls_806      1    UNK   O06      1     -0.321    15.9990 
     8   opls_807      1    UNK   C07      1     0.0214    12.0110 
     9   opls_808      1    UNK   C08      1    -0.2068    12.0110 
    10   opls_809      1    UNK   C09      1    -0.1696    12.0110 
    11   opls_810      1    UNK   C0A      1     -0.068    12.0110 
    12   opls_811      1    UNK   N0B      1    -0.4145    14.0070 
    13   opls_812      1    UNK   C0C      1    -0.1126    12.0110 
    14   opls_813      1    UNK   C0D      1    -0.0753    12.0110 
    15   opls_814      1    UNK   C0E      1     0.3225    12.0110 
    16   opls_815      1    UNK   O0F      1    -0.4302    15.9990 
    17   opls_816      1    UNK   H0G      1     0.1017     1.0080 
    18   opls_817      1    UNK   H0H      1     0.1017     1.0080 
    19   opls_818      1    UNK   H0I      1     0.1017     1.0080 
    20   opls_819      1    UNK   H0J      1     0.1252     1.0080 
    21   opls_820      1    UNK   H0K      1     0.1021     1.0080 
    22   opls_821      1    UNK   H0M      1     0.1021     1.0080 
    23   opls_822      1    UNK   H0N      1     0.1021     1.0080 
    24   opls_823      1    UNK   H0O      1      0.123     1.0080 
    25   opls_824      1    UNK   H0P      1      0.123     1.0080 
    26   opls_825      1    UNK   H0Q      1     0.1172     1.0080 
    27   opls_826      1    UNK   H0R      1     0.1172     1.0080 
    28   opls_827      1    UNK   H0S      1      0.148     1.0080 
    29   opls_828      1    UNK   H0T      1     0.1181     1.0080 
    30   opls_829      1    UNK   H0U      1     0.1181     1.0080 
    31   opls_830      1    UNK   H0V      1     0.0969     1.0080 
    32   opls_831      1    UNK   H0W      1     0.0969     1.0080 
    33   opls_832      1    UNK   H0X      2     0.0969     1.0080 
    34   opls_833      1    UNK   H0Y      2      0.146     1.0080 
    35   opls_834      1    UNK   H0Z      2     0.1107     1.0080 
[ bonds ]
    2     1     1      0.1529 224262.400
    3     2     1      0.1529 224262.400
    4     2     1      0.1410 267776.000
    5     4     1      0.1327 179075.200
    6     5     1      0.1229 476976.000
    7     5     1      0.1327 179075.200
    8     7     1      0.1410 267776.000
    9     8     1      0.1529 224262.400
   10     9     1      0.1510 234304.000
   11    10     1      0.1520 217568.000
   12    11     1      0.1449 282001.600
   13    12     1      0.1449 282001.600
   14    10     1      0.1520 217568.000
   15    14     1      0.1522 265265.600
   16    15     1      0.1229 476976.000
   17     1     1      0.1090 284512.000
   18     1     1      0.1090 284512.000
   19     1     1      0.1090 284512.000
   20     2     1      0.1090 284512.000
   21     3     1      0.1090 284512.000
   22     3     1      0.1090 284512.000
   23     3     1      0.1090 284512.000
   24     8     1      0.1090 284512.000
   25     8     1      0.1090 284512.000
   26     9     1      0.1090 284512.000
   27     9     1      0.1090 284512.000
   28    10     1      0.1088 284512.000
   29    11     1      0.1088 284512.000
   30    11     1      0.1088 284512.000
   31    13     1      0.1090 284512.000
   32    13     1      0.1090 284512.000
   33    13     1      0.1090 284512.000
   34    14     1      0.1088 284512.000
   35    15     1      0.1090 284512.000
   14    12     1      0.1449 282001.600

[ angles ]
;  ai    aj    ak funct            c0            c1            c2            c3 
    1     2     3     1    112.700    488.273
    1     2     4     1    109.500    418.400
    2     4     5     1    116.900    694.544
    4     5     6     1    123.400    694.544
    4     5     7     1    118.180    584.923
    5     7     8     1    116.900    694.544
    7     8     9     1    109.500    418.400
    8     9    10     1    112.700    488.273
    9    10    11     1    117.200    313.800
   10    11    12     1     89.000    669.440
   11    12    13     1    126.000    418.400
    9    10    14     1    117.200    313.800
   10    14    15     1    111.100    527.184
   14    15    16     1    120.400    669.440
    2     1    17     1    110.700    313.800
    2     1    18     1    110.700    313.800
    2     1    19     1    110.700    313.800
    1     2    20     1    110.700    313.800
    2     3    21     1    110.700    313.800
    2     3    22     1    110.700    313.800
    2     3    23     1    110.700    313.800
    7     8    24     1    109.500    292.880
    7     8    25     1    109.500    292.880
    8     9    26     1    110.700    313.800
    8     9    27     1    110.700    313.800
    9    10    28     1    114.300    292.880
   10    11    29     1    117.200    313.800
   10    11    30     1    117.200    313.800
   12    13    31     1    109.500    292.880
   12    13    32     1    109.500    292.880
   12    13    33     1    109.500    292.880
   10    14    34     1    117.200    313.800
   14    15    35     1    115.000    292.880
   15    14    34     1    109.500    292.880
   17     1    19     1    107.800    276.144
    9     8    25     1    110.700    313.800
   13    12    14     1    126.000    418.400
   11    10    14     1     83.000    251.040
   11    12    14     1    126.000    418.400
    4     2    20     1    109.500    292.880
   16    15    35     1    123.000    292.880
   26     9    27     1    107.800    276.144
   12    14    34     1    111.000    292.880
   21     3    22     1    107.800    276.144
   10     9    26     1    110.700    313.800
   12    14    15     1    113.000    669.440
    3     2    20     1    110.700    313.800
   22     3    23     1    107.800    276.144
   12    11    30     1    111.000    292.880
   32    13    33     1    107.800    276.144
   10    14    12     1     89.000    669.440
   21     3    23     1    107.800    276.144
   31    13    32     1    107.800    276.144
   18     1    19     1    107.800    276.144
    9     8    24     1    110.700    313.800
    6     5     7     1    123.400    694.544
    3     2     4     1    109.500    418.400
   11    10    28     1    117.200    313.800
   17     1    18     1    107.800    276.144
   24     8    25     1    107.800    276.144
   31    13    33     1    107.800    276.144
   14    10    28     1    117.200    313.800
   29    11    30     1    114.300    292.880
   10     9    27     1    110.700    313.800
   12    11    29     1    111.000    292.880

[ dihedrals ]
; IMPROPER DIHEDRAL ANGLES 
;  ai    aj    ak    al funct            c0            c1            c2            c3            c4            c5
    35    15    14    16    4        180.000     43.932     2  
     7     5     4     6    4        180.000     43.932     2  

[ dihedrals ]
; PROPER DIHEDRAL ANGLES
;  ai    aj    ak    al funct            c0            c1            c2            c3            c4            c5
   15   14   10    9        3       0.000   0.000   0.000  -0.000  -0.000   0.000
   15   14   10   11        3       0.000   0.000   0.000  -0.000  -0.000   0.000
   15   14   12   13        3       0.000   0.000   0.000  -0.000  -0.000   0.000
   15   14   12   11        3       0.000   0.000   0.000  -0.000  -0.000   0.000
    5    4    2    3        3      -2.197   5.201   0.527  -3.531  -0.000   0.000
    5    4    2    1        3      -2.197   5.201   0.527  -3.531  -0.000   0.000
    9    8    7    5        3      -2.197   5.201   0.527  -3.531  -0.000   0.000
   13   12   11   10        3       0.000   0.000   0.000  -0.000  -0.000   0.000
   13   12   14   10        3       0.000   0.000   0.000  -0.000  -0.000   0.000
    8    7    5    6        3      21.439   0.000  -21.439  -0.000  -0.000   0.000
    8    7    5    4        3      31.206  -9.768  -21.439  -0.000  -0.000   0.000
   10    9    8    7        3       2.874   0.582   2.092  -5.548  -0.000   0.000
   11   10    9    8        3       0.000   0.000   0.000  -0.000  -0.000   0.000
   14   10    9    8        3       0.000   0.000   0.000  -0.000  -0.000   0.000
   35   15   14   10        3       0.000   0.000   0.000  -0.000  -0.000   0.000
   35   15   14   34        3       0.628   1.883   0.000  -2.510  -0.000   0.000
   35   15   14   12        3      -0.628   1.883  -1.255  -0.000  -0.000   0.000
   23    3    2    1        3       0.628   1.883   0.000  -2.510  -0.000   0.000
   17    1    2    3        3       0.628   1.883   0.000  -2.510  -0.000   0.000
   19    1    2    3        3       0.628   1.883   0.000  -2.510  -0.000   0.000
   22    3    2    1        3       0.628   1.883   0.000  -2.510  -0.000   0.000
   21    3    2    1        3       0.628   1.883   0.000  -2.510  -0.000   0.000
   18    1    2    3        3       0.628   1.883   0.000  -2.510  -0.000   0.000
   24    8    9   10        3       0.628   1.883   0.000  -2.510  -0.000   0.000
   25    8    9   10        3       0.628   1.883   0.000  -2.510  -0.000   0.000
   20    2    1   19        3       0.628   1.883   0.000  -2.510  -0.000   0.000
   26    9    8   25        3       0.628   1.883   0.000  -2.510  -0.000   0.000
   20    2    1   17        3       0.628   1.883   0.000  -2.510  -0.000   0.000
   27    9    8   24        3       0.628   1.883   0.000  -2.510  -0.000   0.000
   21    3    2   20        3       0.628   1.883   0.000  -2.510  -0.000   0.000
   22    3    2   20        3       0.628   1.883   0.000  -2.510  -0.000   0.000
   26    9    8   24        3       0.628   1.883   0.000  -2.510  -0.000   0.000
   27    9    8   25        3       0.628   1.883   0.000  -2.510  -0.000   0.000
   20    2    1   18        3       0.628   1.883   0.000  -2.510  -0.000   0.000
   23    3    2   20        3       0.628   1.883   0.000  -2.510  -0.000   0.000
   17    1    2    4        3       0.979   2.937   0.000  -3.916  -0.000   0.000
   26    9    8    7        3       0.979   2.937   0.000  -3.916  -0.000   0.000
   18    1    2    4        3       0.979   2.937   0.000  -3.916  -0.000   0.000
   23    3    2    4        3       0.979   2.937   0.000  -3.916  -0.000   0.000
   21    3    2    4        3       0.979   2.937   0.000  -3.916  -0.000   0.000
   19    1    2    4        3       0.979   2.937   0.000  -3.916  -0.000   0.000
   22    3    2    4        3       0.979   2.937   0.000  -3.916  -0.000   0.000
   27    9    8    7        3       0.979   2.937   0.000  -3.916  -0.000   0.000
   26    9   10   11        3       0.628   1.883   0.000  -2.510  -0.000   0.000
   26    9   10   14        3       0.628   1.883   0.000  -2.510  -0.000   0.000
   27    9   10   14        3       0.628   1.883   0.000  -2.510  -0.000   0.000
   27    9   10   11        3       0.628   1.883   0.000  -2.510  -0.000   0.000
   31   13   12   11        3       0.000   0.000   0.000  -0.000  -0.000   0.000
   31   13   12   14        3       0.000   0.000   0.000  -0.000  -0.000   0.000
   32   13   12   14        3       0.000   0.000   0.000  -0.000  -0.000   0.000
   33   13   12   11        3       0.000   0.000   0.000  -0.000  -0.000   0.000
   33   13   12   14        3       0.000   0.000   0.000  -0.000  -0.000   0.000
   32   13   12   11        3       0.000   0.000   0.000  -0.000  -0.000   0.000
   20    2    4    5        3       0.414   1.243   0.000  -1.657  -0.000   0.000
   24    8    7    5        3       0.414   1.243   0.000  -1.657  -0.000   0.000
   25    8    7    5        3       0.414   1.243   0.000  -1.657  -0.000   0.000
   34   14   15   16        3       0.000   0.000   0.000  -0.000  -0.000   0.000
   28   10    9    8        3       0.628   1.883   0.000  -2.510  -0.000   0.000
   28   10    9   27        3       0.628   1.883   0.000  -2.510  -0.000   0.000
   28   10    9   26        3       0.628   1.883   0.000  -2.510  -0.000   0.000
   28   10   14   15        3       0.000   0.000   0.000  -0.000  -0.000   0.000
   30   11   10    9        3       0.000   0.000   0.000  -0.000  -0.000   0.000
   29   11   10    9        3       0.000   0.000   0.000  -0.000  -0.000   0.000
   34   14   10    9        3       0.000   0.000   0.000  -0.000  -0.000   0.000
   34   14   10   11        3       0.000   0.000   0.000  -0.000  -0.000   0.000
   30   11   10   14        3       0.000   0.000   0.000  -0.000  -0.000   0.000
   29   11   10   14        3       0.000   0.000   0.000  -0.000  -0.000   0.000
   30   11   10   28        3       0.000   0.000   0.000  -0.000  -0.000   0.000
   34   14   10   28        3       0.000   0.000   0.000  -0.000  -0.000   0.000
   29   11   10   28        3       0.000   0.000   0.000  -0.000  -0.000   0.000
   28   10   11   12        3       0.000   0.000   0.000  -0.000  -0.000   0.000
   28   10   14   12        3       0.000   0.000   0.000  -0.000  -0.000   0.000
   30   11   12   13        3       0.000   0.000   0.000  -0.000  -0.000   0.000
   34   14   12   13        3       0.000   0.000   0.000  -0.000  -0.000   0.000
   29   11   12   13        3       0.000   0.000   0.000  -0.000  -0.000   0.000
   34   14   12   11        3       0.000   0.000   0.000  -0.000  -0.000   0.000
   29   11   12   14        3       0.000   0.000   0.000  -0.000  -0.000   0.000
   30   11   12   14        3       0.000   0.000   0.000  -0.000  -0.000   0.000
   12   11   10    9        3       0.000   0.000   0.000  -0.000  -0.000   0.000
   12   14   10    9        3       0.000   0.000   0.000  -0.000  -0.000   0.000
   16   15   14   10        3       0.000   0.000   0.000  -0.000  -0.000   0.000
   16   15   14   12        3       0.000   0.000   0.000  -0.000  -0.000   0.000
    6    5    4    2        3      21.439   0.000  -21.439  -0.000  -0.000   0.000
    7    5    4    2        3      31.206  -9.768  -21.439  -0.000  -0.000   0.000

[ pairs ]
     1     5    1
     3     5    1
     2     6    1
     2     7    1
     4     8    1
     6     8    1
     5     9    1
     7    10    1
     8    11    1
     3    17    1
     9    12    1
     4    17    1
     3    18    1
     8    14    1
     4    18    1
     3    19    1
     1    21    1
    10    13    1
     4    19    1
     1    22    1
     9    15    1
     1    23    1
     5    20    1
     4    21    1
    11    15    1
    10    16    1
     4    22    1
     4    23    1
    13    15    1
    12    16    1
     5    24    1
     5    25    1
     7    26    1
    10    24    1
     7    27    1
    10    25    1
     8    28    1
    17    20    1
    11    26    1
    18    20    1
    11    27    1
     9    29    1
    19    20    1
     9    30    1
    14    26    1
    12    28    1
    20    21    1
    14    27    1
    20    22    1
    13    29    1
    11    31    1
    20    23    1
    15    28    1
    14    29    1
    13    30    1
    11    32    1
     9    34    1
    14    30    1
    11    33    1
    14    31    1
    11    34    1
    10    35    1
    14    32    1
    14    33    1
    13    34    1
    12    35    1
    24    26    1
    16    34    1
    25    26    1
    24    27    1
    25    27    1
    26    28    1
    27    28    1
    28    29    1
    28    30    1
    28    34    1
    34    35    1

