
;
; GENERATED BY LigParGen Server
; Jorgensen Lab @ Yale University 
;
[ atomtypes ]
  opls_818  H818     1.0080     0.000    A    2.50000E-01   1.25520E-01
  opls_824  H824     1.0080     0.000    A    2.50000E-01   1.25520E-01
  opls_805  C805    12.0110     0.000    A    3.50000E-01   2.76144E-01
  opls_833  H833     1.0080     0.000    A    2.50000E-01   1.25520E-01
  opls_836  H836     1.0080     0.000    A    2.50000E-01   1.25520E-01
  opls_834  H834     1.0080     0.000    A    2.50000E-01   1.25520E-01
  opls_828  H828     1.0080     0.000    A    2.50000E-01   1.25520E-01
  opls_832  H832     1.0080     0.000    A    2.50000E-01   1.25520E-01
  opls_802  C802    12.0110     0.000    A    3.50000E-01   2.76144E-01
  opls_815  H815     1.0080     0.000    A    2.50000E-01   1.25520E-01
  opls_801  C801    12.0110     0.000    A    3.50000E-01   2.76144E-01
  opls_806  C806    12.0110     0.000    A    3.50000E-01   2.76144E-01
  opls_822  H822     1.0080     0.000    A    2.50000E-01   1.25520E-01
  opls_803  C803    12.0110     0.000    A    3.50000E-01   2.76144E-01
  opls_825  H825     1.0080     0.000    A    2.50000E-01   1.25520E-01
  opls_814  H814     1.0080     0.000    A    2.50000E-01   1.25520E-01
  opls_809  O809    15.9990     0.000    A    2.96000E-01   8.78640E-01
  opls_821  H821     1.0080     0.000    A    2.50000E-01   1.25520E-01
  opls_827  H827     1.0080     0.000    A    2.50000E-01   1.25520E-01
  opls_820  H820     1.0080     0.000    A    2.50000E-01   1.25520E-01
  opls_829  H829     1.0080     0.000    A    2.50000E-01   1.25520E-01
  opls_831  H831     1.0080     0.000    A    2.50000E-01   1.25520E-01
  opls_816  H816     1.0080     0.000    A    2.50000E-01   1.25520E-01
  opls_800  C800    12.0110     0.000    A    3.50000E-01   2.76144E-01
  opls_811  C811    12.0110     0.000    A    3.50000E-01   2.76144E-01
  opls_823  H823     1.0080     0.000    A    2.50000E-01   1.25520E-01
  opls_813  C813    12.0110     0.000    A    3.50000E-01   2.76144E-01
  opls_826  H826     1.0080     0.000    A    2.50000E-01   1.25520E-01
  opls_835  H835     1.0080     0.000    A    2.50000E-01   1.25520E-01
  opls_819  H819     1.0080     0.000    A    2.50000E-01   1.25520E-01
  opls_804  C804    12.0110     0.000    A    3.50000E-01   2.76144E-01
  opls_810  N810    14.0070     0.000    A    3.25000E-01   7.11280E-01
  opls_812  C812    12.0110     0.000    A    3.50000E-01   2.76144E-01
  opls_817  H817     1.0080     0.000    A    2.50000E-01   1.25520E-01
  opls_830  H830     1.0080     0.000    A    2.50000E-01   1.25520E-01
  opls_808  C808    12.0110     0.000    A    3.55000E-01   2.92880E-01
  opls_807  C807    12.0110     0.000    A    3.50000E-01   2.76144E-01
[ moleculetype ]
; Name               nrexcl
UNK                   3
[ atoms ]
;   nr       type  resnr residue  atom   cgnr     charge       mass  
     1   opls_800      1    UNK   C00      1    -0.2307    12.0110 
     2   opls_801      1    UNK   C01      1    -0.1239    12.0110 
     3   opls_802      1    UNK   C02      1     -0.177    12.0110 
     4   opls_803      1    UNK   C03      1    -0.1139    12.0110 
     5   opls_804      1    UNK   C04      1    -0.2294    12.0110 
     6   opls_805      1    UNK   C05      1    -0.1143    12.0110 
     7   opls_806      1    UNK   C06      1    -0.1576    12.0110 
     8   opls_807      1    UNK   C07      1    -0.2005    12.0110 
     9   opls_808      1    UNK   C08      1     0.5949    12.0110 
    10   opls_809      1    UNK   O09      1    -0.4512    15.9990 
    11   opls_810      1    UNK   N0A      1    -0.9551    14.0070 
    12   opls_811      1    UNK   C0B      1     0.0963    12.0110 
    13   opls_812      1    UNK   C0C      1     0.0778    12.0110 
    14   opls_813      1    UNK   C0D      1     -0.175    12.0110 
    15   opls_814      1    UNK   H0E      1     0.0819     1.0080 
    16   opls_815      1    UNK   H0F      1     0.0819     1.0080 
    17   opls_816      1    UNK   H0G      1     0.0819     1.0080 
    18   opls_817      1    UNK   H0H      1     0.1023     1.0080 
    19   opls_818      1    UNK   H0I      1     0.0942     1.0080 
    20   opls_819      1    UNK   H0J      1     0.0942     1.0080 
    21   opls_820      1    UNK   H0K      1     0.0929     1.0080 
    22   opls_821      1    UNK   H0M      1     0.0821     1.0080 
    23   opls_822      1    UNK   H0N      1     0.0821     1.0080 
    24   opls_823      1    UNK   H0O      1     0.0821     1.0080 
    25   opls_824      1    UNK   H0P      1     0.0896     1.0080 
    26   opls_825      1    UNK   H0Q      1     0.1098     1.0080 
    27   opls_826      1    UNK   H0R      1     0.1098     1.0080 
    28   opls_827      1    UNK   H0S      1     0.1151     1.0080 
    29   opls_828      1    UNK   H0T      1     0.1151     1.0080 
    30   opls_829      1    UNK   H0U      1     0.0898     1.0080 
    31   opls_830      1    UNK   H0V      1     0.0898     1.0080 
    32   opls_831      1    UNK   H0W      1     0.0898     1.0080 
    33   opls_832      1    UNK   H0X      2     0.0956     1.0080 
    34   opls_833      1    UNK   H0Y      2     0.0956     1.0080 
    35   opls_834      1    UNK   H0Z      2     0.0956     1.0080 
    36   opls_835      1    UNK   H10      2     0.0945     1.0080 
    37   opls_836      1    UNK   H11      2     0.0945     1.0080 
[ bonds ]
    2     1     1      0.1529 224262.400
    3     2     1      0.1529 224262.400
    4     3     1      0.1529 224262.400
    5     4     1      0.1529 224262.400
    6     4     1      0.1529 224262.400
    7     6     1      0.1529 224262.400
    8     7     1      0.1529 224262.400
    9     8     1      0.1522 265265.600
   10     9     1      0.1229 476976.000
   11     9     1      0.1335 410032.000
   12    11     1      0.1449 282001.600
   13    11     1      0.1449 282001.600
   14     2     1      0.1529 224262.400
   15     1     1      0.1090 284512.000
   16     1     1      0.1090 284512.000
   17     1     1      0.1090 284512.000
   18     2     1      0.1090 284512.000
   19     3     1      0.1090 284512.000
   20     3     1      0.1090 284512.000
   21     4     1      0.1090 284512.000
   22     5     1      0.1090 284512.000
   23     5     1      0.1090 284512.000
   24     5     1      0.1090 284512.000
   25     6     1      0.1090 284512.000
   26     7     1      0.1090 284512.000
   27     7     1      0.1090 284512.000
   28     8     1      0.1090 284512.000
   29     8     1      0.1090 284512.000
   30    12     1      0.1090 284512.000
   31    12     1      0.1090 284512.000
   32    12     1      0.1090 284512.000
   33    13     1      0.1090 284512.000
   34    13     1      0.1090 284512.000
   35    13     1      0.1090 284512.000
   36    14     1      0.1090 284512.000
   37    14     1      0.1090 284512.000
   14     6     1      0.1529 224262.400

[ angles ]
;  ai    aj    ak funct            c0            c1            c2            c3 
    1     2     3     1    112.700    488.273
    2     3     4     1    112.700    488.273
    3     4     5     1    112.700    488.273
    3     4     6     1    112.700    488.273
    4     6     7     1    112.700    488.273
    6     7     8     1    112.700    488.273
    7     8     9     1    111.100    527.184
    8     9    10     1    120.400    669.440
    8     9    11     1    116.600    585.760
    9    11    12     1    121.900    418.400
    9    11    13     1    121.900    418.400
    1     2    14     1    112.700    488.273
    2     1    15     1    110.700    313.800
    2     1    16     1    110.700    313.800
    2     1    17     1    110.700    313.800
    1     2    18     1    110.700    313.800
    2     3    19     1    110.700    313.800
    2     3    20     1    110.700    313.800
    3     4    21     1    110.700    313.800
    4     5    22     1    110.700    313.800
    4     5    23     1    110.700    313.800
    4     5    24     1    110.700    313.800
    4     6    25     1    110.700    313.800
    6     7    26     1    110.700    313.800
    6     7    27     1    110.700    313.800
    7     8    28     1    110.700    313.800
    7     8    29     1    110.700    313.800
   11    12    30     1    109.500    292.880
   11    12    31     1    109.500    292.880
   11    12    32     1    109.500    292.880
   11    13    33     1    109.500    292.880
   11    13    34     1    109.500    292.880
   11    13    35     1    109.500    292.880
    2    14    36     1    110.700    313.800
    2    14    37     1    110.700    313.800
    6    14    37     1    110.700    313.800
    9     8    28     1    109.500    292.880
    7     6    14     1    112.700    488.273
   33    13    34     1    107.800    276.144
    5     4     6     1    112.700    488.273
   14     6    25     1    110.700    313.800
    8     7    27     1    110.700    313.800
    3     2    14     1    112.700    488.273
   28     8    29     1    107.800    276.144
   22     5    23     1    107.800    276.144
    3     2    18     1    110.700    313.800
    4     6    14     1    112.700    488.273
    6    14    36     1    110.700    313.800
    7     6    25     1    110.700    313.800
   22     5    24     1    107.800    276.144
    4     3    19     1    110.700    313.800
   34    13    35     1    107.800    276.144
    8     7    26     1    110.700    313.800
    6     4    21     1    110.700    313.800
    9     8    29     1    109.500    292.880
   30    12    32     1    107.800    276.144
   33    13    35     1    107.800    276.144
   26     7    27     1    107.800    276.144
   30    12    31     1    107.800    276.144
   14     2    18     1    110.700    313.800
   31    12    32     1    107.800    276.144
   15     1    16     1    107.800    276.144
    2    14     6     1    112.700    488.273
   15     1    17     1    107.800    276.144
   16     1    17     1    107.800    276.144
   10     9    11     1    122.900    669.440
   12    11    13     1    118.000    418.400
   19     3    20     1    107.800    276.144
    5     4    21     1    110.700    313.800
   23     5    24     1    107.800    276.144
    4     3    20     1    110.700    313.800
   36    14    37     1    107.800    276.144

[ dihedrals ]
; IMPROPER DIHEDRAL ANGLES 
;  ai    aj    ak    al funct            c0            c1            c2            c3            c4            c5
    13    11     9    12    4        180.000     10.460     2  
    11     9     8    10    4        180.000     43.932     2  

[ dihedrals ]
; PROPER DIHEDRAL ANGLES
;  ai    aj    ak    al funct            c0            c1            c2            c3            c4            c5
    9    8    7    6        3      -4.960   6.286   1.310  -2.636  -0.000   0.000
    4    3    2    1        3       2.301  -1.464   0.837  -1.674  -0.000   0.000
    6   14    2    1        3       2.301  -1.464   0.837  -1.674  -0.000   0.000
   14    2    3    4        3       2.301  -1.464   0.837  -1.674  -0.000   0.000
   14    6    4    5        3       2.301  -1.464   0.837  -1.674  -0.000   0.000
    7    6   14    2        3       2.301  -1.464   0.837  -1.674  -0.000   0.000
    6    4    3    2        3       2.301  -1.464   0.837  -1.674  -0.000   0.000
    6   14    2    3        3       2.301  -1.464   0.837  -1.674  -0.000   0.000
   14    6    7    8        3       2.301  -1.464   0.837  -1.674  -0.000   0.000
   14    6    4    3        3       2.301  -1.464   0.837  -1.674  -0.000   0.000
    4    6   14    2        3       2.301  -1.464   0.837  -1.674  -0.000   0.000
    7    6    4    5        3       2.301  -1.464   0.837  -1.674  -0.000   0.000
    5    4    3    2        3       2.301  -1.464   0.837  -1.674  -0.000   0.000
    8    7    6    4        3       2.301  -1.464   0.837  -1.674  -0.000   0.000
    7    6    4    3        3       2.301  -1.464   0.837  -1.674  -0.000   0.000
   13   11    9    8        3      30.288  -4.812  -25.476  -0.000  -0.000   0.000
   12   11    9    8        3      30.288  -4.812  -25.476  -0.000  -0.000   0.000
   13   11    9   10        3      25.476   0.000  -25.476  -0.000  -0.000   0.000
   12   11    9   10        3      25.476   0.000  -25.476  -0.000  -0.000   0.000
   28    8    9   11        3       0.000   0.000   0.000  -0.000  -0.000   0.000
   29    8    9   11        3       0.000   0.000   0.000  -0.000  -0.000   0.000
   29    8    9   10        3       0.000   0.000   0.000  -0.000  -0.000   0.000
   28    8    9   10        3       0.000   0.000   0.000  -0.000  -0.000   0.000
   26    7    8    9        3      -0.209  -0.628   0.000   0.837  -0.000   0.000
   27    7    8    9        3      -0.209  -0.628   0.000   0.837  -0.000   0.000
   28    8    7    6        3       0.628   1.883   0.000  -2.510  -0.000   0.000
   17    1    2   14        3       0.628   1.883   0.000  -2.510  -0.000   0.000
   27    7    6   14        3       0.628   1.883   0.000  -2.510  -0.000   0.000
   21    4    3    2        3       0.628   1.883   0.000  -2.510  -0.000   0.000
   23    5    4    3        3       0.628   1.883   0.000  -2.510  -0.000   0.000
   26    7    6    4        3       0.628   1.883   0.000  -2.510  -0.000   0.000
   21    4    6   14        3       0.628   1.883   0.000  -2.510  -0.000   0.000
   21    4    6    7        3       0.628   1.883   0.000  -2.510  -0.000   0.000
   37   14    6    4        3       0.628   1.883   0.000  -2.510  -0.000   0.000
   19    3    4    6        3       0.628   1.883   0.000  -2.510  -0.000   0.000
   20    3    4    5        3       0.628   1.883   0.000  -2.510  -0.000   0.000
   16    1    2   14        3       0.628   1.883   0.000  -2.510  -0.000   0.000
   25    6   14    2        3       0.628   1.883   0.000  -2.510  -0.000   0.000
   20    3    4    6        3       0.628   1.883   0.000  -2.510  -0.000   0.000
   36   14    6    7        3       0.628   1.883   0.000  -2.510  -0.000   0.000
   19    3    4    5        3       0.628   1.883   0.000  -2.510  -0.000   0.000
   15    1    2   14        3       0.628   1.883   0.000  -2.510  -0.000   0.000
   25    6    4    3        3       0.628   1.883   0.000  -2.510  -0.000   0.000
   29    8    7    6        3       0.628   1.883   0.000  -2.510  -0.000   0.000
   37   14    6    7        3       0.628   1.883   0.000  -2.510  -0.000   0.000
   20    3    2   14        3       0.628   1.883   0.000  -2.510  -0.000   0.000
   37   14    2    1        3       0.628   1.883   0.000  -2.510  -0.000   0.000
   36   14    2    3        3       0.628   1.883   0.000  -2.510  -0.000   0.000
   17    1    2    3        3       0.628   1.883   0.000  -2.510  -0.000   0.000
   18    2    3    4        3       0.628   1.883   0.000  -2.510  -0.000   0.000
   15    1    2    3        3       0.628   1.883   0.000  -2.510  -0.000   0.000
   24    5    4    6        3       0.628   1.883   0.000  -2.510  -0.000   0.000
   27    7    6    4        3       0.628   1.883   0.000  -2.510  -0.000   0.000
   22    5    4    6        3       0.628   1.883   0.000  -2.510  -0.000   0.000
   24    5    4    3        3       0.628   1.883   0.000  -2.510  -0.000   0.000
   18    2   14    6        3       0.628   1.883   0.000  -2.510  -0.000   0.000
   16    1    2    3        3       0.628   1.883   0.000  -2.510  -0.000   0.000
   25    6    4    5        3       0.628   1.883   0.000  -2.510  -0.000   0.000
   20    3    2    1        3       0.628   1.883   0.000  -2.510  -0.000   0.000
   26    7    6   14        3       0.628   1.883   0.000  -2.510  -0.000   0.000
   36   14    6    4        3       0.628   1.883   0.000  -2.510  -0.000   0.000
   19    3    2   14        3       0.628   1.883   0.000  -2.510  -0.000   0.000
   25    6    7    8        3       0.628   1.883   0.000  -2.510  -0.000   0.000
   22    5    4    3        3       0.628   1.883   0.000  -2.510  -0.000   0.000
   37   14    2    3        3       0.628   1.883   0.000  -2.510  -0.000   0.000
   19    3    2    1        3       0.628   1.883   0.000  -2.510  -0.000   0.000
   23    5    4    6        3       0.628   1.883   0.000  -2.510  -0.000   0.000
   36   14    2    1        3       0.628   1.883   0.000  -2.510  -0.000   0.000
   18    2    1   15        3       0.628   1.883   0.000  -2.510  -0.000   0.000
   36   14    2   18        3       0.628   1.883   0.000  -2.510  -0.000   0.000
   23    5    4   21        3       0.628   1.883   0.000  -2.510  -0.000   0.000
   18    2    1   16        3       0.628   1.883   0.000  -2.510  -0.000   0.000
   21    4    3   20        3       0.628   1.883   0.000  -2.510  -0.000   0.000
   24    5    4   21        3       0.628   1.883   0.000  -2.510  -0.000   0.000
   19    3    2   18        3       0.628   1.883   0.000  -2.510  -0.000   0.000
   18    2    1   17        3       0.628   1.883   0.000  -2.510  -0.000   0.000
   21    4    3   19        3       0.628   1.883   0.000  -2.510  -0.000   0.000
   37   14    2   18        3       0.628   1.883   0.000  -2.510  -0.000   0.000
   37   14    6   25        3       0.628   1.883   0.000  -2.510  -0.000   0.000
   28    8    7   26        3       0.628   1.883   0.000  -2.510  -0.000   0.000
   28    8    7   27        3       0.628   1.883   0.000  -2.510  -0.000   0.000
   22    5    4   21        3       0.628   1.883   0.000  -2.510  -0.000   0.000
   29    8    7   26        3       0.628   1.883   0.000  -2.510  -0.000   0.000
   20    3    2   18        3       0.628   1.883   0.000  -2.510  -0.000   0.000
   25    6    4   21        3       0.628   1.883   0.000  -2.510  -0.000   0.000
   27    7    6   25        3       0.628   1.883   0.000  -2.510  -0.000   0.000
   36   14    6   25        3       0.628   1.883   0.000  -2.510  -0.000   0.000
   29    8    7   27        3       0.628   1.883   0.000  -2.510  -0.000   0.000
   26    7    6   25        3       0.628   1.883   0.000  -2.510  -0.000   0.000
   32   12   11    9        3       0.000   0.000   0.000  -0.000  -0.000   0.000
   35   13   11    9        3       0.000   0.000   0.000  -0.000  -0.000   0.000
   34   13   11    9        3       0.000   0.000   0.000  -0.000  -0.000   0.000
   33   13   11    9        3       0.000   0.000   0.000  -0.000  -0.000   0.000
   31   12   11    9        3       0.000   0.000   0.000  -0.000  -0.000   0.000
   30   12   11    9        3       0.000   0.000   0.000  -0.000  -0.000   0.000
   32   12   11   13        3       0.000   0.000   0.000  -0.000  -0.000   0.000
   31   12   11   13        3       0.000   0.000   0.000  -0.000  -0.000   0.000
   35   13   11   12        3       0.000   0.000   0.000  -0.000  -0.000   0.000
   33   13   11   12        3       0.000   0.000   0.000  -0.000  -0.000   0.000
   30   12   11   13        3       0.000   0.000   0.000  -0.000  -0.000   0.000
   34   13   11   12        3       0.000   0.000   0.000  -0.000  -0.000   0.000
   11    9    8    7        3       0.734  -9.985  -0.791  10.042  -0.000   0.000
   10    9    8    7        3       0.000   0.000   0.000  -0.000  -0.000   0.000

[ pairs ]
     1     4    1
     2     5    1
     1     6    1
     2     7    1
     3     7    1
     5     7    1
     4     8    1
     6     9    1
     7    10    1
     7    11    1
     3    15    1
     5    14    1
     3    16    1
     8    12    1
     3    17    1
     1    19    1
     8    13    1
     1    20    1
    10    12    1
     8    14    1
     4    18    1
    10    13    1
     2    21    1
     6    18    1
     5    19    1
     6    19    1
     5    20    1
     3    22    1
     6    20    1
     3    23    1
     3    24    1
     2    25    1
     7    21    1
     6    22    1
     3    25    1
    14    15    1
     6    23    1
    14    16    1
     6    24    1
     5    25    1
     4    26    1
    14    17    1
     4    27    1
    15    18    1
    14    19    1
     8    25    1
    16    18    1
    14    20    1
     6    28    1
    17    18    1
    14    21    1
     9    26    1
     6    29    1
     9    27    1
    18    19    1
     1    36    1
    18    20    1
    10    28    1
     1    37    1
    11    28    1
    10    29    1
     9    30    1
     3    36    1
    19    21    1
    14    26    1
    11    29    1
     9    31    1
     4    36    1
     3    37    1
    20    21    1
    14    27    1
     9    32    1
     4    37    1
     9    33    1
    21    22    1
    13    30    1
     9    34    1
     7    36    1
    21    23    1
    13    31    1
     9    35    1
     7    37    1
    21    24    1
    13    32    1
    12    33    1
    21    25    1
    12    34    1
    12    35    1
    25    26    1
    25    27    1
    26    28    1
    18    36    1
    27    28    1
    26    29    1
    18    37    1
    27    29    1
    25    36    1
    25    37    1

