
;
; GENERATED BY LigParGen Server
; Jorgensen Lab @ Yale University 
;
[ atomtypes ]
  opls_818  H818     1.0080     0.000    A    2.50000E-01   1.25520E-01
  opls_814  C814    12.0110     0.000    A    3.50000E-01   2.76144E-01
  opls_802  C802    12.0110     0.000    A    3.30000E-01   2.76144E-01
  opls_824  H824     1.0080     0.000    A    2.50000E-01   1.25520E-01
  opls_809  O809    15.9990     0.000    A    2.90000E-01   5.85760E-01
  opls_836  H836     1.0080     0.000    A    2.50000E-01   1.25520E-01
  opls_834  H834     1.0080     0.000    A    2.50000E-01   1.25520E-01
  opls_828  H828     1.0080     0.000    A    2.50000E-01   1.25520E-01
  opls_812  O812    15.9990     0.000    A    2.90000E-01   5.85760E-01
  opls_806  N806    14.0070     0.000    A    3.30000E-01   7.11280E-01
  opls_815  C815    12.0110     0.000    A    3.50000E-01   2.76144E-01
  opls_827  H827     1.0080     0.000    A    2.50000E-01   1.25520E-01
  opls_801  C801    12.0110     0.000    A    3.50000E-01   2.76144E-01
  opls_811  O811    15.9990     0.000    A    2.96000E-01   8.78640E-01
  opls_822  H822     1.0080     0.000    A    2.50000E-01   1.25520E-01
  opls_807  C807    12.0110     0.000    A    3.50000E-01   2.76144E-01
  opls_825  H825     1.0080     0.000    A    2.50000E-01   1.25520E-01
  opls_826  H826     1.0080     0.000    A    2.50000E-01   1.25520E-01
  opls_830  H830     1.0080     0.000    A    2.50000E-01   1.25520E-01
  opls_821  H821     1.0080     0.000    A    2.50000E-01   1.25520E-01
  opls_803  N803    14.0070     0.000    A    3.20000E-01   7.11280E-01
  opls_829  H829     1.0080     0.000    A    2.50000E-01   1.25520E-01
  opls_831  H831     1.0080     0.000    A    2.50000E-01   1.25520E-01
  opls_810  C810    12.0110     0.000    A    3.55000E-01   2.92880E-01
  opls_832  H832     1.0080     0.000    A    2.50000E-01   1.25520E-01
  opls_800  C800    12.0110     0.000    A    3.50000E-01   2.76144E-01
  opls_805  C805    12.0110     0.000    A    3.50000E-01   2.76144E-01
  opls_816  C816    12.0110     0.000    A    3.30000E-01   2.76144E-01
  opls_823  H823     1.0080     0.000    A    2.50000E-01   1.25520E-01
  opls_833  H833     1.0080     0.000    A    2.50000E-01   1.25520E-01
  opls_813  C813    12.0110     0.000    A    3.50000E-01   2.76144E-01
  opls_820  H820     1.0080     0.000    A    2.50000E-01   1.25520E-01
  opls_835  H835     1.0080     0.000    A    2.50000E-01   1.25520E-01
  opls_819  H819     1.0080     0.000    A    2.50000E-01   1.25520E-01
  opls_804  C804    12.0110     0.000    A    3.50000E-01   2.76144E-01
  opls_808  C808    12.0110     0.000    A    3.50000E-01   2.76144E-01
  opls_817  N817    14.0070     0.000    A    3.20000E-01   7.11280E-01
[ moleculetype ]
; Name               nrexcl
UNK                   3
[ atoms ]
;   nr       type  resnr residue  atom   cgnr     charge       mass  
     1   opls_800      1    UNK   C00      1    -0.2363    12.0110 
     2   opls_801      1    UNK   C01      1     0.0175    12.0110 
     3   opls_802      1    UNK   C02      1     0.1221    12.0110 
     4   opls_803      1    UNK   N03      1    -0.3815    14.0070 
     5   opls_804      1    UNK   C04      1     0.1006    12.0110 
     6   opls_805      1    UNK   C05      1     0.0008    12.0110 
     7   opls_806      1    UNK   N06      1    -0.5586    14.0070 
     8   opls_807      1    UNK   C07      1    -0.0608    12.0110 
     9   opls_808      1    UNK   C08      1    -0.0649    12.0110 
    10   opls_809      1    UNK   O09      1    -0.3449    15.9990 
    11   opls_810      1    UNK   C0A      1     0.5813    12.0110 
    12   opls_811      1    UNK   O0B      1    -0.4791    15.9990 
    13   opls_812      1    UNK   O0C      1    -0.3294    15.9990 
    14   opls_813      1    UNK   C0D      1      0.027    12.0110 
    15   opls_814      1    UNK   C0E      1    -0.2158    12.0110 
    16   opls_815      1    UNK   C0F      1    -0.0359    12.0110 
    17   opls_816      1    UNK   C0G      1     0.1262    12.0110 
    18   opls_817      1    UNK   N0H      1    -0.3919    14.0070 
    19   opls_818      1    UNK   H0I      1     0.1043     1.0080 
    20   opls_819      1    UNK   H0J      1     0.1043     1.0080 
    21   opls_820      1    UNK   H0K      1     0.1043     1.0080 
    22   opls_821      1    UNK   H0M      1     0.1588     1.0080 
    23   opls_822      1    UNK   H0N      1     0.1449     1.0080 
    24   opls_823      1    UNK   H0O      1     0.1005     1.0080 
    25   opls_824      1    UNK   H0P      1     0.1005     1.0080 
    26   opls_825      1    UNK   H0Q      1      0.091     1.0080 
    27   opls_826      1    UNK   H0R      1      0.091     1.0080 
    28   opls_827      1    UNK   H0S      1      0.091     1.0080 
    29   opls_828      1    UNK   H0T      1      0.086     1.0080 
    30   opls_829      1    UNK   H0U      1      0.086     1.0080 
    31   opls_830      1    UNK   H0V      1      0.086     1.0080 
    32   opls_831      1    UNK   H0W      1     0.1244     1.0080 
    33   opls_832      1    UNK   H0X      2     0.1244     1.0080 
    34   opls_833      1    UNK   H0Y      2     0.1289     1.0080 
    35   opls_834      1    UNK   H0Z      2     0.1289     1.0080 
    36   opls_835      1    UNK   H10      2     0.1342     1.0080 
    37   opls_836      1    UNK   H11      2     0.1342     1.0080 
[ bonds ]
    2     1     1      0.1529 224262.400
    3     2     1      0.1470 326352.000
    4     3     1      0.1157 543920.000
    5     2     1      0.1529 224262.400
    6     5     1      0.1529 224262.400
    7     6     1      0.1448 319657.600
    8     7     1      0.1448 319657.600
    9     7     1      0.1448 319657.600
   10     5     1      0.1410 267776.000
   11    10     1      0.1327 179075.200
   12    11     1      0.1229 476976.000
   13    11     1      0.1327 179075.200
   14    13     1      0.1410 267776.000
   15    14     1      0.1529 224262.400
   16    15     1      0.1529 224262.400
   17    16     1      0.1470 326352.000
   18    17     1      0.1157 543920.000
   19     1     1      0.1090 284512.000
   20     1     1      0.1090 284512.000
   21     1     1      0.1090 284512.000
   22     2     1      0.1090 284512.000
   23     5     1      0.1090 284512.000
   24     6     1      0.1090 284512.000
   25     6     1      0.1090 284512.000
   26     8     1      0.1090 284512.000
   27     8     1      0.1090 284512.000
   28     8     1      0.1090 284512.000
   29     9     1      0.1090 284512.000
   30     9     1      0.1090 284512.000
   31     9     1      0.1090 284512.000
   32    14     1      0.1090 284512.000
   33    14     1      0.1090 284512.000
   34    15     1      0.1090 284512.000
   35    15     1      0.1090 284512.000
   36    16     1      0.1090 284512.000
   37    16     1      0.1090 284512.000

[ angles ]
;  ai    aj    ak funct            c0            c1            c2            c3 
    1     2     3     1    112.700    488.273
    2     3     4     1    180.000   1255.200
    1     2     5     1    112.700    488.273
    2     5     6     1    112.700    488.273
    5     6     7     1    109.470    470.282
    6     7     8     1    107.200    433.462
    6     7     9     1    107.200    433.462
    2     5    10     1    109.500    418.400
    5    10    11     1    116.900    694.544
   10    11    12     1    123.400    694.544
   10    11    13     1    118.180    584.923
   11    13    14     1    116.900    694.544
   13    14    15     1    109.500    418.400
   14    15    16     1    112.700    488.273
   15    16    17     1    112.700    488.273
   16    17    18     1    180.000   1255.200
    2     1    19     1    110.700    313.800
    2     1    20     1    110.700    313.800
    2     1    21     1    110.700    313.800
    1     2    22     1    110.700    313.800
    2     5    23     1    110.700    313.800
    5     6    24     1    110.700    313.800
    5     6    25     1    110.700    313.800
    7     8    26     1    109.500    292.880
    7     8    27     1    109.500    292.880
    7     8    28     1    109.500    292.880
    7     9    29     1    109.500    292.880
    7     9    30     1    109.500    292.880
    7     9    31     1    109.500    292.880
   13    14    32     1    109.500    292.880
   13    14    33     1    109.500    292.880
   14    15    34     1    110.700    313.800
   14    15    35     1    110.700    313.800
   15    16    36     1    110.700    313.800
   15    16    37     1    110.700    313.800
   29     9    30     1    107.800    276.144
   17    16    36     1    108.500    292.880
    7     6    24     1    109.500    292.880
   26     8    27     1    107.800    276.144
   10     5    23     1    109.500    292.880
   30     9    31     1    107.800    276.144
    5     2    22     1    110.700    313.800
    6     5    10     1    109.500    418.400
   29     9    31     1    107.800    276.144
    7     6    25     1    109.500    292.880
   15    14    33     1    110.700    313.800
   26     8    28     1    107.800    276.144
   27     8    28     1    107.800    276.144
   19     1    20     1    107.800    276.144
    3     2    22     1    108.500    292.880
   36    16    37     1    107.800    276.144
   32    14    33     1    107.800    276.144
   16    15    34     1    110.700    313.800
   34    15    35     1    107.800    276.144
   19     1    21     1    107.800    276.144
    3     2     5     1    112.700    488.273
   15    14    32     1    110.700    313.800
   24     6    25     1    107.800    276.144
   12    11    13     1    123.400    694.544
    6     5    23     1    110.700    313.800
   20     1    21     1    107.800    276.144
   16    15    35     1    110.700    313.800
   17    16    37     1    108.500    292.880
    8     7     9     1    107.200    433.462

[ dihedrals ]
; IMPROPER DIHEDRAL ANGLES 
;  ai    aj    ak    al funct            c0            c1            c2            c3            c4            c5
    13    11    10    12    4        180.000     43.932     2  

[ dihedrals ]
; PROPER DIHEDRAL ANGLES
;  ai    aj    ak    al funct            c0            c1            c2            c3            c4            c5
   11   10    5    6        3      -2.197   5.201   0.527  -3.531  -0.000   0.000
   11   10    5    2        3      -2.197   5.201   0.527  -3.531  -0.000   0.000
    6    5    2    1        3       2.301  -1.464   0.837  -1.674  -0.000   0.000
    6    5    2    3        3      -2.720   0.000   2.720  -0.000  -0.000   0.000
   16   15   14   13        3       2.874   0.582   2.092  -5.548  -0.000   0.000
    5    2    3    4        3       0.000   0.000   0.000  -0.000  -0.000   0.000
   15   14   13   11        3      -2.197   5.201   0.527  -3.531  -0.000   0.000
    9    7    6    5        3       1.789   3.492   0.536  -5.816  -0.000   0.000
    8    7    6    5        3       1.789   3.492   0.536  -5.816  -0.000   0.000
   14   13   11   12        3      21.439   0.000  -21.439  -0.000  -0.000   0.000
   14   13   11   10        3      31.206  -9.768  -21.439  -0.000  -0.000   0.000
   17   16   15   14        3      -2.720   0.000   2.720  -0.000  -0.000   0.000
   33   14   15   16        3       0.628   1.883   0.000  -2.510  -0.000   0.000
   36   16   15   14        3       0.628   1.883   0.000  -2.510  -0.000   0.000
   25    6    5    2        3       0.628   1.883   0.000  -2.510  -0.000   0.000
   24    6    5    2        3       0.628   1.883   0.000  -2.510  -0.000   0.000
   20    1    2    5        3       0.628   1.883   0.000  -2.510  -0.000   0.000
   32   14   15   16        3       0.628   1.883   0.000  -2.510  -0.000   0.000
   21    1    2    5        3       0.628   1.883   0.000  -2.510  -0.000   0.000
   23    5    2    1        3       0.628   1.883   0.000  -2.510  -0.000   0.000
   37   16   15   14        3       0.628   1.883   0.000  -2.510  -0.000   0.000
   19    1    2    5        3       0.628   1.883   0.000  -2.510  -0.000   0.000
   22    2    5    6        3       0.628   1.883   0.000  -2.510  -0.000   0.000
   23    5    2    3        3       0.766   2.297   0.000  -3.063  -0.000   0.000
   19    1    2    3        3       0.766   2.297   0.000  -3.063  -0.000   0.000
   35   15   16   17        3       0.766   2.297   0.000  -3.063  -0.000   0.000
   34   15   16   17        3       0.766   2.297   0.000  -3.063  -0.000   0.000
   20    1    2    3        3       0.766   2.297   0.000  -3.063  -0.000   0.000
   21    1    2    3        3       0.766   2.297   0.000  -3.063  -0.000   0.000
   36   16   15   35        3       0.628   1.883   0.000  -2.510  -0.000   0.000
   35   15   14   33        3       0.628   1.883   0.000  -2.510  -0.000   0.000
   22    2    1   19        3       0.628   1.883   0.000  -2.510  -0.000   0.000
   35   15   14   32        3       0.628   1.883   0.000  -2.510  -0.000   0.000
   34   15   14   32        3       0.628   1.883   0.000  -2.510  -0.000   0.000
   22    2    1   21        3       0.628   1.883   0.000  -2.510  -0.000   0.000
   22    2    1   20        3       0.628   1.883   0.000  -2.510  -0.000   0.000
   24    6    5   23        3       0.628   1.883   0.000  -2.510  -0.000   0.000
   37   16   15   35        3       0.628   1.883   0.000  -2.510  -0.000   0.000
   36   16   15   34        3       0.628   1.883   0.000  -2.510  -0.000   0.000
   23    5    2   22        3       0.628   1.883   0.000  -2.510  -0.000   0.000
   34   15   14   33        3       0.628   1.883   0.000  -2.510  -0.000   0.000
   25    6    5   23        3       0.628   1.883   0.000  -2.510  -0.000   0.000
   37   16   15   34        3       0.628   1.883   0.000  -2.510  -0.000   0.000
   23    5    6    7        3      -4.096   5.088   2.966  -3.958  -0.000   0.000
   25    6    5   10        3       0.979   2.937   0.000  -3.916  -0.000   0.000
   22    2    5   10        3       0.979   2.937   0.000  -3.916  -0.000   0.000
   34   15   14   13        3       0.979   2.937   0.000  -3.916  -0.000   0.000
   35   15   14   13        3       0.979   2.937   0.000  -3.916  -0.000   0.000
   24    6    5   10        3       0.979   2.937   0.000  -3.916  -0.000   0.000
   36   16   17   18        3       0.000   0.000   0.000  -0.000  -0.000   0.000
   37   16   17   18        3       0.000   0.000   0.000  -0.000  -0.000   0.000
   22    2    3    4        3       0.000   0.000   0.000  -0.000  -0.000   0.000
   31    9    7    8        3       1.172   3.515   0.000  -4.686  -0.000   0.000
   24    6    7    9        3       1.172   3.515   0.000  -4.686  -0.000   0.000
   27    8    7    6        3       1.172   3.515   0.000  -4.686  -0.000   0.000
   30    9    7    6        3       1.172   3.515   0.000  -4.686  -0.000   0.000
   28    8    7    6        3       1.172   3.515   0.000  -4.686  -0.000   0.000
   29    9    7    8        3       1.172   3.515   0.000  -4.686  -0.000   0.000
   27    8    7    9        3       1.172   3.515   0.000  -4.686  -0.000   0.000
   29    9    7    6        3       1.172   3.515   0.000  -4.686  -0.000   0.000
   30    9    7    8        3       1.172   3.515   0.000  -4.686  -0.000   0.000
   25    6    7    8        3       1.172   3.515   0.000  -4.686  -0.000   0.000
   28    8    7    9        3       1.172   3.515   0.000  -4.686  -0.000   0.000
   26    8    7    6        3       1.172   3.515   0.000  -4.686  -0.000   0.000
   24    6    7    8        3       1.172   3.515   0.000  -4.686  -0.000   0.000
   26    8    7    9        3       1.172   3.515   0.000  -4.686  -0.000   0.000
   25    6    7    9        3       1.172   3.515   0.000  -4.686  -0.000   0.000
   31    9    7    6        3       1.172   3.515   0.000  -4.686  -0.000   0.000
   32   14   13   11        3       0.414   1.243   0.000  -1.657  -0.000   0.000
   33   14   13   11        3       0.414   1.243   0.000  -1.657  -0.000   0.000
   23    5   10   11        3       0.414   1.243   0.000  -1.657  -0.000   0.000
    7    6    5    2        3       3.335  -1.552   2.820  -4.602  -0.000   0.000
   18   17   16   15        3       0.000   0.000   0.000  -0.000  -0.000   0.000
    4    3    2    1        3       0.000   0.000   0.000  -0.000  -0.000   0.000
   12   11   10    5        3      21.439   0.000  -21.439  -0.000  -0.000   0.000
   13   11   10    5        3      31.206  -9.768  -21.439  -0.000  -0.000   0.000
   10    5    2    1        3       2.874   0.582   2.092  -5.548  -0.000   0.000
   10    5    2    3        3       2.874   0.582   2.092  -5.548  -0.000   0.000
   10    5    6    7        3      16.736  -16.736   0.000  -0.000  -0.000   0.000

[ pairs ]
     1     4    1
     1     6    1
     4     5    1
     3     6    1
     2     7    1
     1    10    1
     5     8    1
     3    10    1
     2    11    1
     5     9    1
     7    10    1
     6    11    1
     5    12    1
     5    13    1
     3    19    1
     3    20    1
    10    14    1
     5    19    1
     3    21    1
     1    23    1
     5    20    1
    12    14    1
    11    15    1
     5    21    1
     4    22    1
     3    23    1
     2    24    1
     2    25    1
     6    22    1
    13    16    1
     7    23    1
    14    17    1
    10    22    1
     8    24    1
     6    26    1
    15    18    1
     9    24    1
     8    25    1
     6    27    1
    11    23    1
    10    24    1
     9    25    1
     6    28    1
    10    25    1
     9    26    1
     6    29    1
     9    27    1
     6    30    1
     9    28    1
     8    29    1
     6    31    1
     8    30    1
     8    31    1
    19    22    1
    20    22    1
    21    22    1
    11    32    1
    11    33    1
    22    23    1
    23    24    1
    13    34    1
    23    25    1
    16    32    1
    13    35    1
    16    33    1
    14    36    1
    17    34    1
    14    37    1
    17    35    1
    18    36    1
    18    37    1
    32    34    1
    33    34    1
    32    35    1
    33    35    1
    34    36    1
    35    36    1
    34    37    1
    35    37    1

