LIGPARGEN GENERATED GRO FILE
   37
    1UNK    C00    1   0.100   0.100   0.000
    1UNK    C01    2  -0.054   0.100   0.000
    1UNK    C02    3  -0.094   0.100   0.147
    1UNK    N03    4  -0.127   0.100   0.268
    1UNK    C04    5  -0.117   0.214  -0.082
    1UNK    C05    6  -0.056   0.233  -0.224
    1UNK    N06    7  -0.062   0.120  -0.320
    1UNK    C07    8  -0.200   0.080  -0.352
    1UNK    C08    9   0.004   0.160  -0.445
    1UNK    O09   10  -0.259   0.190  -0.101
    1UNK    C0A   11  -0.349   0.266  -0.034
    1UNK    O0B   12  -0.322   0.353   0.048
    1UNK    O0C   13  -0.473   0.227  -0.070
    1UNK    C0D   14  -0.568   0.220   0.037
    1UNK    C0E   15  -0.632   0.353   0.079
    1UNK    C0F   16  -0.713   0.425  -0.028
    1UNK    C0G   17  -0.832   0.343  -0.077
    1UNK    N0H   18  -0.930   0.275  -0.117
    1UNK    H0I   19   0.139   0.032   0.077
    1UNK    H0J   20   0.140   0.200   0.023
    1UNK    H0K   21   0.140   0.067  -0.096
    1UNK    H0M   22  -0.088   0.004  -0.040
    1UNK    H0N   23  -0.102   0.309  -0.028
    1UNK    H0O   24   0.049   0.261  -0.211
    1UNK    H0P   25  -0.106   0.320  -0.269
    1UNK    H0Q   26  -0.241   0.018  -0.272
    1UNK    H0R   27  -0.204   0.018  -0.442
    1UNK    H0S   28  -0.266   0.167  -0.369
    1UNK    H0T   29   0.110   0.182  -0.428
    1UNK    H0U   30  -0.043   0.247  -0.492
    1UNK    H0V   31   0.002   0.077  -0.518
    1UNK    H0W   32  -0.519   0.174   0.124
    1UNK    H0X   33  -0.646   0.150   0.005
    1UNK    H0Y   34  -0.553   0.422   0.112
    1UNK    H0Z   35  -0.696   0.333   0.165
    1UNK    H10   36  -0.650   0.450  -0.114
    1UNK    H11   37  -0.751   0.519   0.013
   1.00000   1.00000   1.00000

