LIGPARGEN GENERATED GRO FILE
   29
    1UNK    C00    1   0.100   0.100   0.000
    1UNK    C01    2  -0.052   0.100   0.000
    1UNK    C02    3  -0.108   0.100   0.143
    1UNK    C03    4  -0.265   0.106   0.154
    1UNK    C04    5  -0.331  -0.016   0.084
    1UNK    C05    6  -0.289  -0.154   0.133
    1UNK    C06    7  -0.299   0.108   0.307
    1UNK    C07    8  -0.448   0.105   0.342
    1UNK    C08    9  -0.320   0.234   0.083
    1UNK    Cl0   10  -0.257   0.388   0.148
    1UNK    H0A   11   0.138   0.100  -0.103
    1UNK    H0B   12   0.139   0.011   0.051
    1UNK    H0C   13   0.139   0.189   0.050
    1UNK    H0D   14  -0.087   0.012  -0.055
    1UNK    H0E   15  -0.086   0.188  -0.055
    1UNK    H0F   16  -0.064   0.184   0.198
    1UNK    H0G   17  -0.072   0.010   0.194
    1UNK    H0H   18  -0.312  -0.011  -0.024
    1UNK    H0I   19  -0.441  -0.009   0.093
    1UNK    H0J   20  -0.182  -0.172   0.116
    1UNK    H0K   21  -0.344  -0.231   0.079
    1UNK    H0M   22  -0.310  -0.167   0.240
    1UNK    H0N   23  -0.255   0.197   0.354
    1UNK    H0O   24  -0.251   0.023   0.357
    1UNK    H0P   25  -0.505   0.179   0.286
    1UNK    H0Q   26  -0.461   0.128   0.449
    1UNK    H0R   27  -0.491   0.007   0.324
    1UNK    H0S   28  -0.429   0.239   0.091
    1UNK    H0T   29  -0.297   0.233  -0.024
   1.00000   1.00000   1.00000

