
;
; GENERATED BY LigParGen Server
; Jorgensen Lab @ Yale University 
;
[ atomtypes ]
  opls_818  H818     1.0080     0.000    A    2.50000E-01   1.25520E-01
  opls_824  H824     1.0080     0.000    A    2.50000E-01   1.25520E-01
  opls_805  C805    12.0110     0.000    A    3.50000E-01   2.76144E-01
  opls_828  H828     1.0080     0.000    A    2.50000E-01   1.25520E-01
  opls_813  H813     1.0080     0.000    A    2.50000E-01   1.25520E-01
  opls_802  C802    12.0110     0.000    A    3.50000E-01   2.76144E-01
  opls_815  H815     1.0080     0.000    A    2.50000E-01   1.25520E-01
  opls_801  C801    12.0110     0.000    A    3.50000E-01   2.76144E-01
  opls_822  H822     1.0080     0.000    A    2.50000E-01   1.25520E-01
  opls_803  C803    12.0110     0.000    A    3.50000E-01   2.76144E-01
  opls_825  H825     1.0080     0.000    A    2.50000E-01   1.25520E-01
  opls_814  H814     1.0080     0.000    A    2.50000E-01   1.25520E-01
  opls_821  H821     1.0080     0.000    A    2.50000E-01   1.25520E-01
  opls_820  H820     1.0080     0.000    A    2.50000E-01   1.25520E-01
  opls_811  H811     1.0080     0.000    A    2.50000E-01   1.25520E-01
  opls_810  H810     1.0080     0.000    A    2.50000E-01   1.25520E-01
  opls_816  H816     1.0080     0.000    A    2.50000E-01   1.25520E-01
  opls_800  C800    12.0110     0.000    A    3.50000E-01   2.76144E-01
  opls_807  C807    12.0110     0.000    A    3.50000E-01   2.76144E-01
  opls_806  C806    12.0110     0.000    A    3.50000E-01   2.76144E-01
  opls_823  H823     1.0080     0.000    A    2.50000E-01   1.25520E-01
  opls_826  H826     1.0080     0.000    A    2.50000E-01   1.25520E-01
  opls_819  H819     1.0080     0.000    A    2.50000E-01   1.25520E-01
  opls_804  C804    12.0110     0.000    A    3.50000E-01   2.76144E-01
  opls_827  H827     1.0080     0.000    A    2.50000E-01   1.25520E-01
  opls_808  C808    12.0110     0.000    A    3.50000E-01   2.76144E-01
  opls_817  H817     1.0080     0.000    A    2.50000E-01   1.25520E-01
  opls_812  H812     1.0080     0.000    A    2.50000E-01   1.25520E-01
  opls_809 Cl809    35.4500     0.000    A    3.40000E-01   1.25520E+00
[ moleculetype ]
; Name               nrexcl
UNK                   3
[ atoms ]
;   nr       type  resnr residue  atom   cgnr     charge       mass  
     1   opls_800      1    UNK   C00      1     -0.239    12.0110 
     2   opls_801      1    UNK   C01      1    -0.1786    12.0110 
     3   opls_802      1    UNK   C02      1    -0.1712    12.0110 
     4   opls_803      1    UNK   C03      1    -0.0413    12.0110 
     5   opls_804      1    UNK   C04      1    -0.1693    12.0110 
     6   opls_805      1    UNK   C05      1    -0.2339    12.0110 
     7   opls_806      1    UNK   C06      1    -0.1726    12.0110 
     8   opls_807      1    UNK   C07      1    -0.2371    12.0110 
     9   opls_808      1    UNK   C08      1     0.0242    12.0110 
    10   opls_809      1    UNK   Cl0      1    -0.2897    35.4500 
    11   opls_810      1    UNK   H0A      1      0.082     1.0080 
    12   opls_811      1    UNK   H0B      1      0.082     1.0080 
    13   opls_812      1    UNK   H0C      1      0.082     1.0080 
    14   opls_813      1    UNK   H0D      1     0.0888     1.0080 
    15   opls_814      1    UNK   H0E      1     0.0888     1.0080 
    16   opls_815      1    UNK   H0F      1     0.0969     1.0080 
    17   opls_816      1    UNK   H0G      1     0.0969     1.0080 
    18   opls_817      1    UNK   H0H      1     0.0872     1.0080 
    19   opls_818      1    UNK   H0I      1     0.0872     1.0080 
    20   opls_819      1    UNK   H0J      1     0.0838     1.0080 
    21   opls_820      1    UNK   H0K      1     0.0838     1.0080 
    22   opls_821      1    UNK   H0M      1     0.0838     1.0080 
    23   opls_822      1    UNK   H0N      1     0.0962     1.0080 
    24   opls_823      1    UNK   H0O      1     0.0962     1.0080 
    25   opls_824      1    UNK   H0P      1     0.0819     1.0080 
    26   opls_825      1    UNK   H0Q      1     0.0819     1.0080 
    27   opls_826      1    UNK   H0R      1     0.0819     1.0080 
    28   opls_827      1    UNK   H0S      1     0.1136     1.0080 
    29   opls_828      1    UNK   H0T      1     0.1136     1.0080 
[ bonds ]
    2     1     1      0.1529 224262.400
    3     2     1      0.1529 224262.400
    4     3     1      0.1529 224262.400
    5     4     1      0.1529 224262.400
    6     5     1      0.1529 224262.400
    7     4     1      0.1529 224262.400
    8     7     1      0.1529 224262.400
    9     4     1      0.1529 224262.400
   10     9     1      0.1781 205016.000
   11     1     1      0.1090 284512.000
   12     1     1      0.1090 284512.000
   13     1     1      0.1090 284512.000
   14     2     1      0.1090 284512.000
   15     2     1      0.1090 284512.000
   16     3     1      0.1090 284512.000
   17     3     1      0.1090 284512.000
   18     5     1      0.1090 284512.000
   19     5     1      0.1090 284512.000
   20     6     1      0.1090 284512.000
   21     6     1      0.1090 284512.000
   22     6     1      0.1090 284512.000
   23     7     1      0.1090 284512.000
   24     7     1      0.1090 284512.000
   25     8     1      0.1090 284512.000
   26     8     1      0.1090 284512.000
   27     8     1      0.1090 284512.000
   28     9     1      0.1090 284512.000
   29     9     1      0.1090 284512.000

[ angles ]
;  ai    aj    ak funct            c0            c1            c2            c3 
    1     2     3     1    112.700    488.273
    2     3     4     1    112.700    488.273
    3     4     5     1    112.700    488.273
    4     5     6     1    112.700    488.273
    3     4     7     1    112.700    488.273
    4     7     8     1    112.700    488.273
    3     4     9     1    112.700    488.273
    4     9    10     1    109.800    577.392
    2     1    11     1    110.700    313.800
    2     1    12     1    110.700    313.800
    2     1    13     1    110.700    313.800
    1     2    14     1    110.700    313.800
    1     2    15     1    110.700    313.800
    2     3    16     1    110.700    313.800
    2     3    17     1    110.700    313.800
    4     5    18     1    110.700    313.800
    4     5    19     1    110.700    313.800
    5     6    20     1    110.700    313.800
    5     6    21     1    110.700    313.800
    5     6    22     1    110.700    313.800
    4     7    23     1    110.700    313.800
    4     7    24     1    110.700    313.800
    7     8    25     1    110.700    313.800
    7     8    26     1    110.700    313.800
    7     8    27     1    110.700    313.800
    4     9    28     1    110.700    313.800
    4     9    29     1    110.700    313.800
   25     8    27     1    107.800    276.144
   16     3    17     1    107.800    276.144
    3     2    14     1    110.700    313.800
    3     2    15     1    110.700    313.800
   11     1    13     1    107.800    276.144
   10     9    28     1    107.600    426.768
   20     6    21     1    107.800    276.144
    5     4     7     1    112.700    488.273
   21     6    22     1    107.800    276.144
   10     9    29     1    107.600    426.768
   20     6    22     1    107.800    276.144
    5     4     9     1    112.700    488.273
    6     5    19     1    110.700    313.800
   11     1    12     1    107.800    276.144
   28     9    29     1    107.800    276.144
    8     7    23     1    110.700    313.800
   23     7    24     1    107.800    276.144
   12     1    13     1    107.800    276.144
   14     2    15     1    107.800    276.144
   25     8    26     1    107.800    276.144
   18     5    19     1    107.800    276.144
    7     4     9     1    112.700    488.273
    4     3    16     1    110.700    313.800
    4     3    17     1    110.700    313.800
    8     7    24     1    110.700    313.800
   26     8    27     1    107.800    276.144
    6     5    18     1    110.700    313.800

[ dihedrals ]
; IMPROPER DIHEDRAL ANGLES 
;  ai    aj    ak    al funct            c0            c1            c2            c3            c4            c5

[ dihedrals ]
; PROPER DIHEDRAL ANGLES
;  ai    aj    ak    al funct            c0            c1            c2            c3            c4            c5
    4    3    2    1        3       2.301  -1.464   0.837  -1.674  -0.000   0.000
    8    7    4    5        3       2.301  -1.464   0.837  -1.674  -0.000   0.000
    7    4    3    2        3       2.301  -1.464   0.837  -1.674  -0.000   0.000
    9    4    5    6        3       2.301  -1.464   0.837  -1.674  -0.000   0.000
    9    4    3    2        3       2.301  -1.464   0.837  -1.674  -0.000   0.000
    9    4    7    8        3       2.301  -1.464   0.837  -1.674  -0.000   0.000
    7    4    5    6        3       2.301  -1.464   0.837  -1.674  -0.000   0.000
    8    7    4    3        3       2.301  -1.464   0.837  -1.674  -0.000   0.000
    5    4    3    2        3       2.301  -1.464   0.837  -1.674  -0.000   0.000
    6    5    4    3        3       2.301  -1.464   0.837  -1.674  -0.000   0.000
   10    9    4    3        3       0.837   2.510   0.000  -3.347  -0.000   0.000
   10    9    4    7        3       0.837   2.510   0.000  -3.347  -0.000   0.000
   10    9    4    5        3       0.837   2.510   0.000  -3.347  -0.000   0.000
   27    8    7    4        3       0.628   1.883   0.000  -2.510  -0.000   0.000
   16    3    4    7        3       0.628   1.883   0.000  -2.510  -0.000   0.000
   24    7    4    3        3       0.628   1.883   0.000  -2.510  -0.000   0.000
   12    1    2    3        3       0.628   1.883   0.000  -2.510  -0.000   0.000
   26    8    7    4        3       0.628   1.883   0.000  -2.510  -0.000   0.000
   18    5    4    9        3       0.628   1.883   0.000  -2.510  -0.000   0.000
   23    7    4    5        3       0.628   1.883   0.000  -2.510  -0.000   0.000
   24    7    4    5        3       0.628   1.883   0.000  -2.510  -0.000   0.000
   23    7    4    9        3       0.628   1.883   0.000  -2.510  -0.000   0.000
   14    2    3    4        3       0.628   1.883   0.000  -2.510  -0.000   0.000
   28    9    4    5        3       0.628   1.883   0.000  -2.510  -0.000   0.000
   29    9    4    7        3       0.628   1.883   0.000  -2.510  -0.000   0.000
   24    7    4    9        3       0.628   1.883   0.000  -2.510  -0.000   0.000
   16    3    2    1        3       0.628   1.883   0.000  -2.510  -0.000   0.000
   21    6    5    4        3       0.628   1.883   0.000  -2.510  -0.000   0.000
   28    9    4    3        3       0.628   1.883   0.000  -2.510  -0.000   0.000
   17    3    4    5        3       0.628   1.883   0.000  -2.510  -0.000   0.000
   17    3    2    1        3       0.628   1.883   0.000  -2.510  -0.000   0.000
   17    3    4    7        3       0.628   1.883   0.000  -2.510  -0.000   0.000
   18    5    4    7        3       0.628   1.883   0.000  -2.510  -0.000   0.000
   19    5    4    3        3       0.628   1.883   0.000  -2.510  -0.000   0.000
   19    5    4    7        3       0.628   1.883   0.000  -2.510  -0.000   0.000
   13    1    2    3        3       0.628   1.883   0.000  -2.510  -0.000   0.000
   19    5    4    9        3       0.628   1.883   0.000  -2.510  -0.000   0.000
   11    1    2    3        3       0.628   1.883   0.000  -2.510  -0.000   0.000
   20    6    5    4        3       0.628   1.883   0.000  -2.510  -0.000   0.000
   18    5    4    3        3       0.628   1.883   0.000  -2.510  -0.000   0.000
   22    6    5    4        3       0.628   1.883   0.000  -2.510  -0.000   0.000
   25    8    7    4        3       0.628   1.883   0.000  -2.510  -0.000   0.000
   16    3    4    5        3       0.628   1.883   0.000  -2.510  -0.000   0.000
   16    3    4    9        3       0.628   1.883   0.000  -2.510  -0.000   0.000
   15    2    3    4        3       0.628   1.883   0.000  -2.510  -0.000   0.000
   17    3    4    9        3       0.628   1.883   0.000  -2.510  -0.000   0.000
   29    9    4    5        3       0.628   1.883   0.000  -2.510  -0.000   0.000
   29    9    4    3        3       0.628   1.883   0.000  -2.510  -0.000   0.000
   28    9    4    7        3       0.628   1.883   0.000  -2.510  -0.000   0.000
   23    7    4    3        3       0.628   1.883   0.000  -2.510  -0.000   0.000
   27    8    7   24        3       0.628   1.883   0.000  -2.510  -0.000   0.000
   14    2    1   13        3       0.628   1.883   0.000  -2.510  -0.000   0.000
   20    6    5   18        3       0.628   1.883   0.000  -2.510  -0.000   0.000
   15    2    1   13        3       0.628   1.883   0.000  -2.510  -0.000   0.000
   15    2    1   11        3       0.628   1.883   0.000  -2.510  -0.000   0.000
   16    3    2   15        3       0.628   1.883   0.000  -2.510  -0.000   0.000
   14    2    1   11        3       0.628   1.883   0.000  -2.510  -0.000   0.000
   27    8    7   23        3       0.628   1.883   0.000  -2.510  -0.000   0.000
   25    8    7   23        3       0.628   1.883   0.000  -2.510  -0.000   0.000
   15    2    1   12        3       0.628   1.883   0.000  -2.510  -0.000   0.000
   16    3    2   14        3       0.628   1.883   0.000  -2.510  -0.000   0.000
   17    3    2   14        3       0.628   1.883   0.000  -2.510  -0.000   0.000
   22    6    5   19        3       0.628   1.883   0.000  -2.510  -0.000   0.000
   17    3    2   15        3       0.628   1.883   0.000  -2.510  -0.000   0.000
   21    6    5   18        3       0.628   1.883   0.000  -2.510  -0.000   0.000
   22    6    5   18        3       0.628   1.883   0.000  -2.510  -0.000   0.000
   25    8    7   24        3       0.628   1.883   0.000  -2.510  -0.000   0.000
   21    6    5   19        3       0.628   1.883   0.000  -2.510  -0.000   0.000
   26    8    7   24        3       0.628   1.883   0.000  -2.510  -0.000   0.000
   14    2    1   12        3       0.628   1.883   0.000  -2.510  -0.000   0.000
   20    6    5   19        3       0.628   1.883   0.000  -2.510  -0.000   0.000
   26    8    7   23        3       0.628   1.883   0.000  -2.510  -0.000   0.000

[ pairs ]
     1     4    1
     2     5    1
     3     6    1
     2     7    1
     3     8    1
     2     9    1
     6     7    1
     5     8    1
     3    10    1
     3    11    1
     6     9    1
     5    10    1
     3    12    1
     3    13    1
     8     9    1
     7    10    1
     1    16    1
     4    14    1
     1    17    1
     4    15    1
     5    16    1
     3    18    1
     5    17    1
     3    19    1
     7    16    1
     7    17    1
     4    20    1
    11    14    1
     9    16    1
     7    18    1
     4    21    1
    12    14    1
    11    15    1
     9    17    1
     7    19    1
     4    22    1
     3    23    1
    13    14    1
    12    15    1
     9    18    1
     3    24    1
    13    15    1
     9    19    1
     5    23    1
     5    24    1
     4    25    1
    14    16    1
     4    26    1
    15    16    1
    14    17    1
     4    27    1
     3    28    1
    15    17    1
     9    23    1
     3    29    1
     9    24    1
     5    28    1
     5    29    1
     7    28    1
     7    29    1
    18    20    1
    19    20    1
    18    21    1
    19    21    1
    18    22    1
    19    22    1
    23    25    1
    24    25    1
    23    26    1
    24    26    1
    23    27    1
    24    27    1

