LIGPARGEN GENERATED GRO FILE
   42
    1UNK    C00    1   0.100   0.100   0.000
    1UNK    C01    2  -0.052   0.100   0.000
    1UNK    C02    3  -0.106   0.100   0.143
    1UNK    C03    4  -0.259   0.100   0.147
    1UNK    C04    5  -0.316   0.091   0.291
    1UNK    C05    6  -0.272   0.213   0.374
    1UNK    C06    7  -0.333   0.227   0.513
    1UNK    C07    8  -0.480   0.263   0.509
    1UNK    C08    9  -0.578   0.144   0.507
    1UNK    C09   10  -0.616   0.095   0.650
    1UNK    C0A   11  -0.689   0.199   0.734
    1UNK    C0B   12  -0.539   0.027   0.412
    1UNK    C0C   13  -0.467  -0.092   0.478
    1UNK    C0D   14  -0.470   0.072   0.283
    1UNK    H0E   15   0.138   0.100  -0.102
    1UNK    H0F   16   0.139   0.011   0.051
    1UNK    H0G   17   0.139   0.189   0.051
    1UNK    H0H   18  -0.089   0.012  -0.054
    1UNK    H0I   19  -0.088   0.189  -0.054
    1UNK    H0J   20  -0.067   0.188   0.194
    1UNK    H0K   21  -0.069   0.012   0.196
    1UNK    H0M   22  -0.295   0.014   0.088
    1UNK    H0N   23  -0.297   0.191   0.097
    1UNK    H0O   24  -0.272   0.001   0.336
    1UNK    H0P   25  -0.291   0.305   0.317
    1UNK    H0Q   26  -0.163   0.207   0.388
    1UNK    H0R   27  -0.280   0.310   0.562
    1UNK    H0S   28  -0.313   0.139   0.575
    1UNK    H0T   29  -0.500   0.326   0.421
    1UNK    H0U   30  -0.502   0.328   0.594
    1UNK    H0V   31  -0.671   0.185   0.466
    1UNK    H0W   32  -0.526   0.063   0.704
    1UNK    H0X   33  -0.682   0.008   0.641
    1UNK    H0Y   34  -0.625   0.283   0.761
    1UNK    H0Z   35  -0.723   0.153   0.827
    1UNK    H10   36  -0.777   0.237   0.681
    1UNK    H11   37  -0.636  -0.015   0.380
    1UNK    H12   38  -0.374  -0.063   0.528
    1UNK    H13   39  -0.443  -0.168   0.403
    1UNK    H14   40  -0.530  -0.141   0.553
    1UNK    H15   41  -0.517   0.163   0.244
    1UNK    H16   42  -0.490  -0.005   0.208
   1.00000   1.00000   1.00000

