LIGPARGEN GENERATED GRO FILE
   37
    1UNK    C00    1   0.100   0.100   0.000
    1UNK    C01    2  -0.052   0.100   0.000
    1UNK    C02    3  -0.120   0.100   0.140
    1UNK    C03    4  -0.077   0.229   0.210
    1UNK    O04    5   0.018   0.237   0.287
    1UNK    O05    6  -0.263   0.117   0.123
    1UNK    C06    7  -0.331   0.007   0.061
    1UNK    C07    8  -0.480   0.042   0.052
    1UNK    C08    9  -0.504   0.167  -0.031
    1UNK    C09   10  -0.650   0.199  -0.047
    1UNK    O0A   11  -0.741   0.131  -0.002
    1UNK    C0B   12  -0.309  -0.122   0.140
    1UNK    C0C   13  -0.159  -0.148   0.163
    1UNK    C0D   14  -0.137  -0.277   0.242
    1UNK    C0E   15  -0.091  -0.026   0.225
    1UNK    C0F   16  -0.139  -0.004   0.368
    1UNK    O0G   17  -0.085  -0.056   0.466
    1UNK    H0H   18   0.137   0.090  -0.103
    1UNK    H0I   19   0.141   0.017   0.058
    1UNK    H0J   20   0.140   0.194   0.040
    1UNK    H0K   21  -0.085   0.013  -0.058
    1UNK    H0M   22  -0.087   0.187  -0.057
    1UNK    H0N   23  -0.134   0.320   0.181
    1UNK    H0O   24  -0.294  -0.006  -0.041
    1UNK    H0P   25  -0.520   0.058   0.153
    1UNK    H0Q   26  -0.534  -0.043   0.008
    1UNK    H0R   27  -0.462   0.155  -0.132
    1UNK    H0S   28  -0.456   0.254   0.015
    1UNK    H0T   29  -0.672   0.292  -0.102
    1UNK    H0U   30  -0.354  -0.206   0.087
    1UNK    H0V   31  -0.359  -0.115   0.238
    1UNK    H0W   32  -0.114  -0.166   0.064
    1UNK    H0X   33  -0.187  -0.274   0.339
    1UNK    H0Y   34  -0.031  -0.295   0.258
    1UNK    H0Z   35  -0.178  -0.363   0.187
    1UNK    H10   36   0.017  -0.042   0.233
    1UNK    H11   37  -0.234   0.052   0.381
   1.00000   1.00000   1.00000

