LIGPARGEN GENERATED GRO FILE
   37
    1UNK    C00    1   0.100   0.100   0.000
    1UNK    C01    2  -0.052   0.100   0.000
    1UNK    C02    3  -0.109   0.100   0.141
    1UNK    O03    4  -0.036   0.093   0.240
    1UNK    C04    5  -0.262   0.102   0.154
    1UNK    C05    6  -0.303  -0.030   0.219
    1UNK    C06    7  -0.315   0.233   0.224
    1UNK    C07    8  -0.469   0.227   0.233
    1UNK    C08    9  -0.259   0.244   0.367
    1UNK    C09   10  -0.275   0.358   0.137
    1UNK    C0A   11  -0.326   0.499   0.175
    1UNK    C0B   12  -0.276   0.550   0.310
    1UNK    C0C   13  -0.283   0.599   0.067
    1UNK    H0D   14   0.138   0.100  -0.102
    1UNK    H0E   15   0.139   0.012   0.051
    1UNK    H0F   16   0.139   0.189   0.051
    1UNK    H0G   17  -0.089   0.011  -0.052
    1UNK    H0H   18  -0.089   0.189  -0.052
    1UNK    H0I   19  -0.303   0.100   0.052
    1UNK    H0J   20  -0.263  -0.041   0.321
    1UNK    H0K   21  -0.264  -0.115   0.162
    1UNK    H0M   22  -0.411  -0.042   0.224
    1UNK    H0N   23  -0.503   0.143   0.294
    1UNK    H0O   24  -0.514   0.217   0.133
    1UNK    H0P   25  -0.511   0.317   0.279
    1UNK    H0Q   26  -0.254   0.147   0.417
    1UNK    H0R   27  -0.322   0.305   0.432
    1UNK    H0S   28  -0.158   0.286   0.368
    1UNK    H0T   29  -0.310   0.338   0.034
    1UNK    H0U   30  -0.165   0.362   0.130
    1UNK    H0V   31  -0.435   0.499   0.176
    1UNK    H0W   32  -0.169   0.528   0.324
    1UNK    H0X   33  -0.332   0.506   0.393
    1UNK    H0Y   34  -0.289   0.658   0.319
    1UNK    H0Z   35  -0.174   0.605   0.060
    1UNK    H10   36  -0.320   0.700   0.090
    1UNK    H11   37  -0.322   0.571  -0.031
   1.00000   1.00000   1.00000

