LIGPARGEN GENERATED GRO FILE
   28
    1UNK    C00    1   0.100   0.100   0.000
    1UNK    C01    2  -0.052   0.100   0.000
    1UNK    C02    3  -0.111   0.100   0.143
    1UNK    C03    4  -0.265   0.094   0.147
    1UNK    Cl0    5  -0.317  -0.062   0.068
    1UNK    C05    6  -0.333   0.213   0.076
    1UNK    C06    7  -0.430   0.268   0.183
    1UNK    C07    8  -0.348   0.339   0.292
    1UNK    C08    9  -0.286   0.222   0.369
    1UNK    C09   10  -0.331   0.099   0.288
    1UNK    C0A   11  -0.475   0.141   0.255
    1UNK    H0B   12   0.137   0.105  -0.103
    1UNK    H0C   13   0.139   0.009   0.046
    1UNK    H0D   14   0.140   0.186   0.054
    1UNK    H0E   15  -0.086   0.012  -0.056
    1UNK    H0F   16  -0.087   0.188  -0.055
    1UNK    H0G   17  -0.076   0.191   0.192
    1UNK    H0H   18  -0.069   0.016   0.199
    1UNK    H0I   19  -0.388   0.182  -0.014
    1UNK    H0J   20  -0.262   0.292   0.046
    1UNK    H0K   21  -0.510   0.329   0.141
    1UNK    H0M   22  -0.413   0.397   0.358
    1UNK    H0N   23  -0.272   0.405   0.250
    1UNK    H0O   24  -0.329   0.217   0.470
    1UNK    H0P   25  -0.177   0.231   0.380
    1UNK    H0Q   26  -0.322   0.006   0.345
    1UNK    H0R   27  -0.536   0.161   0.343
    1UNK    H0S   28  -0.528   0.071   0.190
   1.00000   1.00000   1.00000

