
;
; GENERATED BY LigParGen Server
; Jorgensen Lab @ Yale University 
;
[ atomtypes ]
  opls_818  H818     1.0080     0.000    A    2.50000E-01   1.25520E-01
  opls_808  C808    12.0110     0.000    A    3.50000E-01   2.76144E-01
  opls_824  H824     1.0080     0.000    A    2.50000E-01   1.25520E-01
  opls_802  C802    12.0110     0.000    A    3.45000E-01   3.47272E-01
  opls_805  O805    15.9990     0.000    A    2.96000E-01   8.78640E-01
  opls_828  H828     1.0080     0.000    A    2.50000E-01   1.25520E-01
  opls_803  C803    12.0110     0.000    A    3.45000E-01   3.47272E-01
  opls_827  H827     1.0080     0.000    A    2.50000E-01   1.25520E-01
  opls_801  C801    12.0110     0.000    A    3.50000E-01   2.76144E-01
  opls_822  H822     1.0080     0.000    A    2.50000E-01   1.25520E-01
  opls_811  O811    15.9990     0.000    A    2.96000E-01   7.11280E-01
  opls_825  H825     1.0080     0.000    A    2.50000E-01   1.25520E-01
  opls_826  H826     1.0080     0.000    A    2.50000E-01   1.25520E-01
  opls_830  H830     1.0080     0.000    A    2.50000E-01   1.25520E-01
  opls_821  H821     1.0080     0.000    A    2.50000E-01   1.25520E-01
  opls_820  H820     1.0080     0.000    A    2.50000E-01   1.25520E-01
  opls_809  S809    32.0600     0.000    A    3.55000E-01   1.04600E+00
  opls_831  H831     1.0080     0.000    A    2.50000E-01   1.25520E-01
  opls_804  C804    12.0110     0.000    A    3.55000E-01   2.92880E-01
  opls_832  H832     1.0080     0.000    A    2.50000E-01   1.25520E-01
  opls_800  C800    12.0110     0.000    A    3.50000E-01   2.76144E-01
  opls_823  H823     1.0080     0.000    A    2.50000E-01   1.25520E-01
  opls_833  H833     1.0080     0.000    A    2.50000E-01   1.25520E-01
  opls_813  S813    32.0600     0.000    A    3.55000E-01   1.04600E+00
  opls_816  O816    15.9990     0.000    A    2.90000E-01   5.85760E-01
  opls_806  C806    12.0110     0.000    A    3.45000E-01   3.47272E-01
  opls_819  H819     1.0080     0.000    A    2.50000E-01   1.25520E-01
  opls_817  C817    12.0110     0.000    A    3.50000E-01   2.76144E-01
  opls_812  C812    12.0110     0.000    A    3.50000E-01   2.76144E-01
  opls_810  O810    15.9990     0.000    A    2.96000E-01   7.11280E-01
  opls_807  O807    15.9990     0.000    A    2.90000E-01   5.85760E-01
  opls_815  O815    15.9990     0.000    A    2.96000E-01   7.11280E-01
  opls_814  O814    15.9990     0.000    A    2.96000E-01   7.11280E-01
  opls_829  H829     1.0080     0.000    A    2.50000E-01   1.25520E-01
[ moleculetype ]
; Name               nrexcl
UNK                   3
[ atoms ]
;   nr       type  resnr residue  atom   cgnr     charge       mass  
     1   opls_800      1    UNK   C00      1    -0.2358    12.0110 
     2   opls_801      1    UNK   C01      1    -0.1615    12.0110 
     3   opls_802      1    UNK   C02      1     -0.157    12.0110 
     4   opls_803      1    UNK   C03      1    -0.2806    12.0110 
     5   opls_804      1    UNK   C04      1     0.3559    12.0110 
     6   opls_805      1    UNK   O05      1    -0.4476    15.9990 
     7   opls_806      1    UNK   C06      1     0.0317    12.0110 
     8   opls_807      1    UNK   O07      1    -0.3039    15.9990 
     9   opls_808      1    UNK   C08      1    -0.2734    12.0110 
    10   opls_809      1    UNK   S09      1     1.3277    32.0600 
    11   opls_810      1    UNK   O0A      1     -0.487    15.9990 
    12   opls_811      1    UNK   O0B      1     -0.487    15.9990 
    13   opls_812      1    UNK   C0C      1    -0.9814    12.0110 
    14   opls_813      1    UNK   S0D      1     1.4129    32.0600 
    15   opls_814      1    UNK   O0E      1    -0.5041    15.9990 
    16   opls_815      1    UNK   O0F      1    -0.5041    15.9990 
    17   opls_816      1    UNK   O0G      1    -0.5356    15.9990 
    18   opls_817      1    UNK   C0H      1      0.018    12.0110 
    19   opls_818      1    UNK   H0I      1     0.0846     1.0080 
    20   opls_819      1    UNK   H0J      1     0.0846     1.0080 
    21   opls_820      1    UNK   H0K      1     0.0846     1.0080 
    22   opls_821      1    UNK   H0M      1     0.1061     1.0080 
    23   opls_822      1    UNK   H0N      1     0.1061     1.0080 
    24   opls_823      1    UNK   H0O      1     0.1583     1.0080 
    25   opls_824      1    UNK   H0P      1     0.1672     1.0080 
    26   opls_825      1    UNK   H0Q      1      0.126     1.0080 
    27   opls_826      1    UNK   H0R      1     0.1737     1.0080 
    28   opls_827      1    UNK   H0S      1     0.1379     1.0080 
    29   opls_828      1    UNK   H0T      1     0.1379     1.0080 
    30   opls_829      1    UNK   H0U      1     0.2469     1.0080 
    31   opls_830      1    UNK   H0V      1     0.2469     1.0080 
    32   opls_831      1    UNK   H0W      1     0.1174     1.0080 
    33   opls_832      1    UNK   H0X      2     0.1174     1.0080 
    34   opls_833      1    UNK   H0Y      2     0.1174     1.0080 
[ bonds ]
    2     1     1      0.1529 224262.400
    3     2     1      0.1510 234304.000
    4     3     1      0.1520 217568.000
    5     4     1      0.1522 265265.600
    6     5     1      0.1229 476976.000
    7     3     1      0.1520 217568.000
    8     7     1      0.1410 267776.000
    9     8     1      0.1410 267776.000
   10     9     1      0.1770 284512.000
   11    10     1      0.1440 585760.000
   12    10     1      0.1440 585760.000
   13    10     1      0.1770 284512.000
   14    13     1      0.1770 284512.000
   15    14     1      0.1440 585760.000
   16    14     1      0.1440 585760.000
   17    14     1      0.1660 245994.096
   18    17     1      0.1410 267776.000
   19     1     1      0.1090 284512.000
   20     1     1      0.1090 284512.000
   21     1     1      0.1090 284512.000
   22     2     1      0.1090 284512.000
   23     2     1      0.1090 284512.000
   24     3     1      0.1088 284512.000
   25     4     1      0.1088 284512.000
   26     5     1      0.1090 284512.000
   27     7     1      0.1088 284512.000
   28     9     1      0.1090 284512.000
   29     9     1      0.1090 284512.000
   30    13     1      0.1090 284512.000
   31    13     1      0.1090 284512.000
   32    18     1      0.1090 284512.000
   33    18     1      0.1090 284512.000
   34    18     1      0.1090 284512.000
    7     4     1      0.1520 217568.000

[ angles ]
;  ai    aj    ak funct            c0            c1            c2            c3 
    1     2     3     1    112.700    488.273
    2     3     4     1    117.200    313.800
    3     4     5     1    111.100    527.184
    4     5     6     1    120.400    669.440
    2     3     7     1    117.200    313.800
    3     7     8     1    109.500    418.400
    7     8     9     1    109.500    502.080
    8     9    10     1    110.580    432.207
    9    10    11     1    108.900    619.232
    9    10    12     1    108.900    619.232
    9    10    13     1    102.000    518.816
   10    13    14     1    110.580    432.207
   13    14    15     1    108.900    619.232
   13    14    16     1    108.900    619.232
   13    14    17     1    104.360    658.311
   14    17    18     1    114.540    581.660
    2     1    19     1    110.700    313.800
    2     1    20     1    110.700    313.800
    2     1    21     1    110.700    313.800
    1     2    22     1    110.700    313.800
    1     2    23     1    110.700    313.800
    2     3    24     1    114.300    292.880
    3     4    25     1    117.200    313.800
    4     5    26     1    115.000    292.880
    3     7    27     1    117.200    313.800
    8     9    28     1    109.500    292.880
    8     9    29     1    109.500    292.880
   10    13    30     1    109.500    292.880
   10    13    31     1    109.500    292.880
   17    18    32     1    109.500    292.880
   17    18    33     1    109.500    292.880
   17    18    34     1    109.500    292.880
    5     4    25     1    109.500    292.880
    3     4     7     1     83.000    251.040
    8     7    27     1    109.500    292.880
   10     9    29     1    109.500    292.880
   15    14    16     1    119.000    870.272
   22     2    23     1    107.800    276.144
   10     9    28     1    109.500    292.880
    5     4     7     1    111.100    527.184
   14    13    30     1    109.500    292.880
   32    18    34     1    107.800    276.144
    3     7     4     1     83.000    251.040
   12    10    13     1    108.900    619.232
    4     3     7     1     83.000    251.040
    4     7    27     1    117.200    313.800
    7     4    25     1    117.200    313.800
    3     2    22     1    110.700    313.800
    3     2    23     1    110.700    313.800
   19     1    21     1    107.800    276.144
   11    10    13     1    108.900    619.232
   14    13    31     1    109.500    292.880
    4     7     8     1    109.500    418.400
    4     3    24     1    117.200    313.800
   19     1    20     1    107.800    276.144
    6     5    26     1    123.000    292.880
   33    18    34     1    107.800    276.144
   15    14    17     1    104.360    658.311
   20     1    21     1    107.800    276.144
   11    10    12     1    119.000    870.272
   16    14    17     1    104.360    658.311
   32    18    33     1    107.800    276.144
   30    13    31     1    107.800    276.144
    7     3    24     1    117.200    313.800
   28     9    29     1    107.800    276.144

[ dihedrals ]
; IMPROPER DIHEDRAL ANGLES 
;  ai    aj    ak    al funct            c0            c1            c2            c3            c4            c5
    26     5     4     6    4        180.000     43.932     2  

[ dihedrals ]
; PROPER DIHEDRAL ANGLES
;  ai    aj    ak    al funct            c0            c1            c2            c3            c4            c5
    5    4    3    2        3       0.000   0.000   0.000  -0.000  -0.000   0.000
    5    4    7    3        3       0.000   0.000   0.000  -0.000  -0.000   0.000
    9    8    7    4        3       1.715   2.845   1.046  -5.607  -0.000   0.000
    9    8    7    3        3       1.715   2.845   1.046  -5.607  -0.000   0.000
   18   17   14   13        3       1.715   2.845   1.046  -5.607  -0.000   0.000
   18   17   14   16        3       0.000   0.000   0.000  -0.000  -0.000   0.000
   18   17   14   15        3       0.000   0.000   0.000  -0.000  -0.000   0.000
   13   10    9    8        3       0.732   2.197   0.000  -2.929  -0.000   0.000
    7    4    5    6        3       0.000   0.000   0.000  -0.000  -0.000   0.000
    4    3    2    1        3       0.000   0.000   0.000  -0.000  -0.000   0.000
    7    3    2    1        3       0.000   0.000   0.000  -0.000  -0.000   0.000
    7    3    2    4        3       0.000   0.000   0.000  -0.000  -0.000   0.000
   26    5    4    3        3       0.000   0.000   0.000  -0.000  -0.000   0.000
   26    5    4    7        3       0.000   0.000   0.000  -0.000  -0.000   0.000
   26    5    4   25        3       0.628   1.883   0.000  -2.510  -0.000   0.000
   19    1    2    3        3       0.628   1.883   0.000  -2.510  -0.000   0.000
   21    1    2    3        3       0.628   1.883   0.000  -2.510  -0.000   0.000
   20    1    2    3        3       0.628   1.883   0.000  -2.510  -0.000   0.000
   23    2    1   21        3       0.628   1.883   0.000  -2.510  -0.000   0.000
   22    2    1   21        3       0.628   1.883   0.000  -2.510  -0.000   0.000
   23    2    1   19        3       0.628   1.883   0.000  -2.510  -0.000   0.000
   22    2    1   20        3       0.628   1.883   0.000  -2.510  -0.000   0.000
   23    2    1   20        3       0.628   1.883   0.000  -2.510  -0.000   0.000
   22    2    1   19        3       0.628   1.883   0.000  -2.510  -0.000   0.000
   23    2    3    4        3       0.628   1.883   0.000  -2.510  -0.000   0.000
   22    2    3    7        3       0.628   1.883   0.000  -2.510  -0.000   0.000
   23    2    3    7        3       0.628   1.883   0.000  -2.510  -0.000   0.000
   22    2    3    4        3       0.628   1.883   0.000  -2.510  -0.000   0.000
   28    9    8    7        3       1.590   4.770   0.000  -6.360  -0.000   0.000
   29    9    8    7        3       1.590   4.770   0.000  -6.360  -0.000   0.000
   34   18   17   14        3       1.590   4.770   0.000  -6.360  -0.000   0.000
   33   18   17   14        3       1.590   4.770   0.000  -6.360  -0.000   0.000
   32   18   17   14        3       1.590   4.770   0.000  -6.360  -0.000   0.000
   28    9   10   13        3       0.732   2.197   0.000  -2.929  -0.000   0.000
   31   13   10    9        3       0.732   2.197   0.000  -2.929  -0.000   0.000
   29    9   10   13        3       0.732   2.197   0.000  -2.929  -0.000   0.000
   30   13   10    9        3       0.732   2.197   0.000  -2.929  -0.000   0.000
   31   13   14   17        3       0.732   2.197   0.000  -2.929  -0.000   0.000
   30   13   14   17        3       0.732   2.197   0.000  -2.929  -0.000   0.000
   30   13   14   15        3       0.732   2.197   0.000  -2.929  -0.000   0.000
   30   13   10   12        3       0.732   2.197   0.000  -2.929  -0.000   0.000
   31   13   10   11        3       0.732   2.197   0.000  -2.929  -0.000   0.000
   28    9   10   12        3       0.732   2.197   0.000  -2.929  -0.000   0.000
   29    9   10   11        3       0.732   2.197   0.000  -2.929  -0.000   0.000
   29    9   10   12        3       0.732   2.197   0.000  -2.929  -0.000   0.000
   31   13   14   15        3       0.732   2.197   0.000  -2.929  -0.000   0.000
   28    9   10   11        3       0.732   2.197   0.000  -2.929  -0.000   0.000
   31   13   14   16        3       0.732   2.197   0.000  -2.929  -0.000   0.000
   30   13   10   11        3       0.732   2.197   0.000  -2.929  -0.000   0.000
   31   13   10   12        3       0.732   2.197   0.000  -2.929  -0.000   0.000
   30   13   14   16        3       0.732   2.197   0.000  -2.929  -0.000   0.000
   25    4    5    6        3       0.000   0.000   0.000  -0.000  -0.000   0.000
   24    3    2    1        3       0.628   1.883   0.000  -2.510  -0.000   0.000
   24    3    2   23        3       0.628   1.883   0.000  -2.510  -0.000   0.000
   24    3    2   22        3       0.628   1.883   0.000  -2.510  -0.000   0.000
   27    7    4    5        3       0.000   0.000   0.000  -0.000  -0.000   0.000
   24    3    4    5        3       0.000   0.000   0.000  -0.000  -0.000   0.000
   25    4    3    2        3       0.000   0.000   0.000  -0.000  -0.000   0.000
   27    7    3    2        3       0.000   0.000   0.000  -0.000  -0.000   0.000
   25    4    7    3        3       0.000   0.000   0.000  -0.000  -0.000   0.000
   27    7    4    3        3       0.000   0.000   0.000  -0.000  -0.000   0.000
   24    3    4    7        3       0.000   0.000   0.000  -0.000  -0.000   0.000
   24    3    7    4        3       0.000   0.000   0.000  -0.000  -0.000   0.000
   27    7    3    4        3       0.000   0.000   0.000  -0.000  -0.000   0.000
   25    4    3    7        3       0.000   0.000   0.000  -0.000  -0.000   0.000
   27    7    4   25        3       0.000   0.000   0.000  -0.000  -0.000   0.000
   25    4    3   24        3       0.000   0.000   0.000  -0.000  -0.000   0.000
   27    7    3   24        3       0.000   0.000   0.000  -0.000  -0.000   0.000
   25    4    7    8        3       0.000   0.000   0.000  -0.000  -0.000   0.000
   24    3    7    8        3       0.000   0.000   0.000  -0.000  -0.000   0.000
   27    7    8    9        3       1.590   4.770   0.000  -6.360  -0.000   0.000
    6    5    4    3        3       0.000   0.000   0.000  -0.000  -0.000   0.000
    8    7    4    5        3       0.000   0.000   0.000  -0.000  -0.000   0.000
    8    7    3    2        3       0.000   0.000   0.000  -0.000  -0.000   0.000
    8    7    4    3        3       0.000   0.000   0.000  -0.000  -0.000   0.000
    8    7    3    4        3       0.000   0.000   0.000  -0.000  -0.000   0.000
   17   14   13   10        3       0.000   0.000   0.000  -0.000  -0.000   0.000
   12   10    9    8        3       0.000   0.000   0.000  -0.000  -0.000   0.000
   11   10    9    8        3       0.000   0.000   0.000  -0.000  -0.000   0.000
   16   14   13   10        3       0.000   0.000   0.000  -0.000  -0.000   0.000
   15   14   13   10        3       0.000   0.000   0.000  -0.000  -0.000   0.000
   10    9    8    7        3       1.590   4.770   0.000  -6.360  -0.000   0.000
   14   13   10    9        3       0.732   2.197   0.000  -2.929  -0.000   0.000
   14   13   10   11        3       0.000   0.000   0.000  -0.000  -0.000   0.000
   14   13   10   12        3       0.000   0.000   0.000  -0.000  -0.000   0.000

[ pairs ]
     1     4    1
     2     5    1
     1     7    1
     3     6    1
     2     8    1
     3     9    1
     6     7    1
     5     8    1
     4     9    1
     7    10    1
     8    11    1
     8    12    1
     8    13    1
     3    19    1
     9    14    1
     3    20    1
     3    21    1
    11    14    1
    10    15    1
     1    24    1
    12    14    1
    10    16    1
     4    22    1
    10    17    1
     4    23    1
     2    25    1
     7    22    1
     5    24    1
     3    26    1
     2    27    1
     7    23    1
    13    18    1
     6    25    1
     8    24    1
     5    27    1
    15    18    1
     8    25    1
     7    26    1
    16    18    1
     7    28    1
     9    27    1
     7    29    1
    11    28    1
     9    30    1
    12    28    1
    11    29    1
     9    31    1
    19    22    1
    13    28    1
    12    29    1
    11    30    1
    20    22    1
    19    23    1
    13    29    1
    12    30    1
    11    31    1
    21    22    1
    20    23    1
    12    31    1
    21    23    1
    15    30    1
    22    24    1
    16    30    1
    15    31    1
    14    32    1
    23    24    1
    17    30    1
    16    31    1
    14    33    1
    17    31    1
    14    34    1
    24    25    1
    25    26    1
    24    27    1
    25    27    1

