LIGPARGEN GENERATED GRO FILE
   34
    1UNK    C00    1   0.100   0.100   0.000
    1UNK    C01    2  -0.052   0.100   0.000
    1UNK    C02    3  -0.107   0.100   0.140
    1UNK    C03    4  -0.256   0.100   0.166
    1UNK    C04    5  -0.356   0.100   0.056
    1UNK    O05    6  -0.354   0.016  -0.034
    1UNK    C06    7  -0.173  -0.023   0.195
    1UNK    O07    8  -0.154  -0.047   0.336
    1UNK    C08    9  -0.072  -0.159   0.368
    1UNK    S09   10  -0.048  -0.176   0.546
    1UNK    O0A   11   0.020  -0.055   0.590
    1UNK    O0B   12  -0.175  -0.215   0.603
    1UNK    C0C   13   0.064  -0.310   0.561
    1UNK    S0D   14   0.096  -0.337   0.734
    1UNK    O0E   15   0.159  -0.222   0.792
    1UNK    O0F   16  -0.017  -0.404   0.795
    1UNK    O0G   17   0.213  -0.450   0.716
    1UNK    C0H   18   0.272  -0.496   0.837
    1UNK    H0I   19   0.138   0.100  -0.103
    1UNK    H0J   20   0.139   0.012   0.052
    1UNK    H0K   21   0.139   0.189   0.051
    1UNK    H0M   22  -0.087   0.013  -0.056
    1UNK    H0N   23  -0.088   0.189  -0.053
    1UNK    H0O   24  -0.048   0.162   0.207
    1UNK    H0P   25  -0.288   0.158   0.252
    1UNK    H0Q   26  -0.432   0.179   0.060
    1UNK    H0R   27  -0.189  -0.109   0.130
    1UNK    H0S   28   0.027  -0.146   0.323
    1UNK    H0T   29  -0.119  -0.251   0.332
    1UNK    H0U   30   0.158  -0.285   0.511
    1UNK    H0V   31   0.019  -0.401   0.519
    1UNK    H0W   32   0.348  -0.571   0.812
    1UNK    H0X   33   0.197  -0.543   0.901
    1UNK    H0Y   34   0.320  -0.414   0.890
   1.00000   1.00000   1.00000

