LIGPARGEN GENERATED GRO FILE
   38
    1UNK    C00    1   0.100   0.100   0.000
    1UNK    C01    2  -0.052   0.100   0.000
    1UNK    S02    3  -0.114   0.100   0.167
    1UNK    O03    4  -0.074  -0.024   0.230
    1UNK    O04    5  -0.079   0.228   0.224
    1UNK    C05    6  -0.292   0.094   0.145
    1UNK    C06    7  -0.368   0.083   0.277
    1UNK    C07    8  -0.350   0.205   0.368
    1UNK    C08    9  -0.431   0.195   0.496
    1UNK    O09   10  -0.572   0.188   0.468
    1UNK    C0A   11  -0.632   0.308   0.442
    1UNK    O0B   12  -0.574   0.416   0.441
    1UNK    C0C   13  -0.780   0.288   0.414
    1UNK    C0D   14  -0.848   0.230   0.538
    1UNK    C0E   15  -0.844   0.424   0.380
    1UNK    C0F   16  -0.798   0.194   0.294
    1UNK    H0G   17   0.138   0.100  -0.102
    1UNK    H0H   18   0.139   0.011   0.051
    1UNK    H0I   19   0.139   0.188   0.052
    1UNK    H0J   20  -0.090   0.011  -0.051
    1UNK    H0K   21  -0.090   0.190  -0.050
    1UNK    H0M   22  -0.313   0.006   0.083
    1UNK    H0N   23  -0.322   0.184   0.089
    1UNK    H0O   24  -0.336  -0.008   0.330
    1UNK    H0P   25  -0.475   0.070   0.253
    1UNK    H0Q   26  -0.378   0.294   0.312
    1UNK    H0R   27  -0.246   0.215   0.397
    1UNK    H0S   28  -0.409   0.279   0.563
    1UNK    H0T   29  -0.405   0.104   0.551
    1UNK    H0U   30  -0.835   0.295   0.625
    1UNK    H0V   31  -0.807   0.132   0.565
    1UNK    H0W   32  -0.956   0.217   0.522
    1UNK    H0X   33  -0.832   0.495   0.464
    1UNK    H0Y   34  -0.951   0.414   0.359
    1UNK    H0Z   35  -0.795   0.470   0.293
    1UNK    H10   36  -0.756   0.095   0.314
    1UNK    H11   37  -0.746   0.233   0.205
    1UNK    H12   38  -0.903   0.181   0.269
   1.00000   1.00000   1.00000

