LIGPARGEN GENERATED GRO FILE
   44
    1UNK    C00    1   0.100   0.100   0.000
    1UNK    O01    2  -0.042   0.100   0.000
    1UNK    C02    3  -0.095   0.100   0.133
    1UNK    C03    4  -0.249   0.100   0.124
    1UNK    N04    5  -0.323   0.091   0.253
    1UNK    C05    6  -0.288   0.208   0.336
    1UNK    C06    7  -0.472   0.079   0.232
    1UNK    C07    8  -0.505  -0.049   0.152
    1UNK    C08    9  -0.550   0.078   0.366
    1UNK    C09   10  -0.705   0.072   0.364
    1UNK    C0A   11  -0.769  -0.057   0.315
    1UNK    O0B   12  -0.745   0.085   0.503
    1UNK    C0C   13  -0.827   0.187   0.534
    1UNK    O0D   14  -0.888   0.257   0.454
    1UNK    O0E   15  -0.815   0.212   0.667
    1UNK    C0F   16  -0.795   0.350   0.695
    1UNK    C0G   17  -0.911   0.409   0.772
    1UNK    C0H   18  -0.883   0.553   0.806
    1UNK    O0I   19  -0.780   0.613   0.775
    1UNK    H0J   20   0.134   0.105  -0.104
    1UNK    H0K   21   0.138   0.008   0.045
    1UNK    H0M   22   0.138   0.187   0.054
    1UNK    H0N   23  -0.058   0.189   0.185
    1UNK    H0O   24  -0.060   0.010   0.186
    1UNK    H0P   25  -0.271   0.013   0.062
    1UNK    H0Q   26  -0.282   0.187   0.067
    1UNK    H0R   27  -0.180   0.215   0.353
    1UNK    H0S   28  -0.330   0.201   0.437
    1UNK    H0T   29  -0.322   0.302   0.290
    1UNK    H0U   30  -0.505   0.166   0.173
    1UNK    H0V   31  -0.494  -0.138   0.215
    1UNK    H0W   32  -0.445  -0.063   0.063
    1UNK    H0X   33  -0.606  -0.043   0.114
    1UNK    H0Y   34  -0.528   0.171   0.421
    1UNK    H0Z   35  -0.512  -0.003   0.430
    1UNK    H10   36  -0.742   0.156   0.305
    1UNK    H11   37  -0.708  -0.144   0.342
    1UNK    H12   38  -0.784  -0.055   0.207
    1UNK    H13   39  -0.868  -0.071   0.360
    1UNK    H14   40  -0.775   0.408   0.604
    1UNK    H15   41  -0.703   0.356   0.755
    1UNK    H16   42  -0.927   0.354   0.866
    1UNK    H17   43  -1.003   0.404   0.715
    1UNK    H18   44  -0.962   0.604   0.863
   1.00000   1.00000   1.00000

