LIGPARGEN GENERATED GRO FILE
   48
    1UNK    C00    1   0.100   0.100   0.000
    1UNK    O01    2  -0.042   0.100   0.000
    1UNK    C02    3  -0.103   0.100   0.131
    1UNK    C03    4  -0.256   0.118   0.107
    1UNK    C04    5  -0.282   0.252   0.037
    1UNK    C05    6  -0.313  -0.000   0.024
    1UNK    C06    7  -0.462   0.015  -0.000
    1UNK    O07    8  -0.540   0.068   0.078
    1UNK    C08    9  -0.281  -0.141   0.085
    1UNK    C09   10  -0.306  -0.251  -0.021
    1UNK    C0A   11  -0.373  -0.173   0.205
    1UNK    C0B   12  -0.131  -0.149   0.124
    1UNK    C0C   13  -0.073  -0.032   0.207
    1UNK    C0D   14  -0.112  -0.035   0.359
    1UNK    C0E   15  -0.065  -0.167   0.422
    1UNK    C0F   16  -0.062   0.089   0.442
    1UNK    C0G   17  -0.117   0.087   0.586
    1UNK    C0H   18   0.090   0.105   0.445
    1UNK    H0I   19   0.134   0.122  -0.102
    1UNK    H0J   20   0.139   0.001   0.027
    1UNK    H0K   21   0.140   0.176   0.067
    1UNK    H0M   22  -0.064   0.187   0.185
    1UNK    H0N   23  -0.306   0.122   0.205
    1UNK    H0O   24  -0.240   0.254  -0.064
    1UNK    H0P   25  -0.237   0.335   0.094
    1UNK    H0Q   26  -0.389   0.273   0.029
    1UNK    H0R   27  -0.268   0.005  -0.076
    1UNK    H0S   28  -0.500  -0.032  -0.093
    1UNK    H0T   29  -0.412  -0.257  -0.050
    1UNK    H0U   30  -0.278  -0.350   0.019
    1UNK    H0V   31  -0.248  -0.234  -0.111
    1UNK    H0W   32  -0.472  -0.206   0.172
    1UNK    H0X   33  -0.390  -0.086   0.269
    1UNK    H0Y   34  -0.332  -0.254   0.266
    1UNK    H0Z   35  -0.073  -0.153   0.030
    1UNK    H10   36  -0.110  -0.245   0.171
    1UNK    H11   37   0.036  -0.047   0.205
    1UNK    H12   38  -0.220  -0.032   0.367
    1UNK    H13   39   0.044  -0.175   0.423
    1UNK    H14   40  -0.104  -0.255   0.369
    1UNK    H15   41  -0.101  -0.178   0.525
    1UNK    H16   42  -0.104   0.179   0.396
    1UNK    H17   43  -0.092  -0.005   0.640
    1UNK    H18   44  -0.226   0.098   0.586
    1UNK    H19   45  -0.076   0.170   0.644
    1UNK    H1A   46   0.140   0.018   0.488
    1UNK    H1B   47   0.117   0.193   0.506
    1UNK    H1C   48   0.129   0.122   0.344
   1.00000   1.00000   1.00000

