
;
; GENERATED BY LigParGen Server
; Jorgensen Lab @ Yale University 
;
[ atomtypes ]
  opls_814  C814    12.0110     0.000    A    3.50000E-01   2.76144E-01
  opls_824  H824     1.0080     0.000    A    2.50000E-01   1.25520E-01
  opls_816  C816    12.0110     0.000    A    3.55000E-01   2.92880E-01
  opls_836  H836     1.0080     0.000    A    2.50000E-01   1.25520E-01
  opls_834  H834     1.0080     0.000    A    2.50000E-01   1.25520E-01
  opls_828  H828     1.0080     0.000    A    2.50000E-01   1.25520E-01
  opls_801  O801    15.9990     0.000    A    2.90000E-01   5.85760E-01
  opls_815  O815    15.9990     0.000    A    2.90000E-01   5.85760E-01
  opls_811  C811    12.0110     0.000    A    3.50000E-01   2.76144E-01
  opls_827  H827     1.0080     0.000    A    2.50000E-01   1.25520E-01
  opls_809  C809    12.0110     0.000    A    3.50000E-01   2.76144E-01
  opls_838  H838     1.0080     0.000    A    2.50000E-01   1.25520E-01
  opls_822  H822     1.0080     0.000    A    2.50000E-01   1.25520E-01
  opls_803  C803    12.0110     0.000    A    3.50000E-01   2.76144E-01
  opls_825  H825     1.0080     0.000    A    2.50000E-01   1.25520E-01
  opls_830  H830     1.0080     0.000    A    2.50000E-01   1.25520E-01
  opls_821  H821     1.0080     0.000    A    2.50000E-01   1.25520E-01
  opls_810  N810    14.0070     0.000    A    3.30000E-01   7.11280E-01
  opls_820  H820     1.0080     0.000    A    2.50000E-01   1.25520E-01
  opls_837  H837     1.0080     0.000    A    2.50000E-01   1.25520E-01
  opls_829  H829     1.0080     0.000    A    2.50000E-01   1.25520E-01
  opls_831  H831     1.0080     0.000    A    2.50000E-01   1.25520E-01
  opls_805  C805    12.0110     0.000    A    3.55000E-01   2.92880E-01
  opls_832  H832     1.0080     0.000    A    2.50000E-01   1.25520E-01
  opls_800  C800    12.0110     0.000    A    3.50000E-01   2.76144E-01
  opls_802  C802    12.0110     0.000    A    3.50000E-01   2.76144E-01
  opls_823  H823     1.0080     0.000    A    2.50000E-01   1.25520E-01
  opls_813  C813    12.0110     0.000    A    3.50000E-01   2.76144E-01
  opls_826  H826     1.0080     0.000    A    2.50000E-01   1.25520E-01
  opls_835  H835     1.0080     0.000    A    2.50000E-01   1.25520E-01
  opls_841  H841     1.0080     0.000    A    2.50000E-01   1.25520E-01
  opls_819  H819     1.0080     0.000    A    2.50000E-01   1.25520E-01
  opls_804  C804    12.0110     0.000    A    3.50000E-01   2.76144E-01
  opls_833  H833     1.0080     0.000    A    2.50000E-01   1.25520E-01
  opls_839  H839     1.0080     0.000    A    2.50000E-01   1.25520E-01
  opls_812  C812    12.0110     0.000    A    3.50000E-01   2.76144E-01
  opls_808  C808    12.0110     0.000    A    3.50000E-01   2.76144E-01
  opls_806  O806    15.9990     0.000    A    2.96000E-01   8.78640E-01
  opls_840  H840     1.0080     0.000    A    2.50000E-01   1.25520E-01
  opls_817  O817    15.9990     0.000    A    2.96000E-01   8.78640E-01
  opls_818  O818    15.9990     0.000    A    2.90000E-01   5.85760E-01
  opls_807  C807    12.0110     0.000    A    3.50000E-01   2.76144E-01
[ moleculetype ]
; Name               nrexcl
UNK                   3
[ atoms ]
;   nr       type  resnr residue  atom   cgnr     charge       mass  
     1   opls_800      1    UNK   C00      1    -0.0536    12.0110 
     2   opls_801      1    UNK   O01      1    -0.3716    15.9990 
     3   opls_802      1    UNK   C02      1     0.0157    12.0110 
     4   opls_803      1    UNK   C03      1    -0.1531    12.0110 
     5   opls_804      1    UNK   C04      1    -0.2326    12.0110 
     6   opls_805      1    UNK   C05      1     0.3774    12.0110 
     7   opls_806      1    UNK   O06      1    -0.4416    15.9990 
     8   opls_807      1    UNK   C07      1     0.1259    12.0110 
     9   opls_808      1    UNK   C08      1      -0.27    12.0110 
    10   opls_809      1    UNK   C09      1     0.0127    12.0110 
    11   opls_810      1    UNK   N0A      1    -0.6644    14.0070 
    12   opls_811      1    UNK   C0B      1    -0.0165    12.0110 
    13   opls_812      1    UNK   C0C      1     0.0599    12.0110 
    14   opls_813      1    UNK   C0D      1    -0.2704    12.0110 
    15   opls_814      1    UNK   C0E      1     0.0458    12.0110 
    16   opls_815      1    UNK   O0F      1    -0.3962    15.9990 
    17   opls_816      1    UNK   C0G      1     0.6231    12.0110 
    18   opls_817      1    UNK   O0H      1    -0.3984    15.9990 
    19   opls_818      1    UNK   O0I      1    -0.3353    15.9990 
    20   opls_819      1    UNK   H0J      1     0.0845     1.0080 
    21   opls_820      1    UNK   H0K      1     0.0845     1.0080 
    22   opls_821      1    UNK   H0M      1     0.0845     1.0080 
    23   opls_822      1    UNK   H0N      1     0.0844     1.0080 
    24   opls_823      1    UNK   H0O      1     0.0844     1.0080 
    25   opls_824      1    UNK   H0P      1     0.1552     1.0080 
    26   opls_825      1    UNK   H0Q      1     0.0976     1.0080 
    27   opls_826      1    UNK   H0R      1     0.0976     1.0080 
    28   opls_827      1    UNK   H0S      1     0.0976     1.0080 
    29   opls_828      1    UNK   H0T      1      0.115     1.0080 
    30   opls_829      1    UNK   H0U      1      0.115     1.0080 
    31   opls_830      1    UNK   H0V      1      0.115     1.0080 
    32   opls_831      1    UNK   H0W      1     0.1092     1.0080 
    33   opls_832      1    UNK   H0X      2     0.1092     1.0080 
    34   opls_833      1    UNK   H0Y      2     0.0888     1.0080 
    35   opls_834      1    UNK   H0Z      2     0.0888     1.0080 
    36   opls_835      1    UNK   H10      2     0.0888     1.0080 
    37   opls_836      1    UNK   H11      2      0.112     1.0080 
    38   opls_837      1    UNK   H12      2     0.0953     1.0080 
    39   opls_838      1    UNK   H13      2     0.0953     1.0080 
    40   opls_839      1    UNK   H14      2     0.0953     1.0080 
    41   opls_840      1    UNK   H15      2     0.1225     1.0080 
    42   opls_841      1    UNK   H16      2     0.1225     1.0080 
[ bonds ]
    2     1     1      0.1410 267776.000
    3     2     1      0.1410 267776.000
    4     3     1      0.1529 224262.400
    5     4     1      0.1529 224262.400
    6     4     1      0.1522 265265.600
    7     6     1      0.1229 476976.000
    8     6     1      0.1522 265265.600
    9     8     1      0.1529 224262.400
   10     8     1      0.1529 224262.400
   11    10     1      0.1448 319657.600
   12    11     1      0.1448 319657.600
   13    11     1      0.1448 319657.600
   14    13     1      0.1529 224262.400
   15    13     1      0.1529 224262.400
   16    15     1      0.1410 267776.000
   17    16     1      0.1327 179075.200
   18    17     1      0.1229 476976.000
   19     8     1      0.1410 267776.000
   20     1     1      0.1090 284512.000
   21     1     1      0.1090 284512.000
   22     1     1      0.1090 284512.000
   23     3     1      0.1090 284512.000
   24     3     1      0.1090 284512.000
   25     4     1      0.1090 284512.000
   26     5     1      0.1090 284512.000
   27     5     1      0.1090 284512.000
   28     5     1      0.1090 284512.000
   29     9     1      0.1090 284512.000
   30     9     1      0.1090 284512.000
   31     9     1      0.1090 284512.000
   32    10     1      0.1090 284512.000
   33    10     1      0.1090 284512.000
   34    12     1      0.1090 284512.000
   35    12     1      0.1090 284512.000
   36    12     1      0.1090 284512.000
   37    13     1      0.1090 284512.000
   38    14     1      0.1090 284512.000
   39    14     1      0.1090 284512.000
   40    14     1      0.1090 284512.000
   41    15     1      0.1090 284512.000
   42    15     1      0.1090 284512.000
   19    17     1      0.1327 179075.200

[ angles ]
;  ai    aj    ak funct            c0            c1            c2            c3 
    1     2     3     1    109.500    502.080
    2     3     4     1    109.500    418.400
    3     4     5     1    112.700    488.273
    3     4     6     1    111.100    527.184
    4     6     7     1    120.400    669.440
    4     6     8     1    116.000    585.760
    6     8     9     1    111.100    527.184
    6     8    10     1    111.100    527.184
    8    10    11     1    109.470    470.282
   10    11    12     1    107.200    433.462
   10    11    13     1    107.200    433.462
   11    13    14     1    109.470    470.282
   11    13    15     1    109.470    470.282
   13    15    16     1    109.500    418.400
   15    16    17     1    116.900    694.544
   16    17    18     1    123.400    694.544
    6     8    19     1    109.500    418.400
    2     1    20     1    109.500    292.880
    2     1    21     1    109.500    292.880
    2     1    22     1    109.500    292.880
    2     3    23     1    109.500    292.880
    2     3    24     1    109.500    292.880
    3     4    25     1    110.700    313.800
    4     5    26     1    110.700    313.800
    4     5    27     1    110.700    313.800
    4     5    28     1    110.700    313.800
    8     9    29     1    110.700    313.800
    8     9    30     1    110.700    313.800
    8     9    31     1    110.700    313.800
    8    10    32     1    110.700    313.800
    8    10    33     1    110.700    313.800
   11    12    34     1    109.500    292.880
   11    12    35     1    109.500    292.880
   11    12    36     1    109.500    292.880
   11    13    37     1    109.500    292.880
   13    14    38     1    110.700    313.800
   13    14    39     1    110.700    313.800
   13    14    40     1    110.700    313.800
   13    15    41     1    110.700    313.800
   13    15    42     1    110.700    313.800
   11    10    33     1    109.500    292.880
   16    15    41     1    109.500    292.880
    5     4     6     1    111.100    527.184
   26     5    28     1    107.800    276.144
   29     9    30     1    107.800    276.144
   15    13    37     1    110.700    313.800
   14    13    37     1    110.700    313.800
   30     9    31     1    107.800    276.144
   14    13    15     1    112.700    488.273
   29     9    31     1    107.800    276.144
   10     8    19     1    109.500    418.400
   32    10    33     1    107.800    276.144
   16    15    42     1    109.500    292.880
   11    10    32     1    109.500    292.880
    4     3    23     1    110.700    313.800
   41    15    42     1    107.800    276.144
   16    17    19     1    118.180    584.923
   23     3    24     1    107.800    276.144
    9     8    19     1    109.500    418.400
   26     5    27     1    107.800    276.144
   18    17    19     1    123.400    694.544
   34    12    36     1    107.800    276.144
   38    14    40     1    107.800    276.144
    5     4    25     1    110.700    313.800
    4     3    24     1    110.700    313.800
   35    12    36     1    107.800    276.144
   38    14    39     1    107.800    276.144
   27     5    28     1    107.800    276.144
    7     6     8     1    120.400    669.440
    8    19    17     1    116.900    694.544
   12    11    13     1    107.200    433.462
   21     1    22     1    107.800    276.144
   39    14    40     1    107.800    276.144
   34    12    35     1    107.800    276.144
   20     1    22     1    107.800    276.144
   20     1    21     1    107.800    276.144
    9     8    10     1    112.700    488.273
    6     4    25     1    109.500    292.880

[ dihedrals ]
; IMPROPER DIHEDRAL ANGLES 
;  ai    aj    ak    al funct            c0            c1            c2            c3            c4            c5
     8     6     4     7    4        180.000     43.932     2  
    16    17    18    19    4        180.000     43.932     2  

[ dihedrals ]
; PROPER DIHEDRAL ANGLES
;  ai    aj    ak    al funct            c0            c1            c2            c3            c4            c5
    6    4    3    2        3      -12.929  12.929   0.000  -0.000  -0.000   0.000
   17   19    8    6        3      -2.197   5.201   0.527  -3.531  -0.000   0.000
   17   16   15   13        3      -2.197   5.201   0.527  -3.531  -0.000   0.000
   17   19    8    9        3      -2.197   5.201   0.527  -3.531  -0.000   0.000
   17   19    8   10        3      -2.197   5.201   0.527  -3.531  -0.000   0.000
    8    6    4    5        3       0.818  -7.906   0.602   6.485  -0.000   0.000
    8    6    4    3        3       0.818  -7.906   0.602   6.485  -0.000   0.000
    9    8    6    4        3       0.818  -7.906   0.602   6.485  -0.000   0.000
   10    8    6    4        3       0.818  -7.906   0.602   6.485  -0.000   0.000
   10    8    6    7        3       0.000   0.000   0.000  -0.000  -0.000   0.000
    9    8    6    7        3       0.000   0.000   0.000  -0.000  -0.000   0.000
    5    4    3    2        3       2.874   0.582   2.092  -5.548  -0.000   0.000
   14   13   11   10        3       1.789   3.492   0.536  -5.816  -0.000   0.000
   14   13   11   12        3       1.789   3.492   0.536  -5.816  -0.000   0.000
   15   13   11   10        3       1.789   3.492   0.536  -5.816  -0.000   0.000
   15   13   11   12        3       1.789   3.492   0.536  -5.816  -0.000   0.000
    4    3    2    1        3       1.715   2.845   1.046  -5.607  -0.000   0.000
   13   11   10    8        3       1.789   3.492   0.536  -5.816  -0.000   0.000
   12   11   10    8        3       1.789   3.492   0.536  -5.816  -0.000   0.000
   25    4    6    8        3       0.575   1.726   0.000  -2.301  -0.000   0.000
   25    4    6    7        3       0.000   0.000   0.000  -0.000  -0.000   0.000
   26    5    4    6        3      -0.209  -0.628   0.000   0.837  -0.000   0.000
   29    9    8    6        3      -0.209  -0.628   0.000   0.837  -0.000   0.000
   32   10    8    6        3      -0.209  -0.628   0.000   0.837  -0.000   0.000
   24    3    4    6        3      -0.209  -0.628   0.000   0.837  -0.000   0.000
   30    9    8    6        3      -0.209  -0.628   0.000   0.837  -0.000   0.000
   33   10    8    6        3      -0.209  -0.628   0.000   0.837  -0.000   0.000
   28    5    4    6        3      -0.209  -0.628   0.000   0.837  -0.000   0.000
   31    9    8    6        3      -0.209  -0.628   0.000   0.837  -0.000   0.000
   23    3    4    6        3      -0.209  -0.628   0.000   0.837  -0.000   0.000
   27    5    4    6        3      -0.209  -0.628   0.000   0.837  -0.000   0.000
   32   10    8    9        3       0.628   1.883   0.000  -2.510  -0.000   0.000
   33   10    8    9        3       0.628   1.883   0.000  -2.510  -0.000   0.000
   41   15   13   14        3       0.628   1.883   0.000  -2.510  -0.000   0.000
   24    3    4    5        3       0.628   1.883   0.000  -2.510  -0.000   0.000
   23    3    4    5        3       0.628   1.883   0.000  -2.510  -0.000   0.000
   29    9    8   10        3       0.628   1.883   0.000  -2.510  -0.000   0.000
   31    9    8   10        3       0.628   1.883   0.000  -2.510  -0.000   0.000
   27    5    4    3        3       0.628   1.883   0.000  -2.510  -0.000   0.000
   38   14   13   15        3       0.628   1.883   0.000  -2.510  -0.000   0.000
   28    5    4    3        3       0.628   1.883   0.000  -2.510  -0.000   0.000
   40   14   13   15        3       0.628   1.883   0.000  -2.510  -0.000   0.000
   26    5    4    3        3       0.628   1.883   0.000  -2.510  -0.000   0.000
   39   14   13   15        3       0.628   1.883   0.000  -2.510  -0.000   0.000
   42   15   13   14        3       0.628   1.883   0.000  -2.510  -0.000   0.000
   30    9    8   10        3       0.628   1.883   0.000  -2.510  -0.000   0.000
   27    5    4   25        3       0.628   1.883   0.000  -2.510  -0.000   0.000
   40   14   13   37        3       0.628   1.883   0.000  -2.510  -0.000   0.000
   42   15   13   37        3       0.628   1.883   0.000  -2.510  -0.000   0.000
   41   15   13   37        3       0.628   1.883   0.000  -2.510  -0.000   0.000
   38   14   13   37        3       0.628   1.883   0.000  -2.510  -0.000   0.000
   25    4    3   24        3       0.628   1.883   0.000  -2.510  -0.000   0.000
   39   14   13   37        3       0.628   1.883   0.000  -2.510  -0.000   0.000
   25    4    3   23        3       0.628   1.883   0.000  -2.510  -0.000   0.000
   26    5    4   25        3       0.628   1.883   0.000  -2.510  -0.000   0.000
   28    5    4   25        3       0.628   1.883   0.000  -2.510  -0.000   0.000
   39   14   13   11        3      -4.096   5.088   2.966  -3.958  -0.000   0.000
   42   15   13   11        3      -4.096   5.088   2.966  -3.958  -0.000   0.000
   40   14   13   11        3      -4.096   5.088   2.966  -3.958  -0.000   0.000
   41   15   13   11        3      -4.096   5.088   2.966  -3.958  -0.000   0.000
   38   14   13   11        3      -4.096   5.088   2.966  -3.958  -0.000   0.000
   30    9    8   19        3       0.979   2.937   0.000  -3.916  -0.000   0.000
   33   10    8   19        3       0.979   2.937   0.000  -3.916  -0.000   0.000
   25    4    3    2        3       0.979   2.937   0.000  -3.916  -0.000   0.000
   32   10    8   19        3       0.979   2.937   0.000  -3.916  -0.000   0.000
   29    9    8   19        3       0.979   2.937   0.000  -3.916  -0.000   0.000
   37   13   15   16        3       0.979   2.937   0.000  -3.916  -0.000   0.000
   31    9    8   19        3       0.979   2.937   0.000  -3.916  -0.000   0.000
   35   12   11   13        3       1.172   3.515   0.000  -4.686  -0.000   0.000
   32   10   11   13        3       1.172   3.515   0.000  -4.686  -0.000   0.000
   36   12   11   10        3       1.172   3.515   0.000  -4.686  -0.000   0.000
   34   12   11   10        3       1.172   3.515   0.000  -4.686  -0.000   0.000
   35   12   11   10        3       1.172   3.515   0.000  -4.686  -0.000   0.000
   37   13   11   10        3       1.172   3.515   0.000  -4.686  -0.000   0.000
   32   10   11   12        3       1.172   3.515   0.000  -4.686  -0.000   0.000
   33   10   11   12        3       1.172   3.515   0.000  -4.686  -0.000   0.000
   33   10   11   13        3       1.172   3.515   0.000  -4.686  -0.000   0.000
   37   13   11   12        3       1.172   3.515   0.000  -4.686  -0.000   0.000
   36   12   11   13        3       1.172   3.515   0.000  -4.686  -0.000   0.000
   34   12   11   13        3       1.172   3.515   0.000  -4.686  -0.000   0.000
   42   15   16   17        3       0.414   1.243   0.000  -1.657  -0.000   0.000
   41   15   16   17        3       0.414   1.243   0.000  -1.657  -0.000   0.000
   23    3    2    1        3       1.590   4.770   0.000  -6.360  -0.000   0.000
   21    1    2    3        3       1.590   4.770   0.000  -6.360  -0.000   0.000
   24    3    2    1        3       1.590   4.770   0.000  -6.360  -0.000   0.000
   20    1    2    3        3       1.590   4.770   0.000  -6.360  -0.000   0.000
   22    1    2    3        3       1.590   4.770   0.000  -6.360  -0.000   0.000
   11   10    8    6        3       3.335  -1.552   2.820  -4.602  -0.000   0.000
   11   10    8    9        3       3.335  -1.552   2.820  -4.602  -0.000   0.000
    7    6    4    5        3       0.000   0.000   0.000  -0.000  -0.000   0.000
    7    6    4    3        3       0.000   0.000   0.000  -0.000  -0.000   0.000
   18   17   19    8        3      21.439   0.000  -21.439  -0.000  -0.000   0.000
   18   17   16   15        3      21.439   0.000  -21.439  -0.000  -0.000   0.000
   19   17   16   15        3      31.206  -9.768  -21.439  -0.000  -0.000   0.000
   16   17   19    8        3      31.206  -9.768  -21.439  -0.000  -0.000   0.000
   19    8    6    4        3       2.874   0.582   2.092  -5.548  -0.000   0.000
   19    8    6    7        3       0.000   0.000   0.000  -0.000  -0.000   0.000
   16   15   13   14        3       2.874   0.582   2.092  -5.548  -0.000   0.000
   16   15   13   11        3      16.736  -16.736   0.000  -0.000  -0.000   0.000
   19    8   10   11        3      16.736  -16.736   0.000  -0.000  -0.000   0.000

[ pairs ]
     1     4    1
     2     5    1
     2     6    1
     3     7    1
     3     8    1
     5     7    1
     5     8    1
     4     9    1
     4    10    1
     7     9    1
     7    10    1
     6    11    1
     9    11    1
     8    12    1
     8    13    1
     6    17    1
     4    19    1
     3    20    1
    10    14    1
     8    16    1
     3    21    1
     1    23    1
    10    15    1
     3    22    1
     1    24    1
    12    14    1
     9    17    1
     8    18    1
     7    19    1
    12    15    1
    11    16    1
    10    17    1
     2    25    1
     5    23    1
     6    23    1
     5    24    1
     3    26    1
    14    16    1
    13    17    1
    11    19    1
     6    24    1
     3    27    1
     3    28    1
     7    25    1
     6    26    1
    15    18    1
     8    25    1
     6    27    1
    15    19    1
     6    28    1
     6    29    1
     6    30    1
     6    31    1
     6    32    1
    10    29    1
     6    33    1
    10    30    1
    10    31    1
     9    32    1
     9    33    1
    12    32    1
    10    34    1
    13    32    1
    12    33    1
    10    35    1
    13    33    1
    10    36    1
    13    34    1
    10    37    1
    23    25    1
    19    29    1
    13    35    1
    24    25    1
    19    30    1
    13    36    1
    12    37    1
    11    38    1
    19    31    1
    11    39    1
    25    26    1
    19    32    1
    11    40    1
    25    27    1
    19    33    1
    11    41    1
    25    28    1
    16    37    1
    15    38    1
    11    42    1
    15    39    1
    15    40    1
    14    41    1
    14    42    1
    17    41    1
    17    42    1
    37    38    1
    37    39    1
    37    40    1
    37    41    1
    37    42    1

