LIGPARGEN GENERATED GRO FILE
   42
    1UNK    C00    1   0.100   0.100   0.000
    1UNK    O01    2  -0.042   0.100   0.000
    1UNK    C02    3  -0.093   0.100   0.133
    1UNK    C03    4  -0.245   0.093   0.131
    1UNK    C04    5  -0.295  -0.034   0.061
    1UNK    C05    6  -0.290   0.090   0.275
    1UNK    O06    7  -0.292  -0.018   0.336
    1UNK    C07    8  -0.326   0.221   0.350
    1UNK    C08    9  -0.476   0.194   0.381
    1UNK    C09   10  -0.216   0.223   0.464
    1UNK    N0A   11  -0.201   0.335   0.559
    1UNK    C0B   12  -0.081   0.317   0.642
    1UNK    C0C   13  -0.318   0.369   0.641
    1UNK    C0D   14  -0.398   0.248   0.691
    1UNK    C0E   15  -0.398   0.482   0.569
    1UNK    O0F   16  -0.429   0.448   0.433
    1UNK    C0G   17  -0.328   0.458   0.343
    1UNK    O0H   18  -0.266   0.561   0.319
    1UNK    O0I   19  -0.312   0.342   0.274
    1UNK    H0J   20   0.134   0.100  -0.104
    1UNK    H0K   21   0.138   0.010   0.050
    1UNK    H0M   22   0.138   0.190   0.050
    1UNK    H0N   23  -0.060   0.192   0.184
    1UNK    H0O   24  -0.052   0.014   0.188
    1UNK    H0P   25  -0.288   0.179   0.078
    1UNK    H0Q   26  -0.260  -0.125   0.112
    1UNK    H0R   27  -0.260  -0.039  -0.043
    1UNK    H0S   28  -0.405  -0.037   0.060
    1UNK    H0T   29  -0.495   0.091   0.414
    1UNK    H0U   30  -0.535   0.211   0.290
    1UNK    H0V   31  -0.521   0.257   0.457
    1UNK    H0W   32  -0.121   0.224   0.409
    1UNK    H0X   33  -0.216   0.127   0.519
    1UNK    H0Y   34   0.008   0.310   0.579
    1UNK    H0Z   35  -0.087   0.226   0.704
    1UNK    H10   36  -0.066   0.403   0.708
    1UNK    H11   37  -0.285   0.419   0.733
    1UNK    H12   38  -0.406   0.166   0.620
    1UNK    H13   39  -0.500   0.276   0.720
    1UNK    H14   40  -0.349   0.204   0.779
    1UNK    H15   41  -0.341   0.576   0.571
    1UNK    H16   42  -0.492   0.499   0.621
   1.00000   1.00000   1.00000

