
;
; GENERATED BY LigParGen Server
; Jorgensen Lab @ Yale University 
;
[ atomtypes ]
  opls_818  H818     1.0080     0.000    A    2.50000E-01   1.25520E-01
  opls_805  C805    12.0110     0.000    A    3.45000E-01   3.47272E-01
  opls_824  H824     1.0080     0.000    A    2.50000E-01   1.25520E-01
  opls_813  H813     1.0080     0.000    A    2.50000E-01   1.25520E-01
  opls_807  C807    12.0110     0.000    A    3.45000E-01   3.47272E-01
  opls_802  C802    12.0110     0.000    A    3.50000E-01   2.76144E-01
  opls_815  H815     1.0080     0.000    A    2.50000E-01   1.25520E-01
  opls_822  H822     1.0080     0.000    A    2.50000E-01   1.25520E-01
  opls_811  O811    15.9990     0.000    A    2.96000E-01   7.11280E-01
  opls_808  C808    12.0110     0.000    A    3.45000E-01   3.47272E-01
  opls_825  H825     1.0080     0.000    A    2.50000E-01   1.25520E-01
  opls_814  H814     1.0080     0.000    A    2.50000E-01   1.25520E-01
  opls_821  H821     1.0080     0.000    A    2.50000E-01   1.25520E-01
  opls_820  H820     1.0080     0.000    A    2.50000E-01   1.25520E-01
  opls_803  C803    12.0110     0.000    A    3.45000E-01   3.47272E-01
  opls_809  S809    32.0600     0.000    A    3.55000E-01   1.04600E+00
  opls_816  H816     1.0080     0.000    A    2.50000E-01   1.25520E-01
  opls_800  C800    12.0110     0.000    A    3.50000E-01   2.76144E-01
  opls_823  H823     1.0080     0.000    A    2.50000E-01   1.25520E-01
  opls_806  C806    12.0110     0.000    A    3.45000E-01   3.47272E-01
  opls_819  H819     1.0080     0.000    A    2.50000E-01   1.25520E-01
  opls_804  C804    12.0110     0.000    A    3.50000E-01   2.76144E-01
  opls_810  O810    15.9990     0.000    A    2.96000E-01   7.11280E-01
  opls_817  H817     1.0080     0.000    A    2.50000E-01   1.25520E-01
  opls_801  C801    12.0110     0.000    A    3.45000E-01   3.47272E-01
  opls_812  H812     1.0080     0.000    A    2.50000E-01   1.25520E-01
[ moleculetype ]
; Name               nrexcl
UNK                   3
[ atoms ]
;   nr       type  resnr residue  atom   cgnr     charge       mass  
     1   opls_800      1    UNK   C00      1    -0.2132    12.0110 
     2   opls_801      1    UNK   C01      1    -0.1271    12.0110 
     3   opls_802      1    UNK   C02      1    -0.0886    12.0110 
     4   opls_803      1    UNK   C03      1    -0.3329    12.0110 
     5   opls_804      1    UNK   C04      1    -0.2041    12.0110 
     6   opls_805      1    UNK   C05      1    -0.1953    12.0110 
     7   opls_806      1    UNK   C06      1     -0.388    12.0110 
     8   opls_807      1    UNK   C07      1    -0.2881    12.0110 
     9   opls_808      1    UNK   C08      1    -0.0293    12.0110 
    10   opls_809      1    UNK   S09      1     1.2401    32.0600 
    11   opls_810      1    UNK   O0A      1    -0.5212    15.9990 
    12   opls_811      1    UNK   O0B      1    -0.5212    15.9990 
    13   opls_812      1    UNK   H0C      1     0.0927     1.0080 
    14   opls_813      1    UNK   H0D      1     0.0927     1.0080 
    15   opls_814      1    UNK   H0E      1     0.0927     1.0080 
    16   opls_815      1    UNK   H0F      1     0.1265     1.0080 
    17   opls_816      1    UNK   H0G      1     0.1265     1.0080 
    18   opls_817      1    UNK   H0H      1     0.1048     1.0080 
    19   opls_818      1    UNK   H0I      1     0.1048     1.0080 
    20   opls_819      1    UNK   H0J      1     0.1048     1.0080 
    21   opls_820      1    UNK   H0K      1      0.152     1.0080 
    22   opls_821      1    UNK   H0M      1      0.152     1.0080 
    23   opls_822      1    UNK   H0N      1     0.1531     1.0080 
    24   opls_823      1    UNK   H0O      1     0.1531     1.0080 
    25   opls_824      1    UNK   H0P      1     0.1067     1.0080 
    26   opls_825      1    UNK   H0Q      1     0.1067     1.0080 
[ bonds ]
    2     1     1      0.1510 234304.000
    3     2     1      0.1510 234304.000
    4     3     1      0.1510 234304.000
    5     4     1      0.1510 234304.000
    6     4     1      0.1520 217568.000
    7     6     1      0.1520 217568.000
    8     2     1      0.1520 217568.000
    9     2     1      0.1520 217568.000
   10     4     1      0.1810 185769.600
   11    10     1      0.1440 585760.000
   12    10     1      0.1440 585760.000
   13     1     1      0.1090 284512.000
   14     1     1      0.1090 284512.000
   15     1     1      0.1090 284512.000
   16     3     1      0.1090 284512.000
   17     3     1      0.1090 284512.000
   18     5     1      0.1090 284512.000
   19     5     1      0.1090 284512.000
   20     5     1      0.1090 284512.000
   21     6     1      0.1088 284512.000
   22     6     1      0.1088 284512.000
   23     8     1      0.1088 284512.000
   24     8     1      0.1088 284512.000
   25     9     1      0.1088 284512.000
   26     9     1      0.1088 284512.000
    8     7     1      0.1520 217568.000
    9     7     1      0.1520 217568.000
   10     7     1      0.1810 185769.600

[ angles ]
;  ai    aj    ak funct            c0            c1            c2            c3 
    1     2     3     1    114.300    292.880
    2     3     4     1    112.700    488.273
    3     4     5     1    114.300    292.880
    3     4     6     1    117.200    313.800
    4     6     7     1     83.000    251.040
    1     2     8     1    117.200    313.800
    1     2     9     1    117.200    313.800
    3     4    10     1    108.600    418.400
    4    10    11     1    108.900    619.232
    4    10    12     1    108.900    619.232
    2     1    13     1    110.700    313.800
    2     1    14     1    110.700    313.800
    2     1    15     1    110.700    313.800
    2     3    16     1    110.700    313.800
    2     3    17     1    110.700    313.800
    4     5    18     1    110.700    313.800
    4     5    19     1    110.700    313.800
    4     5    20     1    110.700    313.800
    4     6    21     1    117.200    313.800
    4     6    22     1    117.200    313.800
    2     8    23     1    117.200    313.800
    2     8    24     1    117.200    313.800
    2     9    25     1    117.200    313.800
    2     9    26     1    117.200    313.800
    5     4     6     1    117.200    313.800
    2     9     7     1     83.000    251.040
   13     1    14     1    107.800    276.144
   23     8    24     1    114.300    292.880
   11    10    12     1    119.000    870.272
    7     6    22     1    117.200    313.800
   21     6    22     1    114.300    292.880
    8     7    10     1    128.000    460.240
    7    10    11     1    108.900    619.232
    7     8    24     1    117.200    313.800
    9     7    10     1    128.000    460.240
    2     8     7     1     83.000    251.040
   25     9    26     1    114.300    292.880
    5     4    10     1    108.600    418.400
    6     7    10     1    128.000    460.240
    6     7     8     1     83.000    251.040
   18     5    19     1    107.800    276.144
    3     2     8     1    117.200    313.800
    4    10     7     1    102.000    518.816
    8     2     9     1     83.000    251.040
   19     5    20     1    107.800    276.144
    8     7     9     1     83.000    251.040
   14     1    15     1    107.800    276.144
    6     4    10     1    128.000    460.240
   13     1    15     1    107.800    276.144
    3     2     9     1    117.200    313.800
    6     7     9     1     83.000    251.040
    7     8    23     1    117.200    313.800
    4     3    16     1    110.700    313.800
    7    10    12     1    108.900    619.232
   16     3    17     1    107.800    276.144
    7     9    26     1    117.200    313.800
    7     9    25     1    117.200    313.800
   18     5    20     1    107.800    276.144
    4     3    17     1    110.700    313.800
    7     6    21     1    117.200    313.800

[ dihedrals ]
; IMPROPER DIHEDRAL ANGLES 
;  ai    aj    ak    al funct            c0            c1            c2            c3            c4            c5

[ dihedrals ]
; PROPER DIHEDRAL ANGLES
;  ai    aj    ak    al funct            c0            c1            c2            c3            c4            c5
    5    4    3    2        3       0.000   0.000   0.000  -0.000  -0.000   0.000
    4    3    2    1        3       0.000   0.000   0.000  -0.000  -0.000   0.000
    8    2    3    4        3       0.000   0.000   0.000  -0.000  -0.000   0.000
    6    4    3    2        3       0.000   0.000   0.000  -0.000  -0.000   0.000
    9    2    3    4        3       0.000   0.000   0.000  -0.000  -0.000   0.000
    7    9    2    1        3       0.000   0.000   0.000  -0.000  -0.000   0.000
    7    8    2    1        3       0.000   0.000   0.000  -0.000  -0.000   0.000
    7    9    2    3        3       0.000   0.000   0.000  -0.000  -0.000   0.000
    7    8    2    3        3       0.000   0.000   0.000  -0.000  -0.000   0.000
    7    6    4    5        3       0.000   0.000   0.000  -0.000  -0.000   0.000
    7    6    4    3        3       0.000   0.000   0.000  -0.000  -0.000   0.000
    8    7    6    4        3       0.000   0.000   0.000  -0.000  -0.000   0.000
    9    7    6    4        3       0.000   0.000   0.000  -0.000  -0.000   0.000
    6    7    8    2        3       0.000   0.000   0.000  -0.000  -0.000   0.000
    6    7    9    2        3       0.000   0.000   0.000  -0.000  -0.000   0.000
    8    7   10    4        3       0.000   0.000   0.000  -0.000  -0.000   0.000
    9    7   10    4        3       0.000   0.000   0.000  -0.000  -0.000   0.000
    7   10    4    5        3       0.000   0.000   0.000  -0.000  -0.000   0.000
    7   10    4    3        3       0.000   0.000   0.000  -0.000  -0.000   0.000
   13    1    2    3        3       0.628   1.883   0.000  -2.510  -0.000   0.000
   16    3    4    5        3       0.628   1.883   0.000  -2.510  -0.000   0.000
   14    1    2    3        3       0.628   1.883   0.000  -2.510  -0.000   0.000
   17    3    2    1        3       0.628   1.883   0.000  -2.510  -0.000   0.000
   19    5    4    3        3       0.628   1.883   0.000  -2.510  -0.000   0.000
   20    5    4    3        3       0.628   1.883   0.000  -2.510  -0.000   0.000
   15    1    2    3        3       0.628   1.883   0.000  -2.510  -0.000   0.000
   18    5    4    3        3       0.628   1.883   0.000  -2.510  -0.000   0.000
   16    3    2    1        3       0.628   1.883   0.000  -2.510  -0.000   0.000
   17    3    4    5        3       0.628   1.883   0.000  -2.510  -0.000   0.000
   15    1    2    8        3       0.628   1.883   0.000  -2.510  -0.000   0.000
   16    3    4    6        3       0.628   1.883   0.000  -2.510  -0.000   0.000
   13    1    2    8        3       0.628   1.883   0.000  -2.510  -0.000   0.000
   14    1    2    9        3       0.628   1.883   0.000  -2.510  -0.000   0.000
   20    5    4    6        3       0.628   1.883   0.000  -2.510  -0.000   0.000
   17    3    4    6        3       0.628   1.883   0.000  -2.510  -0.000   0.000
   18    5    4    6        3       0.628   1.883   0.000  -2.510  -0.000   0.000
   16    3    2    9        3       0.628   1.883   0.000  -2.510  -0.000   0.000
   17    3    2    8        3       0.628   1.883   0.000  -2.510  -0.000   0.000
   19    5    4    6        3       0.628   1.883   0.000  -2.510  -0.000   0.000
   15    1    2    9        3       0.628   1.883   0.000  -2.510  -0.000   0.000
   14    1    2    8        3       0.628   1.883   0.000  -2.510  -0.000   0.000
   16    3    2    8        3       0.628   1.883   0.000  -2.510  -0.000   0.000
   17    3    2    9        3       0.628   1.883   0.000  -2.510  -0.000   0.000
   13    1    2    9        3       0.628   1.883   0.000  -2.510  -0.000   0.000
   20    5    4   10        3       0.946   2.837   0.000  -3.782  -0.000   0.000
   16    3    4   10        3       0.946   2.837   0.000  -3.782  -0.000   0.000
   19    5    4   10        3       0.946   2.837   0.000  -3.782  -0.000   0.000
   18    5    4   10        3       0.946   2.837   0.000  -3.782  -0.000   0.000
   17    3    4   10        3       0.946   2.837   0.000  -3.782  -0.000   0.000
   26    9    2    3        3       0.000   0.000   0.000  -0.000  -0.000   0.000
   21    6    4    3        3       0.000   0.000   0.000  -0.000  -0.000   0.000
   24    8    2    3        3       0.000   0.000   0.000  -0.000  -0.000   0.000
   23    8    2    1        3       0.000   0.000   0.000  -0.000  -0.000   0.000
   25    9    2    1        3       0.000   0.000   0.000  -0.000  -0.000   0.000
   25    9    2    3        3       0.000   0.000   0.000  -0.000  -0.000   0.000
   22    6    4    5        3       0.000   0.000   0.000  -0.000  -0.000   0.000
   26    9    2    1        3       0.000   0.000   0.000  -0.000  -0.000   0.000
   22    6    4    3        3       0.000   0.000   0.000  -0.000  -0.000   0.000
   24    8    2    1        3       0.000   0.000   0.000  -0.000  -0.000   0.000
   23    8    2    3        3       0.000   0.000   0.000  -0.000  -0.000   0.000
   21    6    4    5        3       0.000   0.000   0.000  -0.000  -0.000   0.000
   24    8    7    6        3       0.000   0.000   0.000  -0.000  -0.000   0.000
   25    9    2    8        3       0.000   0.000   0.000  -0.000  -0.000   0.000
   21    6    7    8        3       0.000   0.000   0.000  -0.000  -0.000   0.000
   23    8    7    9        3       0.000   0.000   0.000  -0.000  -0.000   0.000
   25    9    7    6        3       0.000   0.000   0.000  -0.000  -0.000   0.000
   22    6    7    9        3       0.000   0.000   0.000  -0.000  -0.000   0.000
   26    9    7    6        3       0.000   0.000   0.000  -0.000  -0.000   0.000
   23    8    7    6        3       0.000   0.000   0.000  -0.000  -0.000   0.000
   24    8    7    9        3       0.000   0.000   0.000  -0.000  -0.000   0.000
   24    8    2    9        3       0.000   0.000   0.000  -0.000  -0.000   0.000
   26    9    7    8        3       0.000   0.000   0.000  -0.000  -0.000   0.000
   26    9    2    8        3       0.000   0.000   0.000  -0.000  -0.000   0.000
   25    9    7    8        3       0.000   0.000   0.000  -0.000  -0.000   0.000
   23    8    2    9        3       0.000   0.000   0.000  -0.000  -0.000   0.000
   21    6    7    9        3       0.000   0.000   0.000  -0.000  -0.000   0.000
   22    6    7    8        3       0.000   0.000   0.000  -0.000  -0.000   0.000
   22    6    4   10        3       0.000   0.000   0.000  -0.000  -0.000   0.000
   26    9    7   10        3       0.000   0.000   0.000  -0.000  -0.000   0.000
   21    6    4   10        3       0.000   0.000   0.000  -0.000  -0.000   0.000
   24    8    7   10        3       0.000   0.000   0.000  -0.000  -0.000   0.000
   23    8    7   10        3       0.000   0.000   0.000  -0.000  -0.000   0.000
   22    6    7   10        3       0.000   0.000   0.000  -0.000  -0.000   0.000
   21    6    7   10        3       0.000   0.000   0.000  -0.000  -0.000   0.000
   25    9    7   10        3       0.000   0.000   0.000  -0.000  -0.000   0.000
   12   10    4    3        3       0.000   0.000   0.000  -0.000  -0.000   0.000
   11   10    4    5        3       0.000   0.000   0.000  -0.000  -0.000   0.000
   11   10    4    3        3       0.000   0.000   0.000  -0.000  -0.000   0.000
   12   10    4    5        3       0.000   0.000   0.000  -0.000  -0.000   0.000
   12   10    7    6        3       0.000   0.000   0.000  -0.000  -0.000   0.000
   11   10    7    8        3       0.000   0.000   0.000  -0.000  -0.000   0.000
   11   10    7    9        3       0.000   0.000   0.000  -0.000  -0.000   0.000
   12   10    7    9        3       0.000   0.000   0.000  -0.000  -0.000   0.000
   11   10    7    6        3       0.000   0.000   0.000  -0.000  -0.000   0.000
   12   10    7    8        3       0.000   0.000   0.000  -0.000  -0.000   0.000
   12   10    4    6        3       0.000   0.000   0.000  -0.000  -0.000   0.000
   11   10    4    6        3       0.000   0.000   0.000  -0.000  -0.000   0.000
   10    4    3    2        3       2.784   0.278   0.828  -3.891  -0.000   0.000
   10    7    8    2        3       0.000   0.000   0.000  -0.000  -0.000   0.000
   10    7    9    2        3       0.000   0.000   0.000  -0.000  -0.000   0.000

[ pairs ]
     1     4    1
     2     5    1
     2     6    1
     1     7    1
     3     7    1
     5     7    1
     4     8    1
     2    10    1
     4     9    1
     3    11    1
     3    12    1
     5    11    1
     3    13    1
     6    11    1
     5    12    1
     3    14    1
     1    16    1
     6    12    1
     3    15    1
     1    17    1
     8    11    1
     9    11    1
     8    12    1
     9    12    1
     8    13    1
     5    16    1
     3    18    1
     9    13    1
     8    14    1
     6    16    1
     5    17    1
     3    19    1
     9    14    1
     8    15    1
     6    17    1
     3    20    1
     9    15    1
     8    16    1
     6    18    1
     3    21    1
     1    23    1
     9    16    1
     8    17    1
     6    19    1
     3    22    1
     1    24    1
    10    16    1
     9    17    1
     6    20    1
     5    21    1
     3    23    1
     1    25    1
    10    17    1
     5    22    1
     3    24    1
     1    26    1
    10    18    1
     3    25    1
    10    19    1
     8    21    1
     6    23    1
     3    26    1
    10    20    1
     9    21    1
     8    22    1
     6    24    1
    10    21    1
     9    22    1
     6    25    1
    10    22    1
     9    23    1
     6    26    1
    10    23    1
     9    24    1
     8    25    1
    10    24    1
     8    26    1
    10    25    1
    10    26    1

