LIGPARGEN GENERATED GRO FILE
   26
    1UNK    C00    1   0.100   0.100   0.000
    1UNK    C01    2  -0.052   0.100   0.000
    1UNK    C02    3  -0.106   0.100   0.144
    1UNK    C03    4  -0.251   0.145   0.130
    1UNK    C04    5  -0.322   0.151   0.264
    1UNK    C05    6  -0.327   0.070   0.018
    1UNK    C06    7  -0.247   0.135  -0.105
    1UNK    C07    8  -0.101   0.198  -0.110
    1UNK    C08    9  -0.140   0.003  -0.081
    1UNK    S09   10  -0.270   0.291   0.027
    1UNK    O0A   11  -0.159   0.381   0.053
    1UNK    O0B   12  -0.407   0.338   0.020
    1UNK    H0C   13   0.136   0.197   0.038
    1UNK    H0D   14   0.142   0.088  -0.100
    1UNK    H0E   15   0.141   0.022   0.065
    1UNK    H0F   16  -0.050   0.168   0.209
    1UNK    H0G   17  -0.101  -0.001   0.187
    1UNK    H0H   18  -0.340   0.050   0.302
    1UNK    H0I   19  -0.419   0.202   0.257
    1UNK    H0J   20  -0.262   0.205   0.337
    1UNK    H0K   21  -0.434   0.095   0.011
    1UNK    H0M   22  -0.337  -0.039   0.032
    1UNK    H0N   23  -0.073   0.303  -0.110
    1UNK    H0O   24  -0.056   0.175  -0.210
    1UNK    H0P   25  -0.097  -0.032  -0.176
    1UNK    H0Q   26  -0.166  -0.091  -0.030
   1.00000   1.00000   1.00000

