LIGPARGEN GENERATED GRO FILE
   27
    1UNK    C00    1   0.100   0.100   0.000
    1UNK    C01    2  -0.052   0.100   0.000
    1UNK    C02    3  -0.111   0.100   0.140
    1UNK    O03    4  -0.042   0.111   0.242
    1UNK    C04    5  -0.261   0.091   0.149
    1UNK    C05    6  -0.327   0.226   0.167
    1UNK    O06    7  -0.312   0.313   0.051
    1UNK    C07    8  -0.446   0.340   0.046
    1UNK    O08    9  -0.504   0.419  -0.025
    1UNK    C09   10  -0.480   0.227   0.146
    1UNK    C0A   11  -0.572   0.263   0.261
    1UNK    C0B   12  -0.713   0.313   0.244
    1UNK    C0C   13  -0.689   0.175   0.298
    1UNK    H0D   14   0.138   0.100  -0.103
    1UNK    H0E   15   0.139   0.011   0.051
    1UNK    H0F   16   0.139   0.188   0.051
    1UNK    H0G   17  -0.088   0.011  -0.052
    1UNK    H0H   18  -0.088   0.189  -0.053
    1UNK    H0I   19  -0.285   0.027   0.235
    1UNK    H0J   20  -0.299   0.039   0.061
    1UNK    H0K   21  -0.294   0.279   0.257
    1UNK    H0M   22  -0.518   0.139   0.092
    1UNK    H0N   23  -0.514   0.307   0.342
    1UNK    H0O   24  -0.752   0.323   0.144
    1UNK    H0P   25  -0.748   0.389   0.313
    1UNK    H0Q   26  -0.715   0.092   0.233
    1UNK    H0R   27  -0.708   0.157   0.403
   1.00000   1.00000   1.00000

