LIGPARGEN GENERATED GRO FILE
   45
    1UNK    C00    1   0.100   0.100   0.000
    1UNK    C01    2  -0.052   0.100   0.000
    1UNK    C02    3  -0.111   0.100   0.140
    1UNK    O03    4  -0.042   0.100   0.242
    1UNK    C04    5  -0.263   0.100   0.144
    1UNK    C05    6  -0.321   0.077   0.283
    1UNK    C06    7  -0.472   0.078   0.280
    1UNK    C07    8  -0.555  -0.030   0.214
    1UNK    C08    9  -0.495  -0.150   0.146
    1UNK    C09   10  -0.602  -0.245   0.095
    1UNK    C0A   11  -0.552  -0.019   0.365
    1UNK    C0B   12  -0.677   0.020   0.444
    1UNK    C0C   13  -0.733   0.158   0.406
    1UNK    C0D   14  -0.787  -0.086   0.418
    1UNK    C0E   15  -0.646   0.019   0.597
    1UNK    O0F   16  -0.546   0.116   0.628
    1UNK    C0G   17  -0.516   0.117   0.767
    1UNK    H0H   18   0.138   0.105  -0.102
    1UNK    H0I   19   0.139   0.009   0.047
    1UNK    H0J   20   0.139   0.186   0.055
    1UNK    H0K   21  -0.088   0.011  -0.053
    1UNK    H0M   22  -0.088   0.189  -0.053
    1UNK    H0N   23  -0.294   0.021   0.076
    1UNK    H0O   24  -0.298   0.195   0.103
    1UNK    H0P   25  -0.288   0.157   0.350
    1UNK    H0Q   26  -0.283  -0.017   0.325
    1UNK    H0R   27  -0.507   0.180   0.268
    1UNK    H0S   28  -0.642   0.006   0.160
    1UNK    H0T   29  -0.427  -0.203   0.212
    1UNK    H0U   30  -0.438  -0.117   0.059
    1UNK    H0V   31  -0.660  -0.287   0.177
    1UNK    H0W   32  -0.555  -0.327   0.039
    1UNK    H0X   33  -0.671  -0.194   0.027
    1UNK    H0Y   34  -0.496  -0.096   0.418
    1UNK    H0Z   35  -0.757   0.164   0.300
    1UNK    H10   36  -0.662   0.238   0.428
    1UNK    H11   37  -0.825   0.180   0.462
    1UNK    H12   38  -0.815  -0.089   0.312
    1UNK    H13   39  -0.877  -0.065   0.476
    1UNK    H14   40  -0.752  -0.186   0.445
    1UNK    H15   41  -0.610  -0.081   0.627
    1UNK    H16   42  -0.737   0.041   0.654
    1UNK    H17   43  -0.436   0.190   0.784
    1UNK    H18   44  -0.480   0.018   0.799
    1UNK    H19   45  -0.604   0.146   0.825
   1.00000   1.00000   1.00000

