LIGPARGEN GENERATED GRO FILE
   33
    1UNK    C00    1   0.100   0.100   0.000
    1UNK    C01    2  -0.052   0.100   0.000
    1UNK    C02    3  -0.106   0.100   0.142
    1UNK    S03    4  -0.285   0.100   0.145
    1UNK    O04    5  -0.331   0.221   0.080
    1UNK    O05    6  -0.331  -0.030   0.099
    1UNK    C06    7  -0.326   0.114   0.319
    1UNK    C07    8  -0.273  -0.004   0.399
    1UNK    C08    9  -0.304   0.001   0.550
    1UNK    C09   10  -0.455  -0.001   0.577
    1UNK    C0A   11  -0.232  -0.113   0.628
    1UNK    C0B   12  -0.273  -0.254   0.584
    1UNK    C0C   13  -0.082  -0.101   0.611
    1UNK    N0D   14   0.043  -0.090   0.597
    1UNK    H0E   15   0.138   0.100  -0.103
    1UNK    H0F   16   0.139   0.011   0.051
    1UNK    H0G   17   0.139   0.189   0.051
    1UNK    H0H   18  -0.088   0.012  -0.054
    1UNK    H0I   19  -0.088   0.188  -0.054
    1UNK    H0J   20  -0.073   0.189   0.197
    1UNK    H0K   21  -0.072   0.010   0.194
    1UNK    H0M   22  -0.436   0.119   0.323
    1UNK    H0N   23  -0.286   0.209   0.354
    1UNK    H0O   24  -0.164  -0.006   0.387
    1UNK    H0P   25  -0.312  -0.097   0.356
    1UNK    H0Q   26  -0.266   0.097   0.589
    1UNK    H0R   27  -0.503  -0.089   0.531
    1UNK    H0S   28  -0.504   0.088   0.537
    1UNK    H0T   29  -0.476  -0.004   0.684
    1UNK    H0U   30  -0.254  -0.103   0.735
    1UNK    H0V   31  -0.252  -0.273   0.478
    1UNK    H0W   32  -0.380  -0.272   0.601
    1UNK    H0X   33  -0.218  -0.330   0.641
   1.00000   1.00000   1.00000

