LIGPARGEN GENERATED GRO FILE
   37
    1UNK    C00    1   0.100   0.100   0.000
    1UNK    O01    2  -0.043   0.100   0.000
    1UNK    C02    3  -0.098   0.100   0.124
    1UNK    O03    4  -0.035   0.100   0.229
    1UNK    O04    5  -0.233   0.100   0.112
    1UNK    C05    6  -0.307   0.094   0.236
    1UNK    C06    7  -0.328   0.236   0.290
    1UNK    C07    8  -0.427   0.320   0.210
    1UNK    C08    9  -0.555   0.247   0.170
    1UNK    C09   10  -0.530   0.106   0.117
    1UNK    C0A   11  -0.443   0.022   0.210
    1UNK    C0B   12  -0.511  -0.008   0.346
    1UNK    C0C   13  -0.639  -0.086   0.335
    1UNK    C0D   14  -0.647  -0.225   0.278
    1UNK    N0E   15  -0.651  -0.203   0.422
    1UNK    C0F   16  -0.782  -0.216   0.483
    1UNK    H0G   17   0.134   0.117  -0.103
    1UNK    H0H   18   0.138   0.003   0.033
    1UNK    H0I   19   0.140   0.180   0.063
    1UNK    H0J   20  -0.251   0.034   0.308
    1UNK    H0K   21  -0.232   0.289   0.293
    1UNK    H0M   22  -0.363   0.229   0.394
    1UNK    H0N   23  -0.377   0.356   0.119
    1UNK    H0O   24  -0.454   0.408   0.269
    1UNK    H0P   25  -0.607   0.306   0.094
    1UNK    H0Q   26  -0.623   0.242   0.256
    1UNK    H0R   27  -0.481   0.114   0.019
    1UNK    H0S   28  -0.626   0.056   0.099
    1UNK    H0T   29  -0.422  -0.072   0.159
    1UNK    H0U   30  -0.533   0.084   0.400
    1UNK    H0V   31  -0.440  -0.063   0.409
    1UNK    H0W   32  -0.726  -0.021   0.323
    1UNK    H0X   33  -0.557  -0.271   0.240
    1UNK    H0Y   34  -0.738  -0.255   0.228
    1UNK    H0Z   35  -0.788  -0.313   0.535
    1UNK    H10   36  -0.866  -0.212   0.412
    1UNK    H11   37  -0.797  -0.138   0.558
   1.00000   1.00000   1.00000

