
;
; GENERATED BY LigParGen Server
; Jorgensen Lab @ Yale University 
;
[ atomtypes ]
  opls_818  H818     1.0080     0.000    A    2.50000E-01   1.25520E-01
  opls_824  H824     1.0080     0.000    A    2.50000E-01   1.25520E-01
  opls_805  O805    15.9990     0.000    A    2.96000E-01   7.11280E-01
  opls_828  H828     1.0080     0.000    A    2.50000E-01   1.25520E-01
  opls_832  H832     1.0080     0.000    A    2.50000E-01   1.25520E-01
  opls_802  C802    12.0110     0.000    A    3.50000E-01   2.76144E-01
  opls_800  C800    12.0110     0.000    A    3.50000E-01   2.76144E-01
  opls_809  C809    12.0110     0.000    A    3.50000E-01   2.76144E-01
  opls_806  C806    12.0110     0.000    A    3.50000E-01   2.76144E-01
  opls_822  H822     1.0080     0.000    A    2.50000E-01   1.25520E-01
  opls_807  C807    12.0110     0.000    A    3.50000E-01   2.76144E-01
  opls_813  N813    14.0070     0.000    A    3.20000E-01   7.11280E-01
  opls_825  H825     1.0080     0.000    A    2.50000E-01   1.25520E-01
  opls_814  H814     1.0080     0.000    A    2.50000E-01   1.25520E-01
  opls_821  H821     1.0080     0.000    A    2.50000E-01   1.25520E-01
  opls_827  H827     1.0080     0.000    A    2.50000E-01   1.25520E-01
  opls_820  H820     1.0080     0.000    A    2.50000E-01   1.25520E-01
  opls_829  H829     1.0080     0.000    A    2.50000E-01   1.25520E-01
  opls_831  H831     1.0080     0.000    A    2.50000E-01   1.25520E-01
  opls_816  H816     1.0080     0.000    A    2.50000E-01   1.25520E-01
  opls_804  O804    15.9990     0.000    A    2.96000E-01   7.11280E-01
  opls_811  C811    12.0110     0.000    A    3.50000E-01   2.76144E-01
  opls_823  H823     1.0080     0.000    A    2.50000E-01   1.25520E-01
  opls_826  H826     1.0080     0.000    A    2.50000E-01   1.25520E-01
  opls_819  H819     1.0080     0.000    A    2.50000E-01   1.25520E-01
  opls_810  C810    12.0110     0.000    A    3.50000E-01   2.76144E-01
  opls_815  H815     1.0080     0.000    A    2.50000E-01   1.25520E-01
  opls_801  C801    12.0110     0.000    A    3.50000E-01   2.76144E-01
  opls_808  C808    12.0110     0.000    A    3.50000E-01   2.76144E-01
  opls_817  H817     1.0080     0.000    A    2.50000E-01   1.25520E-01
  opls_803  S803    32.0600     0.000    A    3.55000E-01   1.04600E+00
  opls_830  H830     1.0080     0.000    A    2.50000E-01   1.25520E-01
  opls_812  C812    12.0110     0.000    A    3.30000E-01   2.76144E-01
[ moleculetype ]
; Name               nrexcl
UNK                   3
[ atoms ]
;   nr       type  resnr residue  atom   cgnr     charge       mass  
     1   opls_800      1    UNK   C00      1    -0.2288    12.0110 
     2   opls_801      1    UNK   C01      1    -0.1453    12.0110 
     3   opls_802      1    UNK   C02      1    -0.4937    12.0110 
     4   opls_803      1    UNK   S03      1     1.2867    32.0600 
     5   opls_804      1    UNK   O04      1    -0.5663    15.9990 
     6   opls_805      1    UNK   O05      1    -0.5663    15.9990 
     7   opls_806      1    UNK   C06      1    -0.5037    12.0110 
     8   opls_807      1    UNK   C07      1    -0.1488    12.0110 
     9   opls_808      1    UNK   C08      1    -0.0956    12.0110 
    10   opls_809      1    UNK   C09      1    -0.2381    12.0110 
    11   opls_810      1    UNK   C0A      1     0.0295    12.0110 
    12   opls_811      1    UNK   C0B      1    -0.2427    12.0110 
    13   opls_812      1    UNK   C0C      1     0.1283    12.0110 
    14   opls_813      1    UNK   N0D      1    -0.3947    14.0070 
    15   opls_814      1    UNK   H0E      1     0.0882     1.0080 
    16   opls_815      1    UNK   H0F      1     0.0882     1.0080 
    17   opls_816      1    UNK   H0G      1     0.0882     1.0080 
    18   opls_817      1    UNK   H0H      1     0.1111     1.0080 
    19   opls_818      1    UNK   H0I      1     0.1111     1.0080 
    20   opls_819      1    UNK   H0J      1     0.1597     1.0080 
    21   opls_820      1    UNK   H0K      1     0.1597     1.0080 
    22   opls_821      1    UNK   H0M      1     0.1664     1.0080 
    23   opls_822      1    UNK   H0N      1     0.1664     1.0080 
    24   opls_823      1    UNK   H0O      1     0.1081     1.0080 
    25   opls_824      1    UNK   H0P      1     0.1081     1.0080 
    26   opls_825      1    UNK   H0Q      1     0.1099     1.0080 
    27   opls_826      1    UNK   H0R      1     0.0916     1.0080 
    28   opls_827      1    UNK   H0S      1     0.0916     1.0080 
    29   opls_828      1    UNK   H0T      1     0.0916     1.0080 
    30   opls_829      1    UNK   H0U      1     0.1368     1.0080 
    31   opls_830      1    UNK   H0V      1     0.1008     1.0080 
    32   opls_831      1    UNK   H0W      1     0.1008     1.0080 
    33   opls_832      1    UNK   H0X      2     0.1008     1.0080 
[ bonds ]
    2     1     1      0.1529 224262.400
    3     2     1      0.1529 224262.400
    4     3     1      0.1770 284512.000
    5     4     1      0.1440 585760.000
    6     4     1      0.1440 585760.000
    7     4     1      0.1770 284512.000
    8     7     1      0.1529 224262.400
    9     8     1      0.1529 224262.400
   10     9     1      0.1529 224262.400
   11     9     1      0.1529 224262.400
   12    11     1      0.1529 224262.400
   13    11     1      0.1470 326352.000
   14    13     1      0.1157 543920.000
   15     1     1      0.1090 284512.000
   16     1     1      0.1090 284512.000
   17     1     1      0.1090 284512.000
   18     2     1      0.1090 284512.000
   19     2     1      0.1090 284512.000
   20     3     1      0.1090 284512.000
   21     3     1      0.1090 284512.000
   22     7     1      0.1090 284512.000
   23     7     1      0.1090 284512.000
   24     8     1      0.1090 284512.000
   25     8     1      0.1090 284512.000
   26     9     1      0.1090 284512.000
   27    10     1      0.1090 284512.000
   28    10     1      0.1090 284512.000
   29    10     1      0.1090 284512.000
   30    11     1      0.1090 284512.000
   31    12     1      0.1090 284512.000
   32    12     1      0.1090 284512.000
   33    12     1      0.1090 284512.000

[ angles ]
;  ai    aj    ak funct            c0            c1            c2            c3 
    1     2     3     1    112.700    488.273
    2     3     4     1    108.600    418.400
    3     4     5     1    108.900    619.232
    3     4     6     1    108.900    619.232
    3     4     7     1    102.000    518.816
    4     7     8     1    108.600    418.400
    7     8     9     1    112.700    488.273
    8     9    10     1    112.700    488.273
    8     9    11     1    112.700    488.273
    9    11    12     1    112.700    488.273
    9    11    13     1    112.700    488.273
   11    13    14     1    180.000   1255.200
    2     1    15     1    110.700    313.800
    2     1    16     1    110.700    313.800
    2     1    17     1    110.700    313.800
    1     2    18     1    110.700    313.800
    1     2    19     1    110.700    313.800
    2     3    20     1    110.700    313.800
    2     3    21     1    110.700    313.800
    4     7    22     1    109.500    292.880
    4     7    23     1    109.500    292.880
    7     8    24     1    110.700    313.800
    7     8    25     1    110.700    313.800
    8     9    26     1    110.700    313.800
    9    10    27     1    110.700    313.800
    9    10    28     1    110.700    313.800
    9    10    29     1    110.700    313.800
    9    11    30     1    110.700    313.800
   11    12    31     1    110.700    313.800
   11    12    32     1    110.700    313.800
   11    12    33     1    110.700    313.800
   18     2    19     1    107.800    276.144
   27    10    28     1    107.800    276.144
    5     4     6     1    119.000    870.272
    9     8    25     1    110.700    313.800
   31    12    33     1    107.800    276.144
    3     2    18     1    110.700    313.800
    5     4     7     1    108.900    619.232
   31    12    32     1    107.800    276.144
    6     4     7     1    108.900    619.232
   22     7    23     1    107.800    276.144
   10     9    26     1    110.700    313.800
   13    11    30     1    108.500    292.880
   28    10    29     1    107.800    276.144
   32    12    33     1    107.800    276.144
   12    11    30     1    110.700    313.800
    8     7    23     1    110.700    313.800
    9     8    24     1    110.700    313.800
    3     2    19     1    110.700    313.800
   15     1    16     1    107.800    276.144
    4     3    21     1    109.500    292.880
    8     7    22     1    110.700    313.800
   15     1    17     1    107.800    276.144
   16     1    17     1    107.800    276.144
   10     9    11     1    112.700    488.273
   12    11    13     1    112.700    488.273
   24     8    25     1    107.800    276.144
   27    10    29     1    107.800    276.144
    4     3    20     1    109.500    292.880
   11     9    26     1    110.700    313.800
   20     3    21     1    107.800    276.144

[ dihedrals ]
; IMPROPER DIHEDRAL ANGLES 
;  ai    aj    ak    al funct            c0            c1            c2            c3            c4            c5

[ dihedrals ]
; PROPER DIHEDRAL ANGLES
;  ai    aj    ak    al funct            c0            c1            c2            c3            c4            c5
   11    9    8    7        3       2.301  -1.464   0.837  -1.674  -0.000   0.000
   10    9    8    7        3       2.301  -1.464   0.837  -1.674  -0.000   0.000
   12   11    9    8        3       2.301  -1.464   0.837  -1.674  -0.000   0.000
   12   11    9   10        3       2.301  -1.464   0.837  -1.674  -0.000   0.000
    9    8    7    4        3       2.784   0.278   0.828  -3.891  -0.000   0.000
    8    7    4    3        3       0.000   0.000   0.000  -0.000  -0.000   0.000
    8    7    4    5        3       0.000   0.000   0.000  -0.000  -0.000   0.000
    8    7    4    6        3       0.000   0.000   0.000  -0.000  -0.000   0.000
    7    4    3    2        3       0.000   0.000   0.000  -0.000  -0.000   0.000
   13   11    9   10        3      -2.720   0.000   2.720  -0.000  -0.000   0.000
   13   11    9    8        3      -2.720   0.000   2.720  -0.000  -0.000   0.000
   26    9   11   12        3       0.628   1.883   0.000  -2.510  -0.000   0.000
   29   10    9   11        3       0.628   1.883   0.000  -2.510  -0.000   0.000
   30   11    9    8        3       0.628   1.883   0.000  -2.510  -0.000   0.000
   27   10    9   11        3       0.628   1.883   0.000  -2.510  -0.000   0.000
   23    7    8    9        3       0.628   1.883   0.000  -2.510  -0.000   0.000
   24    8    9   10        3       0.628   1.883   0.000  -2.510  -0.000   0.000
   21    3    2    1        3       0.628   1.883   0.000  -2.510  -0.000   0.000
   26    9    8    7        3       0.628   1.883   0.000  -2.510  -0.000   0.000
   28   10    9    8        3       0.628   1.883   0.000  -2.510  -0.000   0.000
   25    8    9   10        3       0.628   1.883   0.000  -2.510  -0.000   0.000
   24    8    9   11        3       0.628   1.883   0.000  -2.510  -0.000   0.000
   22    7    8    9        3       0.628   1.883   0.000  -2.510  -0.000   0.000
   20    3    2    1        3       0.628   1.883   0.000  -2.510  -0.000   0.000
   32   12   11    9        3       0.628   1.883   0.000  -2.510  -0.000   0.000
   29   10    9    8        3       0.628   1.883   0.000  -2.510  -0.000   0.000
   33   12   11    9        3       0.628   1.883   0.000  -2.510  -0.000   0.000
   31   12   11    9        3       0.628   1.883   0.000  -2.510  -0.000   0.000
   30   11    9   10        3       0.628   1.883   0.000  -2.510  -0.000   0.000
   28   10    9   11        3       0.628   1.883   0.000  -2.510  -0.000   0.000
   16    1    2    3        3       0.628   1.883   0.000  -2.510  -0.000   0.000
   17    1    2    3        3       0.628   1.883   0.000  -2.510  -0.000   0.000
   27   10    9    8        3       0.628   1.883   0.000  -2.510  -0.000   0.000
   25    8    9   11        3       0.628   1.883   0.000  -2.510  -0.000   0.000
   15    1    2    3        3       0.628   1.883   0.000  -2.510  -0.000   0.000
   32   12   11   13        3       0.766   2.297   0.000  -3.063  -0.000   0.000
   26    9   11   13        3       0.766   2.297   0.000  -3.063  -0.000   0.000
   31   12   11   13        3       0.766   2.297   0.000  -3.063  -0.000   0.000
   33   12   11   13        3       0.766   2.297   0.000  -3.063  -0.000   0.000
   21    3    2   19        3       0.628   1.883   0.000  -2.510  -0.000   0.000
   20    3    2   19        3       0.628   1.883   0.000  -2.510  -0.000   0.000
   19    2    1   17        3       0.628   1.883   0.000  -2.510  -0.000   0.000
   26    9    8   24        3       0.628   1.883   0.000  -2.510  -0.000   0.000
   31   12   11   30        3       0.628   1.883   0.000  -2.510  -0.000   0.000
   26    9    8   25        3       0.628   1.883   0.000  -2.510  -0.000   0.000
   30   11    9   26        3       0.628   1.883   0.000  -2.510  -0.000   0.000
   25    8    7   22        3       0.628   1.883   0.000  -2.510  -0.000   0.000
   21    3    2   18        3       0.628   1.883   0.000  -2.510  -0.000   0.000
   28   10    9   26        3       0.628   1.883   0.000  -2.510  -0.000   0.000
   24    8    7   22        3       0.628   1.883   0.000  -2.510  -0.000   0.000
   18    2    1   16        3       0.628   1.883   0.000  -2.510  -0.000   0.000
   27   10    9   26        3       0.628   1.883   0.000  -2.510  -0.000   0.000
   24    8    7   23        3       0.628   1.883   0.000  -2.510  -0.000   0.000
   18    2    1   17        3       0.628   1.883   0.000  -2.510  -0.000   0.000
   25    8    7   23        3       0.628   1.883   0.000  -2.510  -0.000   0.000
   32   12   11   30        3       0.628   1.883   0.000  -2.510  -0.000   0.000
   19    2    1   16        3       0.628   1.883   0.000  -2.510  -0.000   0.000
   20    3    2   18        3       0.628   1.883   0.000  -2.510  -0.000   0.000
   18    2    1   15        3       0.628   1.883   0.000  -2.510  -0.000   0.000
   29   10    9   26        3       0.628   1.883   0.000  -2.510  -0.000   0.000
   33   12   11   30        3       0.628   1.883   0.000  -2.510  -0.000   0.000
   19    2    1   15        3       0.628   1.883   0.000  -2.510  -0.000   0.000
   18    2    3    4        3       0.946   2.837   0.000  -3.782  -0.000   0.000
   25    8    7    4        3       0.946   2.837   0.000  -3.782  -0.000   0.000
   24    8    7    4        3       0.946   2.837   0.000  -3.782  -0.000   0.000
   19    2    3    4        3       0.946   2.837   0.000  -3.782  -0.000   0.000
   30   11   13   14        3       0.000   0.000   0.000  -0.000  -0.000   0.000
   21    3    4    7        3       0.732   2.197   0.000  -2.929  -0.000   0.000
   22    7    4    3        3       0.732   2.197   0.000  -2.929  -0.000   0.000
   23    7    4    3        3       0.732   2.197   0.000  -2.929  -0.000   0.000
   20    3    4    7        3       0.732   2.197   0.000  -2.929  -0.000   0.000
   23    7    4    6        3       0.732   2.197   0.000  -2.929  -0.000   0.000
   22    7    4    5        3       0.732   2.197   0.000  -2.929  -0.000   0.000
   21    3    4    5        3       0.732   2.197   0.000  -2.929  -0.000   0.000
   20    3    4    6        3       0.732   2.197   0.000  -2.929  -0.000   0.000
   22    7    4    6        3       0.732   2.197   0.000  -2.929  -0.000   0.000
   23    7    4    5        3       0.732   2.197   0.000  -2.929  -0.000   0.000
   20    3    4    5        3       0.732   2.197   0.000  -2.929  -0.000   0.000
   21    3    4    6        3       0.732   2.197   0.000  -2.929  -0.000   0.000
   14   13   11   12        3       0.000   0.000   0.000  -0.000  -0.000   0.000
   14   13   11    9        3       0.000   0.000   0.000  -0.000  -0.000   0.000
    6    4    3    2        3       0.000   0.000   0.000  -0.000  -0.000   0.000
    5    4    3    2        3       0.000   0.000   0.000  -0.000  -0.000   0.000
    4    3    2    1        3       2.784   0.278   0.828  -3.891  -0.000   0.000

[ pairs ]
     1     4    1
     2     5    1
     2     6    1
     2     7    1
     3     8    1
     5     8    1
     4     9    1
     6     8    1
     7    10    1
     7    11    1
     3    15    1
     3    16    1
     8    12    1
     3    17    1
     8    13    1
     1    20    1
    10    12    1
     4    18    1
     1    21    1
    10    13    1
     9    14    1
     4    19    1
     5    20    1
     3    22    1
    12    14    1
     6    20    1
     5    21    1
     3    23    1
     7    20    1
     6    21    1
     5    22    1
     7    21    1
     6    22    1
     5    23    1
     4    24    1
     6    23    1
     4    25    1
     9    22    1
     9    23    1
    15    18    1
     7    26    1
    16    18    1
    15    19    1
    10    24    1
    17    18    1
    16    19    1
    11    24    1
    10    25    1
     8    27    1
    17    19    1
    11    25    1
     8    28    1
     8    29    1
    18    20    1
    12    26    1
    11    27    1
     8    30    1
    19    20    1
    18    21    1
    13    26    1
    11    28    1
    19    21    1
    11    29    1
    10    30    1
     9    31    1
     9    32    1
     9    33    1
    14    30    1
    13    31    1
    13    32    1
    22    24    1
    13    33    1
    23    24    1
    22    25    1
    23    25    1
    24    26    1
    25    26    1
    26    27    1
    26    28    1
    26    29    1
    26    30    1
    30    31    1
    30    32    1
    30    33    1

