LIGPARGEN GENERATED GRO FILE
   45
    1UNK    C00    1   0.100   0.100   0.000
    1UNK    C01    2  -0.052   0.100   0.000
    1UNK    C02    3  -0.114   0.100   0.141
    1UNK    C03    4  -0.080   0.227   0.219
    1UNK    O04    5  -0.257   0.094   0.129
    1UNK    C05    6  -0.308  -0.031   0.110
    1UNK    O06    7  -0.243  -0.134   0.103
    1UNK    O07    8  -0.444  -0.022   0.101
    1UNK    C08    9  -0.512  -0.147   0.075
    1UNK    C09   10  -0.533  -0.220   0.208
    1UNK    C0A   11  -0.628  -0.340   0.205
    1UNK    C0B   12  -0.773  -0.300   0.179
    1UNK    C0C   13  -0.815  -0.292   0.030
    1UNK    C0D   14  -0.944  -0.206   0.023
    1UNK    C0E   15  -0.856  -0.434  -0.018
    1UNK    N0F   16  -0.717  -0.226  -0.060
    1UNK    C0G   17  -0.633  -0.313  -0.142
    1UNK    C0H   18  -0.642  -0.113  -0.001
    1UNK    H0I   19   0.138   0.090  -0.102
    1UNK    H0J   20   0.139   0.017   0.059
    1UNK    H0K   21   0.140   0.193   0.040
    1UNK    H0M   22  -0.087   0.012  -0.055
    1UNK    H0N   23  -0.089   0.186  -0.057
    1UNK    H0O   24  -0.077   0.014   0.199
    1UNK    H0P   25  -0.111   0.316   0.164
    1UNK    H0Q   26   0.028   0.234   0.239
    1UNK    H0R   27  -0.133   0.228   0.314
    1UNK    H0S   28  -0.449  -0.208   0.010
    1UNK    H0T   29  -0.568  -0.148   0.284
    1UNK    H0U   30  -0.436  -0.254   0.245
    1UNK    H0V   31  -0.623  -0.387   0.305
    1UNK    H0W   32  -0.593  -0.417   0.135
    1UNK    H0X   33  -0.792  -0.204   0.230
    1UNK    H0Y   34  -0.837  -0.373   0.230
    1UNK    H0Z   35  -1.024  -0.250   0.084
    1UNK    H10   36  -0.982  -0.200  -0.080
    1UNK    H11   37  -0.928  -0.104   0.059
    1UNK    H12   38  -0.937  -0.474   0.045
    1UNK    H13   39  -0.773  -0.505  -0.012
    1UNK    H14   40  -0.894  -0.432  -0.121
    1UNK    H15   41  -0.693  -0.375  -0.209
    1UNK    H16   42  -0.569  -0.378  -0.082
    1UNK    H17   43  -0.569  -0.253  -0.208
    1UNK    H18   44  -0.707  -0.051   0.061
    1UNK    H19   45  -0.615  -0.046  -0.084
   1.00000   1.00000   1.00000

