
;
; GENERATED BY LigParGen Server
; Jorgensen Lab @ Yale University 
;
[ atomtypes ]
  opls_818  H818     1.0080     0.000    A    2.50000E-01   1.25520E-01
  opls_814  C814    12.0110     0.000    A    3.50000E-01   2.76144E-01
  opls_824  H824     1.0080     0.000    A    2.50000E-01   1.25520E-01
  opls_811  C811    12.0110     0.000    A    3.50000E-01   2.76144E-01
  opls_805  C805    12.0110     0.000    A    3.50000E-01   2.76144E-01
  opls_813  F813    18.9984     0.000    A    2.90000E-01   2.51040E-01
  opls_834  H834     1.0080     0.000    A    2.50000E-01   1.25520E-01
  opls_810  C810    12.0110     0.000    A    3.50000E-01   2.76144E-01
  opls_828  H828     1.0080     0.000    A    2.50000E-01   1.25520E-01
  opls_801  O801    15.9990     0.000    A    2.90000E-01   5.85760E-01
  opls_832  H832     1.0080     0.000    A    2.50000E-01   1.25520E-01
  opls_803  O803    15.9990     0.000    A    2.96000E-01   8.78640E-01
  opls_806  C806    12.0110     0.000    A    3.50000E-01   2.76144E-01
  opls_827  H827     1.0080     0.000    A    2.50000E-01   1.25520E-01
  opls_809  C809    12.0110     0.000    A    3.50000E-01   2.76144E-01
  opls_822  H822     1.0080     0.000    A    2.50000E-01   1.25520E-01
  opls_807  C807    12.0110     0.000    A    3.50000E-01   2.76144E-01
  opls_812  F812    18.9984     0.000    A    2.90000E-01   2.51040E-01
  opls_825  H825     1.0080     0.000    A    2.50000E-01   1.25520E-01
  opls_830  H830     1.0080     0.000    A    2.50000E-01   1.25520E-01
  opls_821  H821     1.0080     0.000    A    2.50000E-01   1.25520E-01
  opls_820  H820     1.0080     0.000    A    2.50000E-01   1.25520E-01
  opls_829  H829     1.0080     0.000    A    2.50000E-01   1.25520E-01
  opls_831  H831     1.0080     0.000    A    2.50000E-01   1.25520E-01
  opls_816  H816     1.0080     0.000    A    2.50000E-01   1.25520E-01
  opls_800  C800    12.0110     0.000    A    3.50000E-01   2.76144E-01
  opls_815  C815    12.0110     0.000    A    3.50000E-01   2.76144E-01
  opls_802  C802    12.0110     0.000    A    3.55000E-01   2.92880E-01
  opls_823  H823     1.0080     0.000    A    2.50000E-01   1.25520E-01
  opls_826  H826     1.0080     0.000    A    2.50000E-01   1.25520E-01
  opls_835  H835     1.0080     0.000    A    2.50000E-01   1.25520E-01
  opls_819  H819     1.0080     0.000    A    2.50000E-01   1.25520E-01
  opls_804  C804    12.0110     0.000    A    3.50000E-01   2.76144E-01
  opls_833  H833     1.0080     0.000    A    2.50000E-01   1.25520E-01
  opls_808  C808    12.0110     0.000    A    3.50000E-01   2.76144E-01
  opls_817  H817     1.0080     0.000    A    2.50000E-01   1.25520E-01
[ moleculetype ]
; Name               nrexcl
UNK                   3
[ atoms ]
;   nr       type  resnr residue  atom   cgnr     charge       mass  
     1   opls_800      1    UNK   C00      1    -0.0585    12.0110 
     2   opls_801      1    UNK   O01      1    -0.3531    15.9990 
     3   opls_802      1    UNK   C02      1     0.4409    12.0110 
     4   opls_803      1    UNK   O03      1    -0.4517    15.9990 
     5   opls_804      1    UNK   C04      1    -0.0421    12.0110 
     6   opls_805      1    UNK   C05      1    -0.2368    12.0110 
     7   opls_806      1    UNK   C06      1    -0.1617    12.0110 
     8   opls_807      1    UNK   C07      1    -0.1702    12.0110 
     9   opls_808      1    UNK   C08      1    -0.0403    12.0110 
    10   opls_809      1    UNK   C09      1    -0.2387    12.0110 
    11   opls_810      1    UNK   C0A      1    -0.2457    12.0110 
    12   opls_811      1    UNK   C0B      1     0.2414    12.0110 
    13   opls_812      1    UNK   F0C      1    -0.1854    18.9984 
    14   opls_813      1    UNK   F0D      1    -0.1854    18.9984 
    15   opls_814      1    UNK   C0E      1    -0.1757    12.0110 
    16   opls_815      1    UNK   C0F      1    -0.1641    12.0110 
    17   opls_816      1    UNK   H0G      1     0.1013     1.0080 
    18   opls_817      1    UNK   H0H      1     0.1013     1.0080 
    19   opls_818      1    UNK   H0I      1     0.1013     1.0080 
    20   opls_819      1    UNK   H0J      1     0.0966     1.0080 
    21   opls_820      1    UNK   H0K      1     0.0966     1.0080 
    22   opls_821      1    UNK   H0M      1     0.0966     1.0080 
    23   opls_822      1    UNK   H0N      1      0.103     1.0080 
    24   opls_823      1    UNK   H0O      1      0.103     1.0080 
    25   opls_824      1    UNK   H0P      1     0.0964     1.0080 
    26   opls_825      1    UNK   H0Q      1     0.0964     1.0080 
    27   opls_826      1    UNK   H0R      1     0.0857     1.0080 
    28   opls_827      1    UNK   H0S      1     0.0857     1.0080 
    29   opls_828      1    UNK   H0T      1     0.0857     1.0080 
    30   opls_829      1    UNK   H0U      1     0.1175     1.0080 
    31   opls_830      1    UNK   H0V      1     0.1175     1.0080 
    32   opls_831      1    UNK   H0W      1     0.1101     1.0080 
    33   opls_832      1    UNK   H0X      2     0.1052     1.0080 
    34   opls_833      1    UNK   H0Y      2     0.1052     1.0080 
    35   opls_834      1    UNK   H0Z      2     0.1112     1.0080 
    36   opls_835      1    UNK   H10      2     0.1112     1.0080 
[ bonds ]
    2     1     1      0.1410 267776.000
    3     2     1      0.1327 179075.200
    4     3     1      0.1229 476976.000
    5     3     1      0.1522 265265.600
    6     5     1      0.1529 224262.400
    7     5     1      0.1529 224262.400
    8     7     1      0.1529 224262.400
    9     8     1      0.1529 224262.400
   10     9     1      0.1529 224262.400
   11     9     1      0.1529 224262.400
   12    11     1      0.1529 224262.400
   13    12     1      0.1360 307105.600
   14    12     1      0.1360 307105.600
   15     9     1      0.1529 224262.400
   16     5     1      0.1529 224262.400
   17     1     1      0.1090 284512.000
   18     1     1      0.1090 284512.000
   19     1     1      0.1090 284512.000
   20     6     1      0.1090 284512.000
   21     6     1      0.1090 284512.000
   22     6     1      0.1090 284512.000
   23     7     1      0.1090 284512.000
   24     7     1      0.1090 284512.000
   25     8     1      0.1090 284512.000
   26     8     1      0.1090 284512.000
   27    10     1      0.1090 284512.000
   28    10     1      0.1090 284512.000
   29    10     1      0.1090 284512.000
   30    11     1      0.1090 284512.000
   31    11     1      0.1090 284512.000
   32    12     1      0.1090 284512.000
   33    15     1      0.1090 284512.000
   34    15     1      0.1090 284512.000
   35    16     1      0.1090 284512.000
   36    16     1      0.1090 284512.000
   16    15     1      0.1529 224262.400

[ angles ]
;  ai    aj    ak funct            c0            c1            c2            c3 
    1     2     3     1    116.900    694.544
    2     3     4     1    123.400    694.544
    2     3     5     1    111.400    677.808
    3     5     6     1    111.100    527.184
    3     5     7     1    111.100    527.184
    5     7     8     1    112.700    488.273
    7     8     9     1    112.700    488.273
    8     9    10     1    112.700    488.273
    8     9    11     1    112.700    488.273
    9    11    12     1    112.700    488.273
   11    12    13     1    109.500    418.400
   11    12    14     1    109.500    418.400
    8     9    15     1    112.700    488.273
    3     5    16     1    111.100    527.184
    2     1    17     1    109.500    292.880
    2     1    18     1    109.500    292.880
    2     1    19     1    109.500    292.880
    5     6    20     1    110.700    313.800
    5     6    21     1    110.700    313.800
    5     6    22     1    110.700    313.800
    5     7    23     1    110.700    313.800
    5     7    24     1    110.700    313.800
    7     8    25     1    110.700    313.800
    7     8    26     1    110.700    313.800
    9    10    27     1    110.700    313.800
    9    10    28     1    110.700    313.800
    9    10    29     1    110.700    313.800
    9    11    30     1    110.700    313.800
    9    11    31     1    110.700    313.800
   11    12    32     1    110.700    313.800
    9    15    33     1    110.700    313.800
    9    15    34     1    110.700    313.800
    5    16    35     1    110.700    313.800
    5    16    36     1    110.700    313.800
   23     7    24     1    107.800    276.144
   12    11    31     1    110.700    313.800
   21     6    22     1    107.800    276.144
   14    12    32     1    107.000    334.720
    9     8    25     1    110.700    313.800
   30    11    31     1    107.800    276.144
   13    12    14     1    109.100    644.336
   20     6    22     1    107.800    276.144
    5    16    15     1    112.700    488.273
   17     1    18     1    107.800    276.144
   10     9    11     1    112.700    488.273
   28    10    29     1    107.800    276.144
   12    11    30     1    110.700    313.800
    4     3     5     1    120.400    669.440
   35    16    36     1    107.800    276.144
    8     7    23     1    110.700    313.800
   16    15    34     1    110.700    313.800
   10     9    15     1    112.700    488.273
   33    15    34     1    107.800    276.144
    6     5     7     1    112.700    488.273
   15    16    35     1    110.700    313.800
   25     8    26     1    107.800    276.144
   17     1    19     1    107.800    276.144
    6     5    16     1    112.700    488.273
   15    16    36     1    110.700    313.800
   16    15    33     1    110.700    313.800
    9     8    26     1    110.700    313.800
   20     6    21     1    107.800    276.144
    7     5    16     1    112.700    488.273
   11     9    15     1    112.700    488.273
   13    12    32     1    107.000    334.720
   18     1    19     1    107.800    276.144
    9    15    16     1    112.700    488.273
    8     7    24     1    110.700    313.800
   27    10    29     1    107.800    276.144
   27    10    28     1    107.800    276.144

[ dihedrals ]
; IMPROPER DIHEDRAL ANGLES 
;  ai    aj    ak    al funct            c0            c1            c2            c3            c4            c5
     5     3     2     4    4        180.000     43.932     2  

[ dihedrals ]
; PROPER DIHEDRAL ANGLES
;  ai    aj    ak    al funct            c0            c1            c2            c3            c4            c5
   12   11    9    8        3       2.301  -1.464   0.837  -1.674  -0.000   0.000
   12   11    9   10        3       2.301  -1.464   0.837  -1.674  -0.000   0.000
    5    3    2    1        3      31.206  -9.768  -21.439  -0.000  -0.000   0.000
    6    5    3    4        3       0.000   0.000   0.000  -0.000  -0.000   0.000
    7    5    3    4        3       0.000   0.000   0.000  -0.000  -0.000   0.000
   16    5    3    4        3       0.000   0.000   0.000  -0.000  -0.000   0.000
    6    5    3    2        3      -1.157  -3.471   0.000   4.628  -0.000   0.000
   16    5    3    2        3      -1.157  -3.471   0.000   4.628  -0.000   0.000
    7    5    3    2        3      -1.157  -3.471   0.000   4.628  -0.000   0.000
    8    7    5    3        3      -4.960   6.286   1.310  -2.636  -0.000   0.000
   15   16    5    3        3      -4.960   6.286   1.310  -2.636  -0.000   0.000
   15    9   11   12        3       2.301  -1.464   0.837  -1.674  -0.000   0.000
   15   16    5    7        3       2.301  -1.464   0.837  -1.674  -0.000   0.000
   16   15    9    8        3       2.301  -1.464   0.837  -1.674  -0.000   0.000
   15    9    8    7        3       2.301  -1.464   0.837  -1.674  -0.000   0.000
    9   15   16    5        3       2.301  -1.464   0.837  -1.674  -0.000   0.000
    8    7    5    6        3       2.301  -1.464   0.837  -1.674  -0.000   0.000
   11    9    8    7        3       2.301  -1.464   0.837  -1.674  -0.000   0.000
   16    5    7    8        3       2.301  -1.464   0.837  -1.674  -0.000   0.000
   16   15    9   11        3       2.301  -1.464   0.837  -1.674  -0.000   0.000
   10    9    8    7        3       2.301  -1.464   0.837  -1.674  -0.000   0.000
    9    8    7    5        3       2.301  -1.464   0.837  -1.674  -0.000   0.000
   16   15    9   10        3       2.301  -1.464   0.837  -1.674  -0.000   0.000
   15   16    5    6        3       2.301  -1.464   0.837  -1.674  -0.000   0.000
   14   12   11    9        3       0.000   0.000   0.000  -0.000  -0.000   0.000
   13   12   11    9        3       0.000   0.000   0.000  -0.000  -0.000   0.000
   32   12   11    9        3       0.628   1.883   0.000  -2.510  -0.000   0.000
   32   12   11   31        3       0.628   1.883   0.000  -2.510  -0.000   0.000
   32   12   11   30        3       0.628   1.883   0.000  -2.510  -0.000   0.000
   30   11   12   13        3       0.753   2.259   0.000  -3.012  -0.000   0.000
   31   11   12   13        3       0.753   2.259   0.000  -3.012  -0.000   0.000
   30   11   12   14        3       0.753   2.259   0.000  -3.012  -0.000   0.000
   31   11   12   14        3       0.753   2.259   0.000  -3.012  -0.000   0.000
   35   16    5    3        3      -0.209  -0.628   0.000   0.837  -0.000   0.000
   22    6    5    3        3      -0.209  -0.628   0.000   0.837  -0.000   0.000
   21    6    5    3        3      -0.209  -0.628   0.000   0.837  -0.000   0.000
   36   16    5    3        3      -0.209  -0.628   0.000   0.837  -0.000   0.000
   23    7    5    3        3      -0.209  -0.628   0.000   0.837  -0.000   0.000
   20    6    5    3        3      -0.209  -0.628   0.000   0.837  -0.000   0.000
   24    7    5    3        3      -0.209  -0.628   0.000   0.837  -0.000   0.000
   33   15   16    5        3       0.628   1.883   0.000  -2.510  -0.000   0.000
   21    6    5   16        3       0.628   1.883   0.000  -2.510  -0.000   0.000
   26    8    9   11        3       0.628   1.883   0.000  -2.510  -0.000   0.000
   20    6    5   16        3       0.628   1.883   0.000  -2.510  -0.000   0.000
   27   10    9   15        3       0.628   1.883   0.000  -2.510  -0.000   0.000
   36   16    5    6        3       0.628   1.883   0.000  -2.510  -0.000   0.000
   33   15    9   10        3       0.628   1.883   0.000  -2.510  -0.000   0.000
   34   15    9   10        3       0.628   1.883   0.000  -2.510  -0.000   0.000
   30   11    9    8        3       0.628   1.883   0.000  -2.510  -0.000   0.000
   35   16   15    9        3       0.628   1.883   0.000  -2.510  -0.000   0.000
   35   16    5    6        3       0.628   1.883   0.000  -2.510  -0.000   0.000
   25    8    7    5        3       0.628   1.883   0.000  -2.510  -0.000   0.000
   23    7    8    9        3       0.628   1.883   0.000  -2.510  -0.000   0.000
   23    7    5    6        3       0.628   1.883   0.000  -2.510  -0.000   0.000
   27   10    9   11        3       0.628   1.883   0.000  -2.510  -0.000   0.000
   29   10    9   15        3       0.628   1.883   0.000  -2.510  -0.000   0.000
   31   11    9    8        3       0.628   1.883   0.000  -2.510  -0.000   0.000
   24    7    5   16        3       0.628   1.883   0.000  -2.510  -0.000   0.000
   34   15   16    5        3       0.628   1.883   0.000  -2.510  -0.000   0.000
   25    8    9   10        3       0.628   1.883   0.000  -2.510  -0.000   0.000
   31   11    9   10        3       0.628   1.883   0.000  -2.510  -0.000   0.000
   22    6    5    7        3       0.628   1.883   0.000  -2.510  -0.000   0.000
   33   15    9   11        3       0.628   1.883   0.000  -2.510  -0.000   0.000
   35   16    5    7        3       0.628   1.883   0.000  -2.510  -0.000   0.000
   21    6    5    7        3       0.628   1.883   0.000  -2.510  -0.000   0.000
   28   10    9   11        3       0.628   1.883   0.000  -2.510  -0.000   0.000
   30   11    9   10        3       0.628   1.883   0.000  -2.510  -0.000   0.000
   25    8    9   15        3       0.628   1.883   0.000  -2.510  -0.000   0.000
   28   10    9   15        3       0.628   1.883   0.000  -2.510  -0.000   0.000
   34   15    9   11        3       0.628   1.883   0.000  -2.510  -0.000   0.000
   33   15    9    8        3       0.628   1.883   0.000  -2.510  -0.000   0.000
   26    8    7    5        3       0.628   1.883   0.000  -2.510  -0.000   0.000
   27   10    9    8        3       0.628   1.883   0.000  -2.510  -0.000   0.000
   24    7    5    6        3       0.628   1.883   0.000  -2.510  -0.000   0.000
   34   15    9    8        3       0.628   1.883   0.000  -2.510  -0.000   0.000
   23    7    5   16        3       0.628   1.883   0.000  -2.510  -0.000   0.000
   22    6    5   16        3       0.628   1.883   0.000  -2.510  -0.000   0.000
   26    8    9   10        3       0.628   1.883   0.000  -2.510  -0.000   0.000
   29   10    9   11        3       0.628   1.883   0.000  -2.510  -0.000   0.000
   29   10    9    8        3       0.628   1.883   0.000  -2.510  -0.000   0.000
   24    7    8    9        3       0.628   1.883   0.000  -2.510  -0.000   0.000
   25    8    9   11        3       0.628   1.883   0.000  -2.510  -0.000   0.000
   20    6    5    7        3       0.628   1.883   0.000  -2.510  -0.000   0.000
   28   10    9    8        3       0.628   1.883   0.000  -2.510  -0.000   0.000
   31   11    9   15        3       0.628   1.883   0.000  -2.510  -0.000   0.000
   36   16    5    7        3       0.628   1.883   0.000  -2.510  -0.000   0.000
   36   16   15    9        3       0.628   1.883   0.000  -2.510  -0.000   0.000
   30   11    9   15        3       0.628   1.883   0.000  -2.510  -0.000   0.000
   26    8    9   15        3       0.628   1.883   0.000  -2.510  -0.000   0.000
   35   16   15   34        3       0.628   1.883   0.000  -2.510  -0.000   0.000
   36   16   15   33        3       0.628   1.883   0.000  -2.510  -0.000   0.000
   36   16   15   34        3       0.628   1.883   0.000  -2.510  -0.000   0.000
   25    8    7   24        3       0.628   1.883   0.000  -2.510  -0.000   0.000
   26    8    7   24        3       0.628   1.883   0.000  -2.510  -0.000   0.000
   25    8    7   23        3       0.628   1.883   0.000  -2.510  -0.000   0.000
   35   16   15   33        3       0.628   1.883   0.000  -2.510  -0.000   0.000
   26    8    7   23        3       0.628   1.883   0.000  -2.510  -0.000   0.000
   18    1    2    3        3       0.414   1.243   0.000  -1.657  -0.000   0.000
   17    1    2    3        3       0.414   1.243   0.000  -1.657  -0.000   0.000
   19    1    2    3        3       0.414   1.243   0.000  -1.657  -0.000   0.000
    4    3    2    1        3      21.439   0.000  -21.439  -0.000  -0.000   0.000

[ pairs ]
     1     4    1
     1     5    1
     2     6    1
     2     7    1
     4     6    1
     4     7    1
     3     8    1
     6     8    1
     5     9    1
     7    10    1
     7    11    1
     3    15    1
     2    16    1
     8    12    1
     4    16    1
     3    17    1
     6    15    1
     3    18    1
    10    12    1
     9    13    1
     7    15    1
     3    19    1
     9    14    1
     3    20    1
     8    16    1
     3    21    1
     3    22    1
    10    16    1
     3    23    1
    12    15    1
    11    16    1
     7    20    1
     3    24    1
     7    21    1
     7    22    1
     6    23    1
     6    24    1
     5    25    1
     5    26    1
     9    23    1
     9    24    1
    10    25    1
     8    27    1
    16    20    1
    11    25    1
    10    26    1
     8    28    1
    16    21    1
    11    26    1
     8    29    1
    16    22    1
    11    27    1
     8    30    1
     5    33    1
     3    35    1
    16    23    1
    11    28    1
     8    31    1
     5    34    1
     3    36    1
    16    24    1
    15    25    1
    11    29    1
    10    30    1
    15    26    1
    10    31    1
     9    32    1
     8    33    1
     6    35    1
    15    27    1
     8    34    1
     7    35    1
     6    36    1
    15    28    1
    13    30    1
    10    33    1
     7    36    1
    15    29    1
    14    30    1
    13    31    1
    11    33    1
    10    34    1
     9    35    1
    15    30    1
    14    31    1
    11    34    1
     9    36    1
    15    31    1
    23    25    1
    24    25    1
    23    26    1
    24    26    1
    30    32    1
    31    32    1
    33    35    1
    34    35    1
    33    36    1
    34    36    1

