LIGPARGEN GENERATED GRO FILE
   36
    1UNK    C00    1   0.100   0.100   0.000
    1UNK    O01    2  -0.043   0.100   0.000
    1UNK    C02    3  -0.098   0.100   0.124
    1UNK    O03    4  -0.033   0.104   0.228
    1UNK    C04    5  -0.252   0.100   0.119
    1UNK    C05    6  -0.295   0.248   0.114
    1UNK    C06    7  -0.308   0.027  -0.005
    1UNK    C07    8  -0.288  -0.125   0.001
    1UNK    C08    9  -0.344  -0.190   0.131
    1UNK    C09   10  -0.298  -0.337   0.134
    1UNK    C0A   11  -0.500  -0.185   0.128
    1UNK    C0B   12  -0.573  -0.244   0.247
    1UNK    F0C   13  -0.546  -0.174   0.359
    1UNK    F0D   14  -0.707  -0.232   0.226
    1UNK    C0E   15  -0.283  -0.116   0.252
    1UNK    C0F   16  -0.307   0.035   0.248
    1UNK    H0G   17   0.134   0.108  -0.103
    1UNK    H0H   18   0.138   0.006   0.042
    1UNK    H0I   19   0.139   0.186   0.056
    1UNK    H0J   20  -0.257   0.297   0.023
    1UNK    H0K   21  -0.256   0.304   0.200
    1UNK    H0M   22  -0.404   0.257   0.114
    1UNK    H0N   23  -0.262   0.064  -0.097
    1UNK    H0O   24  -0.415   0.048  -0.015
    1UNK    H0P   25  -0.180  -0.147  -0.007
    1UNK    H0Q   26  -0.335  -0.171  -0.087
    1UNK    H0R   27  -0.340  -0.394   0.050
    1UNK    H0S   28  -0.327  -0.387   0.227
    1UNK    H0T   29  -0.189  -0.344   0.127
    1UNK    H0U   30  -0.536  -0.236   0.037
    1UNK    H0V   31  -0.534  -0.081   0.117
    1UNK    H0W   32  -0.550  -0.350   0.264
    1UNK    H0X   33  -0.175  -0.134   0.254
    1UNK    H0Y   34  -0.321  -0.157   0.346
    1UNK    H0Z   35  -0.261   0.080   0.337
    1UNK    H10   36  -0.415   0.055   0.257
   1.00000   1.00000   1.00000

