LIGPARGEN GENERATED GRO FILE
   43
    1UNK    C00    1   0.100   0.100   0.000
    1UNK    C01    2  -0.052   0.100   0.000
    1UNK    C02    3  -0.126   0.100   0.137
    1UNK    C03    4  -0.280   0.110   0.106
    1UNK    C04    5  -0.338  -0.008   0.027
    1UNK    C05    6  -0.487   0.022   0.027
    1UNK    C06    7  -0.514   0.068   0.170
    1UNK    C07    8  -0.382   0.130   0.221
    1UNK    C08    9  -0.400   0.274   0.274
    1UNK    C09   10  -0.449   0.374   0.169
    1UNK    O0A   11  -0.495   0.265   0.382
    1UNK    C0B   12  -0.515   0.386   0.455
    1UNK    S0C   13  -0.079  -0.042   0.242
    1UNK    O0D   14  -0.160  -0.038   0.363
    1UNK    O0E   15  -0.079  -0.161   0.159
    1UNK    C0F   16   0.089  -0.019   0.298
    1UNK    C0G   17   0.115   0.112   0.369
    1UNK    H0H   18   0.137   0.132  -0.098
    1UNK    H0I   19   0.139  -0.001   0.015
    1UNK    H0J   20   0.141   0.168   0.075
    1UNK    H0K   21  -0.083   0.014  -0.060
    1UNK    H0M   22  -0.083   0.190  -0.055
    1UNK    H0N   23  -0.098   0.190   0.193
    1UNK    H0O   24  -0.289   0.197   0.040
    1UNK    H0P   25  -0.320  -0.104   0.076
    1UNK    H0Q   26  -0.301  -0.013  -0.076
    1UNK    H0R   27  -0.548  -0.065  -0.001
    1UNK    H0S   28  -0.510   0.103  -0.043
    1UNK    H0T   29  -0.540  -0.019   0.232
    1UNK    H0U   30  -0.600   0.135   0.174
    1UNK    H0V   31  -0.354   0.069   0.308
    1UNK    H0W   32  -0.304   0.308   0.315
    1UNK    H0X   33  -0.551   0.353   0.138
    1UNK    H0Y   34  -0.385   0.376   0.080
    1UNK    H0Z   35  -0.449   0.476   0.209
    1UNK    H10   36  -0.575   0.362   0.543
    1UNK    H11   37  -0.572   0.457   0.395
    1UNK    H12   38  -0.420   0.429   0.487
    1UNK    H13   39   0.157  -0.032   0.215
    1UNK    H14   40   0.109  -0.102   0.367
    1UNK    H15   41   0.085   0.199   0.310
    1UNK    H16   42   0.222   0.122   0.391
    1UNK    H17   43   0.061   0.116   0.465
   1.00000   1.00000   1.00000

