
;
; GENERATED BY LigParGen Server
; Jorgensen Lab @ Yale University 
;
[ atomtypes ]
  opls_807  O807    15.9990     0.000    A    2.96000E-01   8.78640E-01
  opls_824  H824     1.0080     0.000    A    2.50000E-01   1.25520E-01
  opls_805  C805    12.0110     0.000    A    3.50000E-01   2.76144E-01
  opls_818  C818    12.0110     0.000    A    3.50000E-01   2.76144E-01
  opls_843  H843     1.0080     0.000    A    2.50000E-01   1.25520E-01
  opls_836  H836     1.0080     0.000    A    2.50000E-01   1.25520E-01
  opls_834  H834     1.0080     0.000    A    2.50000E-01   1.25520E-01
  opls_828  H828     1.0080     0.000    A    2.50000E-01   1.25520E-01
  opls_812  O812    15.9990     0.000    A    2.90000E-01   5.85760E-01
  opls_804  N804    14.0070     0.000    A    3.25000E-01   7.11280E-01
  opls_815  O815    15.9990     0.000    A    2.90000E-01   5.85760E-01
  opls_802  C802    12.0110     0.000    A    3.50000E-01   2.76144E-01
  opls_827  H827     1.0080     0.000    A    2.50000E-01   1.25520E-01
  opls_809  C809    12.0110     0.000    A    3.50000E-01   2.76144E-01
  opls_838  H838     1.0080     0.000    A    2.50000E-01   1.25520E-01
  opls_822  H822     1.0080     0.000    A    2.50000E-01   1.25520E-01
  opls_803  C803    12.0110     0.000    A    3.50000E-01   2.76144E-01
  opls_830  H830     1.0080     0.000    A    2.50000E-01   1.25520E-01
  opls_810  C810    12.0110     0.000    A    3.50000E-01   2.76144E-01
  opls_842  H842     1.0080     0.000    A    2.50000E-01   1.25520E-01
  opls_820  H820     1.0080     0.000    A    2.50000E-01   1.25520E-01
  opls_817  N817    14.0070     0.000    A    3.30000E-01   7.11280E-01
  opls_837  H837     1.0080     0.000    A    2.50000E-01   1.25520E-01
  opls_813  C813    12.0110     0.000    A    3.55000E-01   2.92880E-01
  opls_821  H821     1.0080     0.000    A    2.50000E-01   1.25520E-01
  opls_831  H831     1.0080     0.000    A    2.50000E-01   1.25520E-01
  opls_832  H832     1.0080     0.000    A    2.50000E-01   1.25520E-01
  opls_800  C800    12.0110     0.000    A    3.50000E-01   2.76144E-01
  opls_846  H846     1.0080     0.000    A    2.50000E-01   1.25520E-01
  opls_811  C811    12.0110     0.000    A    3.50000E-01   2.76144E-01
  opls_806  C806    12.0110     0.000    A    3.55000E-01   2.92880E-01
  opls_823  H823     1.0080     0.000    A    2.50000E-01   1.25520E-01
  opls_819  C819    12.0110     0.000    A    3.50000E-01   2.76144E-01
  opls_826  H826     1.0080     0.000    A    2.50000E-01   1.25520E-01
  opls_835  H835     1.0080     0.000    A    2.50000E-01   1.25520E-01
  opls_841  H841     1.0080     0.000    A    2.50000E-01   1.25520E-01
  opls_847  H847     1.0080     0.000    A    2.50000E-01   1.25520E-01
  opls_825  H825     1.0080     0.000    A    2.50000E-01   1.25520E-01
  opls_816  C816    12.0110     0.000    A    3.50000E-01   2.76144E-01
  opls_833  H833     1.0080     0.000    A    2.50000E-01   1.25520E-01
  opls_839  H839     1.0080     0.000    A    2.50000E-01   1.25520E-01
  opls_801  C801    12.0110     0.000    A    3.50000E-01   2.76144E-01
  opls_808  C808    12.0110     0.000    A    3.50000E-01   2.76144E-01
  opls_840  H840     1.0080     0.000    A    2.50000E-01   1.25520E-01
  opls_814  O814    15.9990     0.000    A    2.96000E-01   8.78640E-01
  opls_829  H829     1.0080     0.000    A    2.50000E-01   1.25520E-01
  opls_844  H844     1.0080     0.000    A    2.50000E-01   1.25520E-01
  opls_845  H845     1.0080     0.000    A    2.50000E-01   1.25520E-01
[ moleculetype ]
; Name               nrexcl
UNK                   3
[ atoms ]
;   nr       type  resnr residue  atom   cgnr     charge       mass  
     1   opls_800      1    UNK   C00      1    -0.2403    12.0110 
     2   opls_801      1    UNK   C01      1    -0.1803    12.0110 
     3   opls_802      1    UNK   C02      1     0.0737    12.0110 
     4   opls_803      1    UNK   C03      1     0.1375    12.0110 
     5   opls_804      1    UNK   N04      1    -0.9026    14.0070 
     6   opls_805      1    UNK   C05      1     0.0839    12.0110 
     7   opls_806      1    UNK   C06      1     0.5947    12.0110 
     8   opls_807      1    UNK   O07      1    -0.4611    15.9990 
     9   opls_808      1    UNK   C08      1    -0.1208    12.0110 
    10   opls_809      1    UNK   C09      1    -0.2337    12.0110 
    11   opls_810      1    UNK   C0A      1    -0.1969    12.0110 
    12   opls_811      1    UNK   C0B      1     0.0171    12.0110 
    13   opls_812      1    UNK   O0C      1    -0.3165    15.9990 
    14   opls_813      1    UNK   C0D      1     0.5652    12.0110 
    15   opls_814      1    UNK   O0E      1    -0.5042    15.9990 
    16   opls_815      1    UNK   O0F      1    -0.3135    15.9990 
    17   opls_816      1    UNK   C0G      1    -0.0452    12.0110 
    18   opls_817      1    UNK   N0H      1     -0.552    14.0070 
    19   opls_818      1    UNK   C0I      1    -0.0599    12.0110 
    20   opls_819      1    UNK   C0J      1    -0.0774    12.0110 
    21   opls_820      1    UNK   H0K      1     0.0802     1.0080 
    22   opls_821      1    UNK   H0M      1     0.0802     1.0080 
    23   opls_822      1    UNK   H0N      1     0.0802     1.0080 
    24   opls_823      1    UNK   H0O      1     0.0981     1.0080 
    25   opls_824      1    UNK   H0P      1     0.0981     1.0080 
    26   opls_825      1    UNK   H0Q      1     0.0732     1.0080 
    27   opls_826      1    UNK   H0R      1     0.1087     1.0080 
    28   opls_827      1    UNK   H0S      1     0.1087     1.0080 
    29   opls_828      1    UNK   H0T      1     0.0893     1.0080 
    30   opls_829      1    UNK   H0U      1     0.0893     1.0080 
    31   opls_830      1    UNK   H0V      1     0.0893     1.0080 
    32   opls_831      1    UNK   H0W      1     0.1198     1.0080 
    33   opls_832      1    UNK   H0X      2     0.0952     1.0080 
    34   opls_833      1    UNK   H0Y      2     0.0952     1.0080 
    35   opls_834      1    UNK   H0Z      2     0.0952     1.0080 
    36   opls_835      1    UNK   H10      2      0.116     1.0080 
    37   opls_836      1    UNK   H11      2      0.116     1.0080 
    38   opls_837      1    UNK   H12      2     0.1322     1.0080 
    39   opls_838      1    UNK   H13      2     0.1322     1.0080 
    40   opls_839      1    UNK   H14      2     0.1063     1.0080 
    41   opls_840      1    UNK   H15      2     0.1063     1.0080 
    42   opls_841      1    UNK   H16      2     0.1063     1.0080 
    43   opls_842      1    UNK   H17      2     0.0804     1.0080 
    44   opls_843      1    UNK   H18      2     0.0804     1.0080 
    45   opls_844      1    UNK   H19      2     0.0804     1.0080 
    46   opls_845      1    UNK   H1A      2     0.0917     1.0080 
    47   opls_846      1    UNK   H1B      2     0.0917     1.0080 
    48   opls_847      1    UNK   H1C      2     0.0917     1.0080 
[ bonds ]
    2     1     1      0.1529 224262.400
    3     2     1      0.1529 224262.400
    4     3     1      0.1529 224262.400
    5     4     1      0.1449 282001.600
    6     5     1      0.1449 282001.600
    7     5     1      0.1335 410032.000
    8     7     1      0.1229 476976.000
    9     7     1      0.1522 265265.600
   10     9     1      0.1529 224262.400
   11     9     1      0.1529 224262.400
   12    11     1      0.1529 224262.400
   13    12     1      0.1410 267776.000
   14    13     1      0.1327 179075.200
   15    14     1      0.1229 476976.000
   16    14     1      0.1327 179075.200
   17    16     1      0.1410 267776.000
   18     3     1      0.1448 319657.600
   19    18     1      0.1448 319657.600
   20    18     1      0.1448 319657.600
   21     1     1      0.1090 284512.000
   22     1     1      0.1090 284512.000
   23     1     1      0.1090 284512.000
   24     2     1      0.1090 284512.000
   25     2     1      0.1090 284512.000
   26     3     1      0.1090 284512.000
   27     4     1      0.1090 284512.000
   28     4     1      0.1090 284512.000
   29     6     1      0.1090 284512.000
   30     6     1      0.1090 284512.000
   31     6     1      0.1090 284512.000
   32     9     1      0.1090 284512.000
   33    10     1      0.1090 284512.000
   34    10     1      0.1090 284512.000
   35    10     1      0.1090 284512.000
   36    11     1      0.1090 284512.000
   37    11     1      0.1090 284512.000
   38    12     1      0.1090 284512.000
   39    12     1      0.1090 284512.000
   40    17     1      0.1090 284512.000
   41    17     1      0.1090 284512.000
   42    17     1      0.1090 284512.000
   43    19     1      0.1090 284512.000
   44    19     1      0.1090 284512.000
   45    19     1      0.1090 284512.000
   46    20     1      0.1090 284512.000
   47    20     1      0.1090 284512.000
   48    20     1      0.1090 284512.000

[ angles ]
;  ai    aj    ak funct            c0            c1            c2            c3 
    1     2     3     1    112.700    488.273
    2     3     4     1    112.700    488.273
    3     4     5     1    109.700    669.440
    4     5     6     1    118.000    418.400
    4     5     7     1    121.900    418.400
    5     7     8     1    122.900    669.440
    5     7     9     1    116.600    585.760
    7     9    10     1    111.100    527.184
    7     9    11     1    111.100    527.184
    9    11    12     1    112.700    488.273
   11    12    13     1    109.500    418.400
   12    13    14     1    116.900    694.544
   13    14    15     1    123.400    694.544
   13    14    16     1    118.180    584.923
   14    16    17     1    116.900    694.544
    2     3    18     1    109.470    470.282
    3    18    19     1    107.200    433.462
    3    18    20     1    107.200    433.462
    2     1    21     1    110.700    313.800
    2     1    22     1    110.700    313.800
    2     1    23     1    110.700    313.800
    1     2    24     1    110.700    313.800
    1     2    25     1    110.700    313.800
    2     3    26     1    110.700    313.800
    3     4    27     1    110.700    313.800
    3     4    28     1    110.700    313.800
    5     6    29     1    109.500    292.880
    5     6    30     1    109.500    292.880
    5     6    31     1    109.500    292.880
    7     9    32     1    109.500    292.880
    9    10    33     1    110.700    313.800
    9    10    34     1    110.700    313.800
    9    10    35     1    110.700    313.800
    9    11    36     1    110.700    313.800
    9    11    37     1    110.700    313.800
   11    12    38     1    110.700    313.800
   11    12    39     1    110.700    313.800
   16    17    40     1    109.500    292.880
   16    17    41     1    109.500    292.880
   16    17    42     1    109.500    292.880
   18    19    43     1    109.500    292.880
   18    19    44     1    109.500    292.880
   18    19    45     1    109.500    292.880
   18    20    46     1    109.500    292.880
   18    20    47     1    109.500    292.880
   18    20    48     1    109.500    292.880
   46    20    48     1    107.800    276.144
   12    11    37     1    110.700    313.800
   29     6    30     1    107.800    276.144
   13    12    38     1    109.500    292.880
   33    10    35     1    107.800    276.144
   27     4    28     1    107.800    276.144
   34    10    35     1    107.800    276.144
    5     4    27     1    109.500    292.880
   21     1    23     1    107.800    276.144
   18     3    26     1    109.500    292.880
    3     2    25     1    110.700    313.800
   15    14    16     1    123.400    694.544
    5     4    28     1    109.500    292.880
   47    20    48     1    107.800    276.144
    8     7     9     1    120.400    669.440
   40    17    42     1    107.800    276.144
    6     5     7     1    121.900    418.400
   36    11    37     1    107.800    276.144
   41    17    42     1    107.800    276.144
   10     9    32     1    110.700    313.800
   43    19    44     1    107.800    276.144
   13    12    39     1    109.500    292.880
   12    11    36     1    110.700    313.800
   29     6    31     1    107.800    276.144
   24     2    25     1    107.800    276.144
   40    17    41     1    107.800    276.144
   21     1    22     1    107.800    276.144
   46    20    47     1    107.800    276.144
   19    18    20     1    107.200    433.462
    4     3    26     1    110.700    313.800
   11     9    32     1    110.700    313.800
   43    19    45     1    107.800    276.144
   30     6    31     1    107.800    276.144
   22     1    23     1    107.800    276.144
    4     3    18     1    109.470    470.282
   38    12    39     1    107.800    276.144
   10     9    11     1    112.700    488.273
   33    10    34     1    107.800    276.144
    3     2    24     1    110.700    313.800
   44    19    45     1    107.800    276.144

[ dihedrals ]
; IMPROPER DIHEDRAL ANGLES 
;  ai    aj    ak    al funct            c0            c1            c2            c3            c4            c5
     7     5     4     6    4        180.000     10.460     2  
     9     7     5     8    4        180.000     43.932     2  
    16    14    13    15    4        180.000     43.932     2  

[ dihedrals ]
; PROPER DIHEDRAL ANGLES
;  ai    aj    ak    al funct            c0            c1            c2            c3            c4            c5
    7    5    4    3        3       1.933   0.000  -1.933  -0.000  -0.000   0.000
   14   13   12   11        3      -2.197   5.201   0.527  -3.531  -0.000   0.000
    9    7    5    6        3      30.288  -4.812  -25.476  -0.000  -0.000   0.000
    9    7    5    4        3      30.288  -4.812  -25.476  -0.000  -0.000   0.000
   10    9    7    5        3       0.734  -9.985  -0.791  10.042  -0.000   0.000
   11    9    7    5        3       0.734  -9.985  -0.791  10.042  -0.000   0.000
   10    9    7    8        3       0.000   0.000   0.000  -0.000  -0.000   0.000
   11    9    7    8        3       0.000   0.000   0.000  -0.000  -0.000   0.000
   12   11    9    7        3      -4.960   6.286   1.310  -2.636  -0.000   0.000
    4    3    2    1        3       2.301  -1.464   0.837  -1.674  -0.000   0.000
   12   11    9   10        3       2.301  -1.464   0.837  -1.674  -0.000   0.000
    6    5    4    3        3       6.872  -9.943   3.071  -0.000  -0.000   0.000
   19   18    3    4        3       1.789   3.492   0.536  -5.816  -0.000   0.000
   19   18    3    2        3       1.789   3.492   0.536  -5.816  -0.000   0.000
   20   18    3    2        3       1.789   3.492   0.536  -5.816  -0.000   0.000
   20   18    3    4        3       1.789   3.492   0.536  -5.816  -0.000   0.000
   17   16   14   15        3      21.439   0.000  -21.439  -0.000  -0.000   0.000
   17   16   14   13        3      31.206  -9.768  -21.439  -0.000  -0.000   0.000
   32    9    7    5        3       0.000   0.000   0.000  -0.000  -0.000   0.000
   32    9    7    8        3       0.000   0.000   0.000  -0.000  -0.000   0.000
   34   10    9    7        3      -0.209  -0.628   0.000   0.837  -0.000   0.000
   35   10    9    7        3      -0.209  -0.628   0.000   0.837  -0.000   0.000
   33   10    9    7        3      -0.209  -0.628   0.000   0.837  -0.000   0.000
   36   11    9    7        3      -0.209  -0.628   0.000   0.837  -0.000   0.000
   37   11    9    7        3      -0.209  -0.628   0.000   0.837  -0.000   0.000
   27    4    3    2        3       0.628   1.883   0.000  -2.510  -0.000   0.000
   23    1    2    3        3       0.628   1.883   0.000  -2.510  -0.000   0.000
   26    3    2    1        3       0.628   1.883   0.000  -2.510  -0.000   0.000
   37   11    9   10        3       0.628   1.883   0.000  -2.510  -0.000   0.000
   32    9   11   12        3       0.628   1.883   0.000  -2.510  -0.000   0.000
   25    2    3    4        3       0.628   1.883   0.000  -2.510  -0.000   0.000
   36   11    9   10        3       0.628   1.883   0.000  -2.510  -0.000   0.000
   22    1    2    3        3       0.628   1.883   0.000  -2.510  -0.000   0.000
   34   10    9   11        3       0.628   1.883   0.000  -2.510  -0.000   0.000
   28    4    3    2        3       0.628   1.883   0.000  -2.510  -0.000   0.000
   24    2    3    4        3       0.628   1.883   0.000  -2.510  -0.000   0.000
   39   12   11    9        3       0.628   1.883   0.000  -2.510  -0.000   0.000
   33   10    9   11        3       0.628   1.883   0.000  -2.510  -0.000   0.000
   35   10    9   11        3       0.628   1.883   0.000  -2.510  -0.000   0.000
   38   12   11    9        3       0.628   1.883   0.000  -2.510  -0.000   0.000
   21    1    2    3        3       0.628   1.883   0.000  -2.510  -0.000   0.000
   25    2    1   23        3       0.628   1.883   0.000  -2.510  -0.000   0.000
   38   12   11   36        3       0.628   1.883   0.000  -2.510  -0.000   0.000
   26    3    2   25        3       0.628   1.883   0.000  -2.510  -0.000   0.000
   36   11    9   32        3       0.628   1.883   0.000  -2.510  -0.000   0.000
   24    2    1   22        3       0.628   1.883   0.000  -2.510  -0.000   0.000
   35   10    9   32        3       0.628   1.883   0.000  -2.510  -0.000   0.000
   25    2    1   21        3       0.628   1.883   0.000  -2.510  -0.000   0.000
   39   12   11   37        3       0.628   1.883   0.000  -2.510  -0.000   0.000
   24    2    1   21        3       0.628   1.883   0.000  -2.510  -0.000   0.000
   24    2    1   23        3       0.628   1.883   0.000  -2.510  -0.000   0.000
   34   10    9   32        3       0.628   1.883   0.000  -2.510  -0.000   0.000
   25    2    1   22        3       0.628   1.883   0.000  -2.510  -0.000   0.000
   28    4    3   26        3       0.628   1.883   0.000  -2.510  -0.000   0.000
   26    3    2   24        3       0.628   1.883   0.000  -2.510  -0.000   0.000
   39   12   11   36        3       0.628   1.883   0.000  -2.510  -0.000   0.000
   38   12   11   37        3       0.628   1.883   0.000  -2.510  -0.000   0.000
   33   10    9   32        3       0.628   1.883   0.000  -2.510  -0.000   0.000
   37   11    9   32        3       0.628   1.883   0.000  -2.510  -0.000   0.000
   27    4    3   26        3       0.628   1.883   0.000  -2.510  -0.000   0.000
   26    3    4    5        3       0.971   2.912   0.000  -3.883  -0.000   0.000
   27    4    3   18        3      -4.096   5.088   2.966  -3.958  -0.000   0.000
   24    2    3   18        3      -4.096   5.088   2.966  -3.958  -0.000   0.000
   25    2    3   18        3      -4.096   5.088   2.966  -3.958  -0.000   0.000
   28    4    3   18        3      -4.096   5.088   2.966  -3.958  -0.000   0.000
   36   11   12   13        3       0.979   2.937   0.000  -3.916  -0.000   0.000
   37   11   12   13        3       0.979   2.937   0.000  -3.916  -0.000   0.000
   27    4    5    7        3       0.000   0.000   0.000  -0.000  -0.000   0.000
   28    4    5    7        3       0.000   0.000   0.000  -0.000  -0.000   0.000
   29    6    5    7        3       0.000   0.000   0.000  -0.000  -0.000   0.000
   30    6    5    7        3       0.000   0.000   0.000  -0.000  -0.000   0.000
   31    6    5    7        3       0.000   0.000   0.000  -0.000  -0.000   0.000
   27    4    5    6        3       0.000   0.000   0.000  -0.000  -0.000   0.000
   30    6    5    4        3       0.000   0.000   0.000  -0.000  -0.000   0.000
   31    6    5    4        3       0.000   0.000   0.000  -0.000  -0.000   0.000
   29    6    5    4        3       0.000   0.000   0.000  -0.000  -0.000   0.000
   28    4    5    6        3       0.000   0.000   0.000  -0.000  -0.000   0.000
   44   19   18    3        3       1.172   3.515   0.000  -4.686  -0.000   0.000
   43   19   18   20        3       1.172   3.515   0.000  -4.686  -0.000   0.000
   48   20   18   19        3       1.172   3.515   0.000  -4.686  -0.000   0.000
   47   20   18    3        3       1.172   3.515   0.000  -4.686  -0.000   0.000
   26    3   18   19        3       1.172   3.515   0.000  -4.686  -0.000   0.000
   45   19   18    3        3       1.172   3.515   0.000  -4.686  -0.000   0.000
   46   20   18   19        3       1.172   3.515   0.000  -4.686  -0.000   0.000
   44   19   18   20        3       1.172   3.515   0.000  -4.686  -0.000   0.000
   47   20   18   19        3       1.172   3.515   0.000  -4.686  -0.000   0.000
   26    3   18   20        3       1.172   3.515   0.000  -4.686  -0.000   0.000
   45   19   18   20        3       1.172   3.515   0.000  -4.686  -0.000   0.000
   46   20   18    3        3       1.172   3.515   0.000  -4.686  -0.000   0.000
   43   19   18    3        3       1.172   3.515   0.000  -4.686  -0.000   0.000
   48   20   18    3        3       1.172   3.515   0.000  -4.686  -0.000   0.000
   42   17   16   14        3       0.414   1.243   0.000  -1.657  -0.000   0.000
   38   12   13   14        3       0.414   1.243   0.000  -1.657  -0.000   0.000
   40   17   16   14        3       0.414   1.243   0.000  -1.657  -0.000   0.000
   41   17   16   14        3       0.414   1.243   0.000  -1.657  -0.000   0.000
   39   12   13   14        3       0.414   1.243   0.000  -1.657  -0.000   0.000
    5    4    3    2        3      -0.766   2.707   4.025  -5.966  -0.000   0.000
   18    3    2    1        3       3.335  -1.552   2.820  -4.602  -0.000   0.000
   18    3    4    5        3      19.600  -21.391   4.050  -2.259  -0.000   0.000
    8    7    5    4        3      25.476   0.000  -25.476  -0.000  -0.000   0.000
    8    7    5    6        3      25.476   0.000  -25.476  -0.000  -0.000   0.000
   15   14   13   12        3      21.439   0.000  -21.439  -0.000  -0.000   0.000
   16   14   13   12        3      31.206  -9.768  -21.439  -0.000  -0.000   0.000
   13   12   11    9        3       2.874   0.582   2.092  -5.548  -0.000   0.000

[ pairs ]
     1     4    1
     2     5    1
     3     6    1
     3     7    1
     4     8    1
     4     9    1
     6     8    1
     6     9    1
     5    10    1
     5    11    1
     8    10    1
     8    11    1
     7    12    1
     1    18    1
     2    19    1
    10    12    1
     9    13    1
     2    20    1
     5    18    1
     4    19    1
     4    20    1
     3    21    1
    11    14    1
     3    22    1
     3    23    1
    12    15    1
     1    26    1
    12    16    1
     4    24    1
     4    25    1
     2    27    1
    13    17    1
     2    28    1
     5    26    1
    15    17    1
     6    27    1
     4    29    1
     7    27    1
     6    28    1
     4    30    1
     7    28    1
     4    31    1
     7    29    1
     7    30    1
     5    32    1
     7    31    1
     8    32    1
     7    33    1
     7    34    1
    18    24    1
     7    35    1
    18    25    1
     7    36    1
    12    32    1
    11    33    1
     7    37    1
    21    24    1
    19    26    1
    18    27    1
    11    34    1
    22    24    1
    21    25    1
    20    26    1
    18    28    1
    11    35    1
    10    36    1
     3    43    1
    23    24    1
    22    25    1
    10    37    1
     9    38    1
     3    44    1
    23    25    1
     9    39    1
     3    45    1
    13    36    1
     3    46    1
    24    26    1
    13    37    1
     3    47    1
    25    26    1
     3    48    1
    14    38    1
    26    27    1
    14    39    1
    26    28    1
    14    40    1
    14    41    1
    14    42    1
    20    43    1
    20    44    1
    32    33    1
    20    45    1
    19    46    1
    32    34    1
    19    47    1
    32    35    1
    19    48    1
    32    36    1
    32    37    1
    36    38    1
    37    38    1
    36    39    1
    37    39    1

