LIGPARGEN GENERATED GRO FILE
   48
    1UNK    C00    1   0.100   0.100   0.000
    1UNK    C01    2  -0.053   0.100   0.000
    1UNK    C02    3  -0.120   0.100   0.140
    1UNK    C03    4  -0.078   0.227   0.224
    1UNK    N04    5  -0.119   0.360   0.174
    1UNK    C05    6  -0.027   0.430   0.085
    1UNK    C06    7  -0.226   0.425   0.236
    1UNK    O07    8  -0.278   0.381   0.338
    1UNK    C08    9  -0.274   0.559   0.177
    1UNK    C09   10  -0.337   0.539   0.039
    1UNK    C0A   11  -0.379   0.626   0.269
    1UNK    C0B   12  -0.328   0.663   0.408
    1UNK    O0C   13  -0.431   0.729   0.482
    1UNK    C0D   14  -0.441   0.862   0.461
    1UNK    O0E   15  -0.371   0.929   0.387
    1UNK    O0F   16  -0.543   0.909   0.538
    1UNK    C0G   17  -0.564   1.050   0.524
    1UNK    N0H   18  -0.268   0.076   0.128
    1UNK    C0I   19  -0.298  -0.053   0.063
    1UNK    C0J   20  -0.336   0.073   0.258
    1UNK    H0K   21   0.136   0.092  -0.103
    1UNK    H0M   22   0.139   0.015   0.056
    1UNK    H0N   23   0.143   0.191   0.042
    1UNK    H0O   24  -0.079   0.009  -0.055
    1UNK    H0P   25  -0.090   0.184  -0.060
    1UNK    H0Q   26  -0.078   0.014   0.195
    1UNK    H0R   27   0.031   0.229   0.237
    1UNK    H0S   28  -0.115   0.214   0.326
    1UNK    H0T   29   0.067   0.377   0.076
    1UNK    H0U   30  -0.005   0.529   0.126
    1UNK    H0V   31  -0.071   0.440  -0.014
    1UNK    H0W   32  -0.189   0.627   0.170
    1UNK    H0X   33  -0.429   0.481   0.046
    1UNK    H0Y   34  -0.271   0.487  -0.031
    1UNK    H0Z   35  -0.361   0.636  -0.006
    1UNK    H10   36  -0.467   0.560   0.280
    1UNK    H11   37  -0.416   0.716   0.220
    1UNK    H12   38  -0.238   0.725   0.402
    1UNK    H13   39  -0.301   0.574   0.466
    1UNK    H14   40  -0.647   1.078   0.589
    1UNK    H15   41  -0.590   1.075   0.421
    1UNK    H16   42  -0.475   1.105   0.556
    1UNK    H17   43  -0.269  -0.054  -0.042
    1UNK    H18   44  -0.406  -0.071   0.062
    1UNK    H19   45  -0.250  -0.137   0.115
    1UNK    H1A   46  -0.333   0.169   0.308
    1UNK    H1B   47  -0.293  -0.002   0.326
    1UNK    H1C   48  -0.443   0.052   0.245
   1.00000   1.00000   1.00000

