
;
; GENERATED BY LigParGen Server
; Jorgensen Lab @ Yale University 
;
[ atomtypes ]
  opls_824  H824     1.0080     0.000    A    2.50000E-01   1.25520E-01
  opls_804  C804    12.0110     0.000    A    3.50000E-01   2.76144E-01
  opls_818  C818    12.0110     0.000    A    3.50000E-01   2.76144E-01
  opls_836  H836     1.0080     0.000    A    2.50000E-01   1.25520E-01
  opls_834  H834     1.0080     0.000    A    2.50000E-01   1.25520E-01
  opls_828  H828     1.0080     0.000    A    2.50000E-01   1.25520E-01
  opls_814  C814    12.0110     0.000    A    3.55000E-01   2.92880E-01
  opls_817  O817    15.9990     0.000    A    2.90000E-01   5.85760E-01
  opls_802  C802    12.0110     0.000    A    3.50000E-01   2.76144E-01
  opls_827  H827     1.0080     0.000    A    2.50000E-01   1.25520E-01
  opls_801  C801    12.0110     0.000    A    3.50000E-01   2.76144E-01
  opls_838  H838     1.0080     0.000    A    2.50000E-01   1.25520E-01
  opls_822  H822     1.0080     0.000    A    2.50000E-01   1.25520E-01
  opls_807  C807    12.0110     0.000    A    3.50000E-01   2.76144E-01
  opls_825  H825     1.0080     0.000    A    2.50000E-01   1.25520E-01
  opls_830  H830     1.0080     0.000    A    2.50000E-01   1.25520E-01
  opls_810  O810    15.9990     0.000    A    2.96000E-01   8.78640E-01
  opls_821  H821     1.0080     0.000    A    2.50000E-01   1.25520E-01
  opls_820  H820     1.0080     0.000    A    2.50000E-01   1.25520E-01
  opls_809  C809    12.0110     0.000    A    3.55000E-01   2.92880E-01
  opls_803  N803    14.0070     0.000    A    3.30000E-01   7.11280E-01
  opls_837  H837     1.0080     0.000    A    2.50000E-01   1.25520E-01
  opls_829  H829     1.0080     0.000    A    2.50000E-01   1.25520E-01
  opls_831  H831     1.0080     0.000    A    2.50000E-01   1.25520E-01
  opls_832  H832     1.0080     0.000    A    2.50000E-01   1.25520E-01
  opls_800  C800    12.0110     0.000    A    3.50000E-01   2.76144E-01
  opls_805  C805    12.0110     0.000    A    3.50000E-01   2.76144E-01
  opls_806  C806    12.0110     0.000    A    3.50000E-01   2.76144E-01
  opls_823  H823     1.0080     0.000    A    2.50000E-01   1.25520E-01
  opls_813  C813    12.0110     0.000    A    3.50000E-01   2.76144E-01
  opls_808  O808    15.9990     0.000    A    2.90000E-01   5.85760E-01
  opls_826  H826     1.0080     0.000    A    2.50000E-01   1.25520E-01
  opls_835  H835     1.0080     0.000    A    2.50000E-01   1.25520E-01
  opls_841  H841     1.0080     0.000    A    2.50000E-01   1.25520E-01
  opls_819  H819     1.0080     0.000    A    2.50000E-01   1.25520E-01
  opls_816  C816    12.0110     0.000    A    3.50000E-01   2.76144E-01
  opls_833  H833     1.0080     0.000    A    2.50000E-01   1.25520E-01
  opls_811  O811    15.9990     0.000    A    2.90000E-01   5.85760E-01
  opls_839  H839     1.0080     0.000    A    2.50000E-01   1.25520E-01
  opls_812  C812    12.0110     0.000    A    3.50000E-01   2.76144E-01
  opls_815  O815    15.9990     0.000    A    2.96000E-01   8.78640E-01
  opls_840  H840     1.0080     0.000    A    2.50000E-01   1.25520E-01
[ moleculetype ]
; Name               nrexcl
UNK                   3
[ atoms ]
;   nr       type  resnr residue  atom   cgnr     charge       mass  
     1   opls_800      1    UNK   C00      1    -0.2406    12.0110 
     2   opls_801      1    UNK   C01      1    -0.1802    12.0110 
     3   opls_802      1    UNK   C02      1     0.0468    12.0110 
     4   opls_803      1    UNK   N03      1    -0.6295    14.0070 
     5   opls_804      1    UNK   C04      1    -0.0316    12.0110 
     6   opls_805      1    UNK   C05      1     0.1352    12.0110 
     7   opls_806      1    UNK   C06      1    -0.2404    12.0110 
     8   opls_807      1    UNK   C07      1     0.1086    12.0110 
     9   opls_808      1    UNK   O08      1    -0.3774    15.9990 
    10   opls_809      1    UNK   C09      1     0.5853    12.0110 
    11   opls_810      1    UNK   O0A      1    -0.3507    15.9990 
    12   opls_811      1    UNK   O0B      1    -0.3658    15.9990 
    13   opls_812      1    UNK   C0C      1     0.0379    12.0110 
    14   opls_813      1    UNK   C0D      1    -0.2712    12.0110 
    15   opls_814      1    UNK   C0E      1     0.2676    12.0110 
    16   opls_815      1    UNK   O0F      1    -0.3869    15.9990 
    17   opls_816      1    UNK   C0G      1     0.0106    12.0110 
    18   opls_817      1    UNK   O0H      1     -0.317    15.9990 
    19   opls_818      1    UNK   C0I      1     -0.061    12.0110 
    20   opls_819      1    UNK   H0J      1     0.0821     1.0080 
    21   opls_820      1    UNK   H0K      1     0.0821     1.0080 
    22   opls_821      1    UNK   H0M      1     0.0821     1.0080 
    23   opls_822      1    UNK   H0N      1     0.0982     1.0080 
    24   opls_823      1    UNK   H0O      1     0.0982     1.0080 
    25   opls_824      1    UNK   H0P      1     0.0823     1.0080 
    26   opls_825      1    UNK   H0Q      1     0.0823     1.0080 
    27   opls_826      1    UNK   H0R      1     0.0841     1.0080 
    28   opls_827      1    UNK   H0S      1     0.0841     1.0080 
    29   opls_828      1    UNK   H0T      1     0.0841     1.0080 
    30   opls_829      1    UNK   H0U      1     0.0834     1.0080 
    31   opls_830      1    UNK   H0V      1     0.0958     1.0080 
    32   opls_831      1    UNK   H0W      1     0.0958     1.0080 
    33   opls_832      1    UNK   H0X      2     0.0958     1.0080 
    34   opls_833      1    UNK   H0Y      2     0.1138     1.0080 
    35   opls_834      1    UNK   H0Z      2     0.1599     1.0080 
    36   opls_835      1    UNK   H10      2     0.1153     1.0080 
    37   opls_836      1    UNK   H11      2     0.1153     1.0080 
    38   opls_837      1    UNK   H12      2     0.1153     1.0080 
    39   opls_838      1    UNK   H13      2     0.1365     1.0080 
    40   opls_839      1    UNK   H14      2     0.0912     1.0080 
    41   opls_840      1    UNK   H15      2     0.0912     1.0080 
    42   opls_841      1    UNK   H16      2     0.0912     1.0080 
[ bonds ]
    2     1     1      0.1529 224262.400
    3     2     1      0.1529 224262.400
    4     3     1      0.1448 319657.600
    5     4     1      0.1448 319657.600
    6     4     1      0.1448 319657.600
    7     6     1      0.1529 224262.400
    8     6     1      0.1529 224262.400
    9     8     1      0.1410 267776.000
   10     9     1      0.1327 179075.200
   11    10     1      0.1229 476976.000
   12    10     1      0.1327 179075.200
   13    12     1      0.1410 267776.000
   14    13     1      0.1529 224262.400
   15    13     1      0.1522 265265.600
   16    15     1      0.1229 476976.000
   17     8     1      0.1529 224262.400
   18    17     1      0.1410 267776.000
   19    18     1      0.1410 267776.000
   20     1     1      0.1090 284512.000
   21     1     1      0.1090 284512.000
   22     1     1      0.1090 284512.000
   23     2     1      0.1090 284512.000
   24     2     1      0.1090 284512.000
   25     3     1      0.1090 284512.000
   26     3     1      0.1090 284512.000
   27     5     1      0.1090 284512.000
   28     5     1      0.1090 284512.000
   29     5     1      0.1090 284512.000
   30     6     1      0.1090 284512.000
   31     7     1      0.1090 284512.000
   32     7     1      0.1090 284512.000
   33     7     1      0.1090 284512.000
   34     8     1      0.1090 284512.000
   35    13     1      0.1090 284512.000
   36    14     1      0.1090 284512.000
   37    14     1      0.1090 284512.000
   38    14     1      0.1090 284512.000
   39    17     1      0.1090 284512.000
   40    19     1      0.1090 284512.000
   41    19     1      0.1090 284512.000
   42    19     1      0.1090 284512.000
   17    15     1      0.1522 265265.600

[ angles ]
;  ai    aj    ak funct            c0            c1            c2            c3 
    1     2     3     1    112.700    488.273
    2     3     4     1    109.470    470.282
    3     4     5     1    107.200    433.462
    3     4     6     1    107.200    433.462
    4     6     7     1    109.470    470.282
    4     6     8     1    109.470    470.282
    6     8     9     1    109.500    418.400
    8     9    10     1    116.900    694.544
    9    10    11     1    123.400    694.544
    9    10    12     1    118.180    584.923
   10    12    13     1    116.900    694.544
   12    13    14     1    109.500    418.400
   12    13    15     1    109.500    418.400
   13    15    16     1    120.400    669.440
    6     8    17     1    112.700    488.273
    8    17    18     1    109.500    418.400
   17    18    19     1    109.500    502.080
    2     1    20     1    110.700    313.800
    2     1    21     1    110.700    313.800
    2     1    22     1    110.700    313.800
    1     2    23     1    110.700    313.800
    1     2    24     1    110.700    313.800
    2     3    25     1    110.700    313.800
    2     3    26     1    110.700    313.800
    4     5    27     1    109.500    292.880
    4     5    28     1    109.500    292.880
    4     5    29     1    109.500    292.880
    4     6    30     1    109.500    292.880
    6     7    31     1    110.700    313.800
    6     7    32     1    110.700    313.800
    6     7    33     1    110.700    313.800
    6     8    34     1    110.700    313.800
   12    13    35     1    109.500    292.880
   13    14    36     1    110.700    313.800
   13    14    37     1    110.700    313.800
   13    14    38     1    110.700    313.800
    8    17    39     1    110.700    313.800
   18    19    40     1    109.500    292.880
   18    19    41     1    109.500    292.880
   18    19    42     1    109.500    292.880
   32     7    33     1    107.800    276.144
    5     4     6     1    107.200    433.462
    8     6    30     1    110.700    313.800
    7     6    30     1    110.700    313.800
   15    17    18     1    109.500    418.400
    8    17    15     1    111.100    527.184
   14    13    35     1    110.700    313.800
   37    14    38     1    107.800    276.144
   17     8    34     1    110.700    313.800
   27     5    29     1    107.800    276.144
   15    17    39     1    109.500    292.880
   13    15    17     1    116.000    585.760
   14    13    15     1    111.100    527.184
   31     7    33     1    107.800    276.144
   28     5    29     1    107.800    276.144
    3     2    23     1    110.700    313.800
   40    19    42     1    107.800    276.144
   18    17    39     1    109.500    292.880
   40    19    41     1    107.800    276.144
   20     1    21     1    107.800    276.144
    4     3    25     1    109.500    292.880
    9     8    34     1    109.500    292.880
    7     6     8     1    112.700    488.273
   16    15    17     1    120.400    669.440
   31     7    32     1    107.800    276.144
   41    19    42     1    107.800    276.144
   15    13    35     1    109.500    292.880
    3     2    24     1    110.700    313.800
   20     1    22     1    107.800    276.144
   25     3    26     1    107.800    276.144
   36    14    37     1    107.800    276.144
   21     1    22     1    107.800    276.144
    9     8    17     1    109.500    418.400
   11    10    12     1    123.400    694.544
   27     5    28     1    107.800    276.144
    4     3    26     1    109.500    292.880
   36    14    38     1    107.800    276.144
   23     2    24     1    107.800    276.144

[ dihedrals ]
; IMPROPER DIHEDRAL ANGLES 
;  ai    aj    ak    al funct            c0            c1            c2            c3            c4            c5
    16    15    17    13    4        180.000     43.932     2  
    12    10     9    11    4        180.000     43.932     2  

[ dihedrals ]
; PROPER DIHEDRAL ANGLES
;  ai    aj    ak    al funct            c0            c1            c2            c3            c4            c5
   15   17    8    6        3      -4.960   6.286   1.310  -2.636  -0.000   0.000
   15   17    8    9        3      -12.929  12.929   0.000  -0.000  -0.000   0.000
   15   13   12   10        3      -2.197   5.201   0.527  -3.531  -0.000   0.000
   10    9    8    6        3      -2.197   5.201   0.527  -3.531  -0.000   0.000
   13   15   17    8        3       0.818  -7.906   0.602   6.485  -0.000   0.000
   17   15   13   14        3       0.818  -7.906   0.602   6.485  -0.000   0.000
   17   15   13   12        3       2.874   0.582   2.092  -5.548  -0.000   0.000
   17    8    6    7        3       2.301  -1.464   0.837  -1.674  -0.000   0.000
   17    8    6    4        3       3.335  -1.552   2.820  -4.602  -0.000   0.000
    7    6    4    5        3       1.789   3.492   0.536  -5.816  -0.000   0.000
    8    6    4    5        3       1.789   3.492   0.536  -5.816  -0.000   0.000
    7    6    4    3        3       1.789   3.492   0.536  -5.816  -0.000   0.000
    8    6    4    3        3       1.789   3.492   0.536  -5.816  -0.000   0.000
   17    8    9   10        3      -2.197   5.201   0.527  -3.531  -0.000   0.000
   14   13   12   10        3      -2.197   5.201   0.527  -3.531  -0.000   0.000
    5    4    3    2        3       1.789   3.492   0.536  -5.816  -0.000   0.000
    6    4    3    2        3       1.789   3.492   0.536  -5.816  -0.000   0.000
   13   12   10   11        3      21.439   0.000  -21.439  -0.000  -0.000   0.000
   13   12   10    9        3      31.206  -9.768  -21.439  -0.000  -0.000   0.000
   19   18   17   15        3       1.715   2.845   1.046  -5.607  -0.000   0.000
   19   18   17    8        3       1.715   2.845   1.046  -5.607  -0.000   0.000
   39   17   15   13        3       0.575   1.726   0.000  -2.301  -0.000   0.000
   35   13   15   17        3       0.575   1.726   0.000  -2.301  -0.000   0.000
   35   13   15   16        3       0.000   0.000   0.000  -0.000  -0.000   0.000
   39   17   15   16        3       0.000   0.000   0.000  -0.000  -0.000   0.000
   36   14   13   15        3      -0.209  -0.628   0.000   0.837  -0.000   0.000
   38   14   13   15        3      -0.209  -0.628   0.000   0.837  -0.000   0.000
   37   14   13   15        3      -0.209  -0.628   0.000   0.837  -0.000   0.000
   34    8   17   15        3      -0.209  -0.628   0.000   0.837  -0.000   0.000
   30    6    8   17        3       0.628   1.883   0.000  -2.510  -0.000   0.000
   32    7    6    8        3       0.628   1.883   0.000  -2.510  -0.000   0.000
   34    8    6    7        3       0.628   1.883   0.000  -2.510  -0.000   0.000
   26    3    2    1        3       0.628   1.883   0.000  -2.510  -0.000   0.000
   33    7    6    8        3       0.628   1.883   0.000  -2.510  -0.000   0.000
   21    1    2    3        3       0.628   1.883   0.000  -2.510  -0.000   0.000
   25    3    2    1        3       0.628   1.883   0.000  -2.510  -0.000   0.000
   39   17    8    6        3       0.628   1.883   0.000  -2.510  -0.000   0.000
   20    1    2    3        3       0.628   1.883   0.000  -2.510  -0.000   0.000
   31    7    6    8        3       0.628   1.883   0.000  -2.510  -0.000   0.000
   22    1    2    3        3       0.628   1.883   0.000  -2.510  -0.000   0.000
   37   14   13   35        3       0.628   1.883   0.000  -2.510  -0.000   0.000
   25    3    2   24        3       0.628   1.883   0.000  -2.510  -0.000   0.000
   25    3    2   23        3       0.628   1.883   0.000  -2.510  -0.000   0.000
   26    3    2   24        3       0.628   1.883   0.000  -2.510  -0.000   0.000
   24    2    1   21        3       0.628   1.883   0.000  -2.510  -0.000   0.000
   36   14   13   35        3       0.628   1.883   0.000  -2.510  -0.000   0.000
   39   17    8   34        3       0.628   1.883   0.000  -2.510  -0.000   0.000
   32    7    6   30        3       0.628   1.883   0.000  -2.510  -0.000   0.000
   24    2    1   22        3       0.628   1.883   0.000  -2.510  -0.000   0.000
   23    2    1   22        3       0.628   1.883   0.000  -2.510  -0.000   0.000
   33    7    6   30        3       0.628   1.883   0.000  -2.510  -0.000   0.000
   31    7    6   30        3       0.628   1.883   0.000  -2.510  -0.000   0.000
   38   14   13   35        3       0.628   1.883   0.000  -2.510  -0.000   0.000
   26    3    2   23        3       0.628   1.883   0.000  -2.510  -0.000   0.000
   23    2    1   21        3       0.628   1.883   0.000  -2.510  -0.000   0.000
   23    2    1   20        3       0.628   1.883   0.000  -2.510  -0.000   0.000
   34    8    6   30        3       0.628   1.883   0.000  -2.510  -0.000   0.000
   24    2    1   20        3       0.628   1.883   0.000  -2.510  -0.000   0.000
   24    2    3    4        3      -4.096   5.088   2.966  -3.958  -0.000   0.000
   31    7    6    4        3      -4.096   5.088   2.966  -3.958  -0.000   0.000
   33    7    6    4        3      -4.096   5.088   2.966  -3.958  -0.000   0.000
   32    7    6    4        3      -4.096   5.088   2.966  -3.958  -0.000   0.000
   34    8    6    4        3      -4.096   5.088   2.966  -3.958  -0.000   0.000
   23    2    3    4        3      -4.096   5.088   2.966  -3.958  -0.000   0.000
   38   14   13   12        3       0.979   2.937   0.000  -3.916  -0.000   0.000
   39   17    8    9        3       0.979   2.937   0.000  -3.916  -0.000   0.000
   34    8   17   18        3       0.979   2.937   0.000  -3.916  -0.000   0.000
   36   14   13   12        3       0.979   2.937   0.000  -3.916  -0.000   0.000
   30    6    8    9        3       0.979   2.937   0.000  -3.916  -0.000   0.000
   37   14   13   12        3       0.979   2.937   0.000  -3.916  -0.000   0.000
   27    5    4    3        3       1.172   3.515   0.000  -4.686  -0.000   0.000
   30    6    4    3        3       1.172   3.515   0.000  -4.686  -0.000   0.000
   25    3    4    5        3       1.172   3.515   0.000  -4.686  -0.000   0.000
   28    5    4    6        3       1.172   3.515   0.000  -4.686  -0.000   0.000
   28    5    4    3        3       1.172   3.515   0.000  -4.686  -0.000   0.000
   27    5    4    6        3       1.172   3.515   0.000  -4.686  -0.000   0.000
   29    5    4    3        3       1.172   3.515   0.000  -4.686  -0.000   0.000
   26    3    4    6        3       1.172   3.515   0.000  -4.686  -0.000   0.000
   29    5    4    6        3       1.172   3.515   0.000  -4.686  -0.000   0.000
   26    3    4    5        3       1.172   3.515   0.000  -4.686  -0.000   0.000
   25    3    4    6        3       1.172   3.515   0.000  -4.686  -0.000   0.000
   30    6    4    5        3       1.172   3.515   0.000  -4.686  -0.000   0.000
   35   13   12   10        3       0.414   1.243   0.000  -1.657  -0.000   0.000
   34    8    9   10        3       0.414   1.243   0.000  -1.657  -0.000   0.000
   40   19   18   17        3       1.590   4.770   0.000  -6.360  -0.000   0.000
   39   17   18   19        3       1.590   4.770   0.000  -6.360  -0.000   0.000
   41   19   18   17        3       1.590   4.770   0.000  -6.360  -0.000   0.000
   42   19   18   17        3       1.590   4.770   0.000  -6.360  -0.000   0.000
    4    3    2    1        3       3.335  -1.552   2.820  -4.602  -0.000   0.000
   16   15   13   14        3       0.000   0.000   0.000  -0.000  -0.000   0.000
   16   15   17    8        3       0.000   0.000   0.000  -0.000  -0.000   0.000
   16   15   13   12        3       0.000   0.000   0.000  -0.000  -0.000   0.000
   11   10    9    8        3      21.439   0.000  -21.439  -0.000  -0.000   0.000
   12   10    9    8        3      31.206  -9.768  -21.439  -0.000  -0.000   0.000
   18   17   15   13        3       2.874   0.582   2.092  -5.548  -0.000   0.000
   18   17   15   16        3       0.000   0.000   0.000  -0.000  -0.000   0.000
   18   17    8    6        3       2.874   0.582   2.092  -5.548  -0.000   0.000
    9    8    6    7        3       2.874   0.582   2.092  -5.548  -0.000   0.000
    9    8    6    4        3      16.736  -16.736   0.000  -0.000  -0.000   0.000
   18   17    8    9        3      -1.151   1.151   0.000  -0.000  -0.000   0.000

[ pairs ]
     1     4    1
     2     5    1
     2     6    1
     3     7    1
     3     8    1
     5     7    1
     5     8    1
     4     9    1
     7     9    1
     6    10    1
     8    11    1
     8    12    1
     8    13    1
     6    15    1
     4    17    1
     9    13    1
     3    20    1
    11    13    1
    10    14    1
     9    15    1
     8    16    1
     7    17    1
     6    18    1
     3    21    1
    10    15    1
     3    22    1
     1    25    1
    10    17    1
     9    18    1
     8    19    1
     4    23    1
     1    26    1
    12    16    1
     4    24    1
    12    17    1
    14    16    1
     5    25    1
     3    27    1
    14    17    1
    13    18    1
     6    25    1
     5    26    1
     3    28    1
     6    26    1
     3    29    1
     6    27    1
     3    30    1
    16    18    1
    15    19    1
     6    28    1
     6    29    1
     5    30    1
     4    31    1
     4    32    1
     4    33    1
     4    34    1
     9    30    1
     8    31    1
     8    32    1
     8    33    1
     7    34    1
    20    23    1
    21    23    1
    20    24    1
    10    34    1
    22    23    1
    21    24    1
    10    35    1
     6    39    1
    22    24    1
    17    30    1
    23    25    1
    12    36    1
     9    39    1
    24    25    1
    23    26    1
    15    34    1
    12    37    1
    24    26    1
    12    38    1
    16    35    1
    15    36    1
    18    34    1
    17    35    1
    15    37    1
    13    39    1
    15    38    1
    16    39    1
    17    40    1
    19    39    1
    17    41    1
    17    42    1
    30    31    1
    30    32    1
    30    33    1
    30    34    1
    35    36    1
    35    37    1
    35    38    1
    34    39    1

