LIGPARGEN GENERATED GRO FILE
   42
    1UNK    C00    1   0.100   0.100   0.000
    1UNK    C01    2  -0.052   0.100   0.000
    1UNK    C02    3  -0.111   0.100   0.142
    1UNK    N03    4  -0.259   0.100   0.139
    1UNK    C04    5  -0.307  -0.028   0.085
    1UNK    C05    6  -0.326   0.139   0.266
    1UNK    C06    7  -0.289   0.282   0.312
    1UNK    C07    8  -0.483   0.126   0.265
    1UNK    O08    9  -0.534   0.167   0.396
    1UNK    C09   10  -0.665   0.140   0.423
    1UNK    O0A   11  -0.700   0.063   0.511
    1UNK    O0B   12  -0.748   0.227   0.360
    1UNK    C0C   13  -0.801   0.182   0.235
    1UNK    C0D   14  -0.917   0.086   0.255
    1UNK    C0E   15  -0.693   0.126   0.145
    1UNK    O0F   16  -0.711   0.028   0.073
    1UNK    C0G   17  -0.560   0.201   0.151
    1UNK    O0H   18  -0.494   0.201   0.025
    1UNK    C0I   19  -0.569   0.260  -0.080
    1UNK    H0J   20   0.137   0.100  -0.103
    1UNK    H0K   21   0.139   0.011   0.050
    1UNK    H0M   22   0.140   0.189   0.050
    1UNK    H0N   23  -0.084   0.012  -0.056
    1UNK    H0O   24  -0.088   0.188  -0.055
    1UNK    H0P   25  -0.072   0.189   0.192
    1UNK    H0Q   26  -0.074   0.014   0.199
    1UNK    H0R   27  -0.280  -0.038  -0.021
    1UNK    H0S   28  -0.416  -0.037   0.084
    1UNK    H0T   29  -0.267  -0.113   0.141
    1UNK    H0U   30  -0.290   0.071   0.345
    1UNK    H0V   31  -0.328   0.358   0.244
    1UNK    H0W   32  -0.181   0.297   0.322
    1UNK    H0X   33  -0.329   0.302   0.412
    1UNK    H0Y   34  -0.505   0.018   0.260
    1UNK    H0Z   35  -0.839   0.272   0.184
    1UNK    H10   36  -0.887  -0.003   0.311
    1UNK    H11   37  -0.958   0.053   0.159
    1UNK    H12   38  -0.997   0.135   0.312
    1UNK    H13   39  -0.577   0.305   0.181
    1UNK    H14   40  -0.503   0.275  -0.165
    1UNK    H15   41  -0.610   0.357  -0.049
    1UNK    H16   42  -0.650   0.194  -0.112
   1.00000   1.00000   1.00000

