LIGPARGEN GENERATED GRO FILE
   40
    1UNK    C00    1   0.100   0.100   0.000
    1UNK    C01    2  -0.053   0.100   0.000
    1UNK    C02    3  -0.122   0.100   0.140
    1UNK    C03    4  -0.078   0.222   0.219
    1UNK    N04    5  -0.041   0.322   0.286
    1UNK    C05    6  -0.275   0.117   0.117
    1UNK    C06    7  -0.316   0.238   0.035
    1UNK    O07    8  -0.407   0.234  -0.047
    1UNK    C08    9  -0.089  -0.030   0.218
    1UNK    C09   10  -0.143  -0.050   0.363
    1UNK    C0A   11  -0.295  -0.065   0.373
    1UNK    C0B   12  -0.083  -0.179   0.425
    1UNK    C0C   13   0.070  -0.188   0.439
    1UNK    C0D   14   0.124  -0.074   0.525
    1UNK    C0E   15   0.108  -0.325   0.499
    1UNK    C0F   16   0.078  -0.440   0.406
    1UNK    O0G   17   0.065  -0.431   0.284
    1UNK    H0H   18   0.136   0.093  -0.103
    1UNK    H0I   19   0.142   0.015   0.055
    1UNK    H0J   20   0.139   0.193   0.043
    1UNK    H0K   21  -0.087   0.012  -0.057
    1UNK    H0M   22  -0.083   0.188  -0.058
    1UNK    H0N   23  -0.326   0.134   0.212
    1UNK    H0O   24  -0.317   0.027   0.070
    1UNK    H0P   25  -0.268   0.333   0.061
    1UNK    H0Q   26   0.020  -0.035   0.224
    1UNK    H0R   27  -0.120  -0.116   0.157
    1UNK    H0S   28  -0.113   0.035   0.425
    1UNK    H0T   29  -0.335  -0.127   0.291
    1UNK    H0U   30  -0.346   0.031   0.373
    1UNK    H0V   31  -0.325  -0.112   0.467
    1UNK    H0W   32  -0.120  -0.264   0.365
    1UNK    H0X   33  -0.127  -0.192   0.525
    1UNK    H0Y   34   0.117  -0.181   0.340
    1UNK    H0Z   35   0.058  -0.053   0.610
    1UNK    H10   36   0.134   0.018   0.467
    1UNK    H11   37   0.223  -0.098   0.565
    1UNK    H12   38   0.054  -0.341   0.592
    1UNK    H13   39   0.216  -0.329   0.520
    1UNK    H14   40   0.072  -0.539   0.455
   1.00000   1.00000   1.00000

