LIGPARGEN GENERATED GRO FILE
   25
    1UNK    C00    1   0.100   0.100   0.000
    1UNK    C01    2  -0.052   0.100   0.000
    1UNK    C02    3  -0.108   0.100   0.142
    1UNK    C03    4  -0.261   0.100   0.141
    1UNK    C04    5  -0.322   0.100   0.283
    1UNK    C05    6  -0.286   0.230   0.352
    1UNK    C06    7  -0.208   0.223   0.480
    1UNK    O07    8  -0.319   0.339   0.304
    1UNK    C08    9  -0.476   0.089   0.282
    1UNK    Cl0   10  -0.530  -0.063   0.205
    1UNK    Cl1   11  -0.542   0.090   0.448
    1UNK    H0B   12   0.138   0.100  -0.103
    1UNK    H0C   13   0.139   0.011   0.050
    1UNK    H0D   14   0.139   0.189   0.051
    1UNK    H0E   15  -0.088   0.012  -0.054
    1UNK    H0F   16  -0.088   0.188  -0.054
    1UNK    H0G   17  -0.071   0.188   0.196
    1UNK    H0H   18  -0.072   0.012   0.196
    1UNK    H0I   19  -0.294   0.011   0.086
    1UNK    H0J   20  -0.297   0.187   0.085
    1UNK    H0K   21  -0.280   0.015   0.339
    1UNK    H0M   22  -0.174   0.121   0.501
    1UNK    H0N   23  -0.271   0.257   0.563
    1UNK    H0O   24  -0.120   0.287   0.472
    1UNK    H0P   25  -0.522   0.172   0.227
   1.00000   1.00000   1.00000

