LIGPARGEN GENERATED GRO FILE
   39
    1UNK    C00    1   0.100   0.100   0.000
    1UNK    C01    2  -0.052   0.100   0.000
    1UNK    C02    3  -0.113   0.100   0.141
    1UNK    C03    4  -0.078   0.223   0.224
    1UNK    C04    5  -0.179   0.220   0.340
    1UNK    C05    6  -0.132   0.128   0.458
    1UNK    C06    7   0.008   0.168   0.508
    1UNK    C07    8  -0.224   0.133   0.582
    1UNK    C08    9  -0.312   0.184   0.263
    1UNK    C09   10  -0.373   0.318   0.210
    1UNK    C0A   11  -0.424   0.119   0.345
    1UNK    C0B   12  -0.267   0.100   0.139
    1UNK    C0C   13  -0.321  -0.043   0.130
    1UNK    H0D   14   0.138   0.093  -0.103
    1UNK    H0E   15   0.139   0.014   0.056
    1UNK    H0F   16   0.140   0.192   0.044
    1UNK    H0G   17  -0.087   0.011  -0.054
    1UNK    H0H   18  -0.088   0.187  -0.056
    1UNK    H0I   19  -0.076   0.011   0.194
    1UNK    H0J   20  -0.091   0.315   0.164
    1UNK    H0K   21   0.027   0.224   0.255
    1UNK    H0M   22  -0.187   0.322   0.382
    1UNK    H0N   23  -0.127   0.024   0.423
    1UNK    H0O   24   0.010   0.274   0.537
    1UNK    H0P   25   0.086   0.150   0.434
    1UNK    H0Q   26   0.036   0.109   0.597
    1UNK    H0R   27  -0.250   0.236   0.607
    1UNK    H0S   28  -0.174   0.088   0.669
    1UNK    H0T   29  -0.315   0.075   0.569
    1UNK    H0U   30  -0.400   0.384   0.294
    1UNK    H0V   31  -0.464   0.299   0.152
    1UNK    H0W   32  -0.304   0.372   0.145
    1UNK    H0X   33  -0.453   0.181   0.430
    1UNK    H0Y   34  -0.395   0.020   0.382
    1UNK    H0Z   35  -0.514   0.105   0.284
    1UNK    H10   36  -0.301   0.151   0.048
    1UNK    H11   37  -0.290  -0.103   0.217
    1UNK    H12   38  -0.283  -0.093   0.041
    1UNK    H13   39  -0.430  -0.044   0.124
   1.00000   1.00000   1.00000

