LIGPARGEN GENERATED GRO FILE
   39
    1UNK    C00    1   0.100   0.100   0.000
    1UNK    C01    2  -0.052   0.100   0.000
    1UNK    C02    3  -0.106   0.100   0.143
    1UNK    C03    4  -0.260   0.100   0.151
    1UNK    C04    5  -0.316  -0.024   0.093
    1UNK    N05    6  -0.359  -0.121   0.047
    1UNK    C06    7  -0.309   0.113   0.297
    1UNK    C07    8  -0.259   0.235   0.374
    1UNK    C08    9  -0.298   0.369   0.309
    1UNK    C09   10  -0.243   0.497   0.378
    1UNK    C0A   11  -0.289   0.502   0.524
    1UNK    C0B   12  -0.089   0.496   0.373
    1UNK    C0C   13  -0.298   0.619   0.299
    1UNK    C0D   14  -0.256   0.757   0.350
    1UNK    H0E   15   0.138   0.100  -0.102
    1UNK    H0F   16   0.139   0.011   0.051
    1UNK    H0G   17   0.139   0.189   0.051
    1UNK    H0H   18  -0.088   0.012  -0.055
    1UNK    H0I   19  -0.088   0.189  -0.053
    1UNK    H0J   20  -0.066   0.190   0.193
    1UNK    H0K   21  -0.066   0.013   0.197
    1UNK    H0M   22  -0.298   0.185   0.093
    1UNK    H0N   23  -0.279   0.023   0.353
    1UNK    H0O   24  -0.419   0.113   0.298
    1UNK    H0P   25  -0.151   0.228   0.386
    1UNK    H0Q   26  -0.302   0.230   0.475
    1UNK    H0R   27  -0.408   0.374   0.306
    1UNK    H0S   28  -0.265   0.369   0.205
    1UNK    H0T   29  -0.249   0.417   0.582
    1UNK    H0U   30  -0.398   0.499   0.531
    1UNK    H0V   31  -0.254   0.592   0.575
    1UNK    H0W   32  -0.046   0.411   0.427
    1UNK    H0X   33  -0.046   0.586   0.418
    1UNK    H0Y   34  -0.053   0.490   0.269
    1UNK    H0Z   35  -0.408   0.615   0.299
    1UNK    H10   36  -0.268   0.611   0.194
    1UNK    H11   37  -0.289   0.774   0.452
    1UNK    H12   38  -0.301   0.834   0.287
    1UNK    H13   39  -0.147   0.770   0.345
   1.00000   1.00000   1.00000

