LIGPARGEN GENERATED GRO FILE
   32
    1UNK    C00    1   0.100   0.100   0.000
    1UNK    O01    2  -0.042   0.100   0.000
    1UNK    C02    3  -0.109   0.100   0.127
    1UNK    C03    4  -0.126   0.238   0.194
    1UNK    C04    5  -0.069   0.353   0.114
    1UNK    C05    6  -0.145   0.393  -0.011
    1UNK    O06    7   0.030   0.417   0.151
    1UNK    C07    8  -0.068   0.218   0.336
    1UNK    C08    9  -0.181   0.161   0.429
    1UNK    C09   10  -0.239   0.025   0.379
    1UNK    C0A   11  -0.123  -0.062   0.341
    1UNK    C0B   12  -0.067  -0.134   0.223
    1UNK    C0C   13  -0.040   0.014   0.233
    1UNK    C0D   14   0.041   0.109   0.317
    1UNK    H0E   15   0.134   0.105  -0.104
    1UNK    H0F   16   0.139   0.008   0.043
    1UNK    H0G   17   0.140   0.187   0.052
    1UNK    H0H   18  -0.209   0.060   0.104
    1UNK    H0I   19  -0.233   0.261   0.204
    1UNK    H0J   20  -0.219   0.317  -0.038
    1UNK    H0K   21  -0.075   0.404  -0.094
    1UNK    H0M   22  -0.198   0.487   0.007
    1UNK    H0N   23  -0.026   0.309   0.380
    1UNK    H0O   24  -0.261   0.234   0.441
    1UNK    H0P   25  -0.137   0.145   0.529
    1UNK    H0Q   26  -0.309   0.041   0.296
    1UNK    H0R   27  -0.297  -0.021   0.459
    1UNK    H0S   28  -0.077  -0.096   0.434
    1UNK    H0T   29  -0.136  -0.168   0.147
    1UNK    H0U   30   0.017  -0.201   0.238
    1UNK    H0V   31   0.128   0.148   0.264
    1UNK    H0W   32   0.076   0.067   0.412
   1.00000   1.00000   1.00000

