
;
; GENERATED BY LigParGen Server
; Jorgensen Lab @ Yale University 
;
[ atomtypes ]
  opls_814  C814    12.0110     0.000    A    3.50000E-01   2.76144E-01
  opls_824  H824     1.0080     0.000    A    2.50000E-01   1.25520E-01
  opls_815  C815    12.0110     0.000    A    3.50000E-01   2.76144E-01
  opls_805  C805    12.0110     0.000    A    3.50000E-01   2.76144E-01
  opls_818  C818    12.0110     0.000    A    3.50000E-01   2.76144E-01
  opls_843  H843     1.0080     0.000    A    2.50000E-01   1.25520E-01
  opls_836  H836     1.0080     0.000    A    2.50000E-01   1.25520E-01
  opls_810  S810    32.0600     0.000    A    3.55000E-01   1.04600E+00
  opls_828  H828     1.0080     0.000    A    2.50000E-01   1.25520E-01
  opls_802  C802    12.0110     0.000    A    3.50000E-01   2.76144E-01
  opls_827  H827     1.0080     0.000    A    2.50000E-01   1.25520E-01
  opls_809  C809    12.0110     0.000    A    3.50000E-01   2.76144E-01
  opls_806  C806    12.0110     0.000    A    3.50000E-01   2.76144E-01
  opls_822  H822     1.0080     0.000    A    2.50000E-01   1.25520E-01
  opls_803  C803    12.0110     0.000    A    3.50000E-01   2.76144E-01
  opls_838  H838     1.0080     0.000    A    2.50000E-01   1.25520E-01
  opls_825  H825     1.0080     0.000    A    2.50000E-01   1.25520E-01
  opls_830  H830     1.0080     0.000    A    2.50000E-01   1.25520E-01
  opls_804  C804    12.0110     0.000    A    3.50000E-01   2.76144E-01
  opls_812  O812    15.9990     0.000    A    2.96000E-01   7.11280E-01
  opls_842  H842     1.0080     0.000    A    2.50000E-01   1.25520E-01
  opls_820  H820     1.0080     0.000    A    2.50000E-01   1.25520E-01
  opls_837  H837     1.0080     0.000    A    2.50000E-01   1.25520E-01
  opls_821  H821     1.0080     0.000    A    2.50000E-01   1.25520E-01
  opls_834  H834     1.0080     0.000    A    2.50000E-01   1.25520E-01
  opls_831  H831     1.0080     0.000    A    2.50000E-01   1.25520E-01
  opls_832  H832     1.0080     0.000    A    2.50000E-01   1.25520E-01
  opls_800  C800    12.0110     0.000    A    3.50000E-01   2.76144E-01
  opls_846  H846     1.0080     0.000    A    2.50000E-01   1.25520E-01
  opls_811  C811    12.0110     0.000    A    3.50000E-01   2.76144E-01
  opls_823  H823     1.0080     0.000    A    2.50000E-01   1.25520E-01
  opls_826  H826     1.0080     0.000    A    2.50000E-01   1.25520E-01
  opls_835  H835     1.0080     0.000    A    2.50000E-01   1.25520E-01
  opls_841  H841     1.0080     0.000    A    2.50000E-01   1.25520E-01
  opls_813  O813    15.9990     0.000    A    2.96000E-01   7.11280E-01
  opls_819  H819     1.0080     0.000    A    2.50000E-01   1.25520E-01
  opls_816  C816    12.0110     0.000    A    3.50000E-01   2.76144E-01
  opls_833  H833     1.0080     0.000    A    2.50000E-01   1.25520E-01
  opls_839  H839     1.0080     0.000    A    2.50000E-01   1.25520E-01
  opls_817  C817    12.0110     0.000    A    3.50000E-01   2.76144E-01
  opls_801  C801    12.0110     0.000    A    3.50000E-01   2.76144E-01
  opls_808  C808    12.0110     0.000    A    3.50000E-01   2.76144E-01
  opls_840  H840     1.0080     0.000    A    2.50000E-01   1.25520E-01
  opls_829  H829     1.0080     0.000    A    2.50000E-01   1.25520E-01
  opls_844  H844     1.0080     0.000    A    2.50000E-01   1.25520E-01
  opls_845  H845     1.0080     0.000    A    2.50000E-01   1.25520E-01
  opls_807  C807    12.0110     0.000    A    3.50000E-01   2.76144E-01
[ moleculetype ]
; Name               nrexcl
UNK                   3
[ atoms ]
;   nr       type  resnr residue  atom   cgnr     charge       mass  
     1   opls_800      1    UNK   C00      1     -0.229    12.0110 
     2   opls_801      1    UNK   C01      1    -0.1121    12.0110 
     3   opls_802      1    UNK   C02      1    -0.1257    12.0110 
     4   opls_803      1    UNK   C03      1    -0.1683    12.0110 
     5   opls_804      1    UNK   C04      1    -0.1139    12.0110 
     6   opls_805      1    UNK   C05      1    -0.0901    12.0110 
     7   opls_806      1    UNK   C06      1     -0.165    12.0110 
     8   opls_807      1    UNK   C07      1    -0.1653    12.0110 
     9   opls_808      1    UNK   C08      1    -0.1275    12.0110 
    10   opls_809      1    UNK   C09      1    -0.4487    12.0110 
    11   opls_810      1    UNK   S0A      1     1.3023    32.0600 
    12   opls_811      1    UNK   C0B      1    -0.5706    12.0110 
    13   opls_812      1    UNK   O0C      1     -0.568    15.9990 
    14   opls_813      1    UNK   O0D      1     -0.568    15.9990 
    15   opls_814      1    UNK   C0E      1    -0.1372    12.0110 
    16   opls_815      1    UNK   C0F      1    -0.1321    12.0110 
    17   opls_816      1    UNK   C0G      1    -0.1918    12.0110 
    18   opls_817      1    UNK   C0H      1    -0.1196    12.0110 
    19   opls_818      1    UNK   C0I      1    -0.2336    12.0110 
    20   opls_819      1    UNK   H0J      1     0.0831     1.0080 
    21   opls_820      1    UNK   H0K      1     0.0831     1.0080 
    22   opls_821      1    UNK   H0M      1     0.0831     1.0080 
    23   opls_822      1    UNK   H0N      1     0.1034     1.0080 
    24   opls_823      1    UNK   H0O      1     0.1159     1.0080 
    25   opls_824      1    UNK   H0P      1     0.0975     1.0080 
    26   opls_825      1    UNK   H0Q      1     0.0975     1.0080 
    27   opls_826      1    UNK   H0R      1     0.0953     1.0080 
    28   opls_827      1    UNK   H0S      1     0.1025     1.0080 
    29   opls_828      1    UNK   H0T      1     0.0901     1.0080 
    30   opls_829      1    UNK   H0U      1     0.0901     1.0080 
    31   opls_830      1    UNK   H0V      1     0.0919     1.0080 
    32   opls_831      1    UNK   H0W      1     0.0919     1.0080 
    33   opls_832      1    UNK   H0X      2      0.109     1.0080 
    34   opls_833      1    UNK   H0Y      2      0.109     1.0080 
    35   opls_834      1    UNK   H0Z      2     0.1576     1.0080 
    36   opls_835      1    UNK   H10      2     0.1632     1.0080 
    37   opls_836      1    UNK   H11      2     0.1632     1.0080 
    38   opls_837      1    UNK   H12      2     0.1632     1.0080 
    39   opls_838      1    UNK   H13      2     0.1035     1.0080 
    40   opls_839      1    UNK   H14      2     0.1035     1.0080 
    41   opls_840      1    UNK   H15      2     0.1107     1.0080 
    42   opls_841      1    UNK   H16      2     0.1025     1.0080 
    43   opls_842      1    UNK   H17      2     0.1025     1.0080 
    44   opls_843      1    UNK   H18      2     0.1016     1.0080 
    45   opls_844      1    UNK   H19      2     0.0831     1.0080 
    46   opls_845      1    UNK   H1A      2     0.0831     1.0080 
    47   opls_846      1    UNK   H1B      2     0.0831     1.0080 
[ bonds ]
    2     1     1      0.1529 224262.400
    3     2     1      0.1529 224262.400
    4     3     1      0.1529 224262.400
    5     4     1      0.1529 224262.400
    6     5     1      0.1529 224262.400
    7     6     1      0.1529 224262.400
    8     7     1      0.1529 224262.400
    9     8     1      0.1529 224262.400
   10     9     1      0.1529 224262.400
   11    10     1      0.1770 284512.000
   12    11     1      0.1770 284512.000
   13    11     1      0.1440 585760.000
   14    11     1      0.1440 585760.000
   15     6     1      0.1529 224262.400
   16     5     1      0.1529 224262.400
   17     3     1      0.1529 224262.400
   18     2     1      0.1529 224262.400
   19    18     1      0.1529 224262.400
   20     1     1      0.1090 284512.000
   21     1     1      0.1090 284512.000
   22     1     1      0.1090 284512.000
   23     2     1      0.1090 284512.000
   24     3     1      0.1090 284512.000
   25     4     1      0.1090 284512.000
   26     4     1      0.1090 284512.000
   27     5     1      0.1090 284512.000
   28     6     1      0.1090 284512.000
   29     7     1      0.1090 284512.000
   30     7     1      0.1090 284512.000
   31     8     1      0.1090 284512.000
   32     8     1      0.1090 284512.000
   33     9     1      0.1090 284512.000
   34     9     1      0.1090 284512.000
   35    10     1      0.1090 284512.000
   36    12     1      0.1090 284512.000
   37    12     1      0.1090 284512.000
   38    12     1      0.1090 284512.000
   39    15     1      0.1090 284512.000
   40    15     1      0.1090 284512.000
   41    16     1      0.1090 284512.000
   42    17     1      0.1090 284512.000
   43    17     1      0.1090 284512.000
   44    18     1      0.1090 284512.000
   45    19     1      0.1090 284512.000
   46    19     1      0.1090 284512.000
   47    19     1      0.1090 284512.000
   15    10     1      0.1529 224262.400
   17    16     1      0.1529 224262.400
   18    16     1      0.1529 224262.400

[ angles ]
;  ai    aj    ak funct            c0            c1            c2            c3 
    1     2     3     1    112.700    488.273
    2     3     4     1    112.700    488.273
    3     4     5     1    112.700    488.273
    4     5     6     1    112.700    488.273
    5     6     7     1    112.700    488.273
    6     7     8     1    112.700    488.273
    7     8     9     1    112.700    488.273
    8     9    10     1    112.700    488.273
    9    10    11     1    108.600    418.400
   10    11    12     1    102.000    518.816
   10    11    13     1    108.900    619.232
   10    11    14     1    108.900    619.232
    5     6    15     1    112.700    488.273
    4     5    16     1    112.700    488.273
    2     3    17     1    112.700    488.273
    1     2    18     1    112.700    488.273
    2    18    19     1    112.700    488.273
    2     1    20     1    110.700    313.800
    2     1    21     1    110.700    313.800
    2     1    22     1    110.700    313.800
    1     2    23     1    110.700    313.800
    2     3    24     1    110.700    313.800
    3     4    25     1    110.700    313.800
    3     4    26     1    110.700    313.800
    4     5    27     1    110.700    313.800
    5     6    28     1    110.700    313.800
    6     7    29     1    110.700    313.800
    6     7    30     1    110.700    313.800
    7     8    31     1    110.700    313.800
    7     8    32     1    110.700    313.800
    8     9    33     1    110.700    313.800
    8     9    34     1    110.700    313.800
    9    10    35     1    110.700    313.800
   11    12    36     1    109.500    292.880
   11    12    37     1    109.500    292.880
   11    12    38     1    109.500    292.880
    6    15    39     1    110.700    313.800
    6    15    40     1    110.700    313.800
    5    16    41     1    110.700    313.800
    3    17    42     1    110.700    313.800
    3    17    43     1    110.700    313.800
    2    18    44     1    110.700    313.800
   18    19    45     1    110.700    313.800
   18    19    46     1    110.700    313.800
   18    19    47     1    110.700    313.800
   11    10    15     1    108.600    418.400
   31     8    32     1    107.800    276.144
   18    16    41     1    110.700    313.800
    9     8    31     1    110.700    313.800
   25     4    26     1    107.800    276.144
   16    17    42     1    110.700    313.800
   36    12    37     1    107.800    276.144
   39    15    40     1    107.800    276.144
   45    19    47     1    107.800    276.144
    4     3    24     1    110.700    313.800
   17    16    41     1    110.700    313.800
   16    18    19     1    112.700    488.273
    6     5    16     1    112.700    488.273
   10     9    33     1    110.700    313.800
   12    11    14     1    108.900    619.232
    4     3    17     1    112.700    488.273
   20     1    21     1    107.800    276.144
   29     7    30     1    107.800    276.144
    8     7    30     1    110.700    313.800
   36    12    38     1    107.800    276.144
   18     2    23     1    110.700    313.800
   19    18    44     1    110.700    313.800
   37    12    38     1    107.800    276.144
    5    16    18     1    112.700    488.273
    5     4    26     1    110.700    313.800
   42    17    43     1    107.800    276.144
   11    10    35     1    109.500    292.880
    7     6    15     1    112.700    488.273
    5     4    25     1    110.700    313.800
   13    11    14     1    119.000    870.272
   46    19    47     1    107.800    276.144
    9     8    32     1    110.700    313.800
   15     6    28     1    110.700    313.800
    7     6    28     1    110.700    313.800
    6    15    10     1    112.700    488.273
   17    16    18     1    112.700    488.273
    5    16    17     1    112.700    488.273
    6     5    27     1    110.700    313.800
    8     7    29     1    110.700    313.800
   16    17    43     1    110.700    313.800
   21     1    22     1    107.800    276.144
    2    18    16     1    112.700    488.273
   20     1    22     1    107.800    276.144
    3    17    16     1    112.700    488.273
   45    19    46     1    107.800    276.144
   17     3    24     1    110.700    313.800
    3     2    18     1    112.700    488.273
   33     9    34     1    107.800    276.144
   10     9    34     1    110.700    313.800
    3     2    23     1    110.700    313.800
   10    15    39     1    110.700    313.800
   16    18    44     1    110.700    313.800
   12    11    13     1    108.900    619.232
    9    10    15     1    112.700    488.273
   10    15    40     1    110.700    313.800
   15    10    35     1    110.700    313.800
   16     5    27     1    110.700    313.800

[ dihedrals ]
; IMPROPER DIHEDRAL ANGLES 
;  ai    aj    ak    al funct            c0            c1            c2            c3            c4            c5

[ dihedrals ]
; PROPER DIHEDRAL ANGLES
;  ai    aj    ak    al funct            c0            c1            c2            c3            c4            c5
    4    3    2    1        3       2.301  -1.464   0.837  -1.674  -0.000   0.000
    5   16   18    2        3       2.301  -1.464   0.837  -1.674  -0.000   0.000
   17   16    5    4        3       2.301  -1.464   0.837  -1.674  -0.000   0.000
   17   16   18    2        3       2.301  -1.464   0.837  -1.674  -0.000   0.000
   15    6    5    4        3       2.301  -1.464   0.837  -1.674  -0.000   0.000
   10   15    6    7        3       2.301  -1.464   0.837  -1.674  -0.000   0.000
   17   16    5    6        3       2.301  -1.464   0.837  -1.674  -0.000   0.000
   19   18   16   17        3       2.301  -1.464   0.837  -1.674  -0.000   0.000
    5   16   17    3        3       2.301  -1.464   0.837  -1.674  -0.000   0.000
   16    5    4    3        3       2.301  -1.464   0.837  -1.674  -0.000   0.000
   18    2    3   17        3       2.301  -1.464   0.837  -1.674  -0.000   0.000
   16   17    3    2        3       2.301  -1.464   0.837  -1.674  -0.000   0.000
   16    5    6   15        3       2.301  -1.464   0.837  -1.674  -0.000   0.000
   16    5    6    7        3       2.301  -1.464   0.837  -1.674  -0.000   0.000
   18   16   17    3        3       2.301  -1.464   0.837  -1.674  -0.000   0.000
   19   18    2    3        3       2.301  -1.464   0.837  -1.674  -0.000   0.000
   17    3    4    5        3       2.301  -1.464   0.837  -1.674  -0.000   0.000
   18   16    5    6        3       2.301  -1.464   0.837  -1.674  -0.000   0.000
   18    2    3    4        3       2.301  -1.464   0.837  -1.674  -0.000   0.000
   17    3    2    1        3       2.301  -1.464   0.837  -1.674  -0.000   0.000
   16   18    2    1        3       2.301  -1.464   0.837  -1.674  -0.000   0.000
   16   17    3    4        3       2.301  -1.464   0.837  -1.674  -0.000   0.000
    5    4    3    2        3       2.301  -1.464   0.837  -1.674  -0.000   0.000
    6    5    4    3        3       2.301  -1.464   0.837  -1.674  -0.000   0.000
    7    6    5    4        3       2.301  -1.464   0.837  -1.674  -0.000   0.000
    8    7    6    5        3       2.301  -1.464   0.837  -1.674  -0.000   0.000
    9    8    7    6        3       2.301  -1.464   0.837  -1.674  -0.000   0.000
   10    9    8    7        3       2.301  -1.464   0.837  -1.674  -0.000   0.000
   10   15    6    5        3       2.301  -1.464   0.837  -1.674  -0.000   0.000
   15    6    7    8        3       2.301  -1.464   0.837  -1.674  -0.000   0.000
   19   18    2    1        3       2.301  -1.464   0.837  -1.674  -0.000   0.000
   15   10    9    8        3       2.301  -1.464   0.837  -1.674  -0.000   0.000
    9   10   15    6        3       2.301  -1.464   0.837  -1.674  -0.000   0.000
   19   18   16    5        3       2.301  -1.464   0.837  -1.674  -0.000   0.000
   16   18    2    3        3       2.301  -1.464   0.837  -1.674  -0.000   0.000
   18   16    5    4        3       2.301  -1.464   0.837  -1.674  -0.000   0.000
   15   10   11   12        3       0.000   0.000   0.000  -0.000  -0.000   0.000
   15   10   11   13        3       0.000   0.000   0.000  -0.000  -0.000   0.000
   15   10   11   14        3       0.000   0.000   0.000  -0.000  -0.000   0.000
   12   11   10    9        3       0.000   0.000   0.000  -0.000  -0.000   0.000
   47   19   18    2        3       0.628   1.883   0.000  -2.510  -0.000   0.000
   23    2   18   16        3       0.628   1.883   0.000  -2.510  -0.000   0.000
   24    3   17   16        3       0.628   1.883   0.000  -2.510  -0.000   0.000
   40   15    6    5        3       0.628   1.883   0.000  -2.510  -0.000   0.000
   21    1    2    3        3       0.628   1.883   0.000  -2.510  -0.000   0.000
   32    8    9   10        3       0.628   1.883   0.000  -2.510  -0.000   0.000
   27    5   16   18        3       0.628   1.883   0.000  -2.510  -0.000   0.000
   42   17    3    2        3       0.628   1.883   0.000  -2.510  -0.000   0.000
   21    1    2   18        3       0.628   1.883   0.000  -2.510  -0.000   0.000
   30    7    8    9        3       0.628   1.883   0.000  -2.510  -0.000   0.000
   43   17   16    5        3       0.628   1.883   0.000  -2.510  -0.000   0.000
   25    4    3   17        3       0.628   1.883   0.000  -2.510  -0.000   0.000
   42   17    3    4        3       0.628   1.883   0.000  -2.510  -0.000   0.000
   27    5    6    7        3       0.628   1.883   0.000  -2.510  -0.000   0.000
   40   15    6    7        3       0.628   1.883   0.000  -2.510  -0.000   0.000
   44   18    2    1        3       0.628   1.883   0.000  -2.510  -0.000   0.000
   44   18   16   17        3       0.628   1.883   0.000  -2.510  -0.000   0.000
   43   17    3    2        3       0.628   1.883   0.000  -2.510  -0.000   0.000
   28    6   15   10        3       0.628   1.883   0.000  -2.510  -0.000   0.000
   45   19   18   16        3       0.628   1.883   0.000  -2.510  -0.000   0.000
   43   17    3    4        3       0.628   1.883   0.000  -2.510  -0.000   0.000
   25    4    3    2        3       0.628   1.883   0.000  -2.510  -0.000   0.000
   22    1    2   18        3       0.628   1.883   0.000  -2.510  -0.000   0.000
   46   19   18    2        3       0.628   1.883   0.000  -2.510  -0.000   0.000
   27    5    4    3        3       0.628   1.883   0.000  -2.510  -0.000   0.000
   41   16   18    2        3       0.628   1.883   0.000  -2.510  -0.000   0.000
   29    7    6    5        3       0.628   1.883   0.000  -2.510  -0.000   0.000
   23    2   18   19        3       0.628   1.883   0.000  -2.510  -0.000   0.000
   39   15    6    5        3       0.628   1.883   0.000  -2.510  -0.000   0.000
   26    4    5    6        3       0.628   1.883   0.000  -2.510  -0.000   0.000
   39   15   10    9        3       0.628   1.883   0.000  -2.510  -0.000   0.000
   24    3    2    1        3       0.628   1.883   0.000  -2.510  -0.000   0.000
   44   18   16    5        3       0.628   1.883   0.000  -2.510  -0.000   0.000
   40   15   10    9        3       0.628   1.883   0.000  -2.510  -0.000   0.000
   26    4    5   16        3       0.628   1.883   0.000  -2.510  -0.000   0.000
   26    4    3   17        3       0.628   1.883   0.000  -2.510  -0.000   0.000
   22    1    2    3        3       0.628   1.883   0.000  -2.510  -0.000   0.000
   27    5    6   15        3       0.628   1.883   0.000  -2.510  -0.000   0.000
   42   17   16   18        3       0.628   1.883   0.000  -2.510  -0.000   0.000
   44   18    2    3        3       0.628   1.883   0.000  -2.510  -0.000   0.000
   31    8    9   10        3       0.628   1.883   0.000  -2.510  -0.000   0.000
   34    9    8    7        3       0.628   1.883   0.000  -2.510  -0.000   0.000
   24    3    2   18        3       0.628   1.883   0.000  -2.510  -0.000   0.000
   41   16   17    3        3       0.628   1.883   0.000  -2.510  -0.000   0.000
   23    2    3   17        3       0.628   1.883   0.000  -2.510  -0.000   0.000
   24    3    4    5        3       0.628   1.883   0.000  -2.510  -0.000   0.000
   32    8    7    6        3       0.628   1.883   0.000  -2.510  -0.000   0.000
   25    4    5   16        3       0.628   1.883   0.000  -2.510  -0.000   0.000
   28    6    5   16        3       0.628   1.883   0.000  -2.510  -0.000   0.000
   27    5   16   17        3       0.628   1.883   0.000  -2.510  -0.000   0.000
   34    9   10   15        3       0.628   1.883   0.000  -2.510  -0.000   0.000
   20    1    2   18        3       0.628   1.883   0.000  -2.510  -0.000   0.000
   30    7    6   15        3       0.628   1.883   0.000  -2.510  -0.000   0.000
   31    8    7    6        3       0.628   1.883   0.000  -2.510  -0.000   0.000
   41   16   18   19        3       0.628   1.883   0.000  -2.510  -0.000   0.000
   47   19   18   16        3       0.628   1.883   0.000  -2.510  -0.000   0.000
   43   17   16   18        3       0.628   1.883   0.000  -2.510  -0.000   0.000
   26    4    3    2        3       0.628   1.883   0.000  -2.510  -0.000   0.000
   39   15    6    7        3       0.628   1.883   0.000  -2.510  -0.000   0.000
   28    6    7    8        3       0.628   1.883   0.000  -2.510  -0.000   0.000
   35   10    9    8        3       0.628   1.883   0.000  -2.510  -0.000   0.000
   45   19   18    2        3       0.628   1.883   0.000  -2.510  -0.000   0.000
   20    1    2    3        3       0.628   1.883   0.000  -2.510  -0.000   0.000
   33    9   10   15        3       0.628   1.883   0.000  -2.510  -0.000   0.000
   35   10   15    6        3       0.628   1.883   0.000  -2.510  -0.000   0.000
   42   17   16    5        3       0.628   1.883   0.000  -2.510  -0.000   0.000
   23    2    3    4        3       0.628   1.883   0.000  -2.510  -0.000   0.000
   29    7    8    9        3       0.628   1.883   0.000  -2.510  -0.000   0.000
   30    7    6    5        3       0.628   1.883   0.000  -2.510  -0.000   0.000
   29    7    6   15        3       0.628   1.883   0.000  -2.510  -0.000   0.000
   33    9    8    7        3       0.628   1.883   0.000  -2.510  -0.000   0.000
   41   16    5    4        3       0.628   1.883   0.000  -2.510  -0.000   0.000
   46   19   18   16        3       0.628   1.883   0.000  -2.510  -0.000   0.000
   28    6    5    4        3       0.628   1.883   0.000  -2.510  -0.000   0.000
   41   16    5    6        3       0.628   1.883   0.000  -2.510  -0.000   0.000
   25    4    5    6        3       0.628   1.883   0.000  -2.510  -0.000   0.000
   32    8    7   29        3       0.628   1.883   0.000  -2.510  -0.000   0.000
   32    8    7   30        3       0.628   1.883   0.000  -2.510  -0.000   0.000
   39   15    6   28        3       0.628   1.883   0.000  -2.510  -0.000   0.000
   27    5    4   26        3       0.628   1.883   0.000  -2.510  -0.000   0.000
   42   17    3   24        3       0.628   1.883   0.000  -2.510  -0.000   0.000
   42   17   16   41        3       0.628   1.883   0.000  -2.510  -0.000   0.000
   24    3    2   23        3       0.628   1.883   0.000  -2.510  -0.000   0.000
   33    9    8   32        3       0.628   1.883   0.000  -2.510  -0.000   0.000
   34    9    8   31        3       0.628   1.883   0.000  -2.510  -0.000   0.000
   31    8    7   29        3       0.628   1.883   0.000  -2.510  -0.000   0.000
   45   19   18   44        3       0.628   1.883   0.000  -2.510  -0.000   0.000
   34    9    8   32        3       0.628   1.883   0.000  -2.510  -0.000   0.000
   43   17    3   24        3       0.628   1.883   0.000  -2.510  -0.000   0.000
   35   10    9   33        3       0.628   1.883   0.000  -2.510  -0.000   0.000
   44   18    2   23        3       0.628   1.883   0.000  -2.510  -0.000   0.000
   47   19   18   44        3       0.628   1.883   0.000  -2.510  -0.000   0.000
   43   17   16   41        3       0.628   1.883   0.000  -2.510  -0.000   0.000
   39   15   10   35        3       0.628   1.883   0.000  -2.510  -0.000   0.000
   26    4    3   24        3       0.628   1.883   0.000  -2.510  -0.000   0.000
   40   15    6   28        3       0.628   1.883   0.000  -2.510  -0.000   0.000
   23    2    1   20        3       0.628   1.883   0.000  -2.510  -0.000   0.000
   31    8    7   30        3       0.628   1.883   0.000  -2.510  -0.000   0.000
   33    9    8   31        3       0.628   1.883   0.000  -2.510  -0.000   0.000
   28    6    5   27        3       0.628   1.883   0.000  -2.510  -0.000   0.000
   23    2    1   21        3       0.628   1.883   0.000  -2.510  -0.000   0.000
   40   15   10   35        3       0.628   1.883   0.000  -2.510  -0.000   0.000
   25    4    3   24        3       0.628   1.883   0.000  -2.510  -0.000   0.000
   35   10    9   34        3       0.628   1.883   0.000  -2.510  -0.000   0.000
   23    2    1   22        3       0.628   1.883   0.000  -2.510  -0.000   0.000
   44   18   16   41        3       0.628   1.883   0.000  -2.510  -0.000   0.000
   27    5    4   25        3       0.628   1.883   0.000  -2.510  -0.000   0.000
   46   19   18   44        3       0.628   1.883   0.000  -2.510  -0.000   0.000
   30    7    6   28        3       0.628   1.883   0.000  -2.510  -0.000   0.000
   41   16    5   27        3       0.628   1.883   0.000  -2.510  -0.000   0.000
   29    7    6   28        3       0.628   1.883   0.000  -2.510  -0.000   0.000
   34    9   10   11        3       0.946   2.837   0.000  -3.782  -0.000   0.000
   33    9   10   11        3       0.946   2.837   0.000  -3.782  -0.000   0.000
   39   15   10   11        3       0.946   2.837   0.000  -3.782  -0.000   0.000
   40   15   10   11        3       0.946   2.837   0.000  -3.782  -0.000   0.000
   36   12   11   10        3       0.732   2.197   0.000  -2.929  -0.000   0.000
   37   12   11   10        3       0.732   2.197   0.000  -2.929  -0.000   0.000
   35   10   11   12        3       0.732   2.197   0.000  -2.929  -0.000   0.000
   38   12   11   10        3       0.732   2.197   0.000  -2.929  -0.000   0.000
   38   12   11   14        3       0.732   2.197   0.000  -2.929  -0.000   0.000
   35   10   11   13        3       0.732   2.197   0.000  -2.929  -0.000   0.000
   38   12   11   13        3       0.732   2.197   0.000  -2.929  -0.000   0.000
   36   12   11   13        3       0.732   2.197   0.000  -2.929  -0.000   0.000
   37   12   11   14        3       0.732   2.197   0.000  -2.929  -0.000   0.000
   36   12   11   14        3       0.732   2.197   0.000  -2.929  -0.000   0.000
   37   12   11   13        3       0.732   2.197   0.000  -2.929  -0.000   0.000
   35   10   11   14        3       0.732   2.197   0.000  -2.929  -0.000   0.000
   14   11   10    9        3       0.000   0.000   0.000  -0.000  -0.000   0.000
   13   11   10    9        3       0.000   0.000   0.000  -0.000  -0.000   0.000
   11   10   15    6        3       2.784   0.278   0.828  -3.891  -0.000   0.000
   11   10    9    8        3       2.784   0.278   0.828  -3.891  -0.000   0.000

[ pairs ]
     1     4    1
     2     5    1
     3     6    1
     4     7    1
     5     8    1
     6     9    1
     5    10    1
     7    10    1
     6    11    1
     1    16    1
     1    17    1
     8    11    1
     4    15    1
     1    19    1
     9    12    1
     9    13    1
     4    18    1
     3    19    1
     9    14    1
     8    15    1
     7    16    1
     6    17    1
     3    20    1
     6    18    1
     5    19    1
     3    21    1
     3    22    1
     1    24    1
    12    15    1
     4    23    1
     2    25    1
    13    15    1
     2    26    1
    14    15    1
     5    24    1
     3    27    1
    15    16    1
     6    25    1
     6    26    1
     4    28    1
     7    27    1
     5    29    1
     5    30    1
    17    19    1
     8    28    1
     6    31    1
    18    20    1
    10    28    1
     9    29    1
     6    32    1
    18    21    1
    16    23    1
     9    30    1
    18    22    1
    17    23    1
    16    24    1
     7    33    1
    16    25    1
    10    31    1
     7    34    1
     6    35    1
    19    23    1
    18    24    1
    17    25    1
    16    26    1
    15    27    1
    10    32    1
    20    23    1
    17    26    1
     8    35    1
     2    41    1
    21    23    1
    17    27    1
    16    28    1
    15    29    1
    11    33    1
     5    39    1
     3    41    1
     2    42    1
    22    23    1
    18    27    1
    15    30    1
    11    34    1
     5    40    1
     4    41    1
     2    43    1
     1    44    1
    10    36    1
     7    39    1
     4    42    1
    23    24    1
    12    35    1
    10    37    1
     7    40    1
     6    41    1
     5    42    1
     4    43    1
     3    44    1
     2    45    1
    15    33    1
    13    35    1
    10    38    1
     9    39    1
     5    43    1
     2    46    1
    24    25    1
    15    34    1
    14    35    1
    13    36    1
     9    40    1
     5    44    1
     2    47    1
    24    26    1
    14    36    1
    13    37    1
    11    39    1
    14    37    1
    13    38    1
    11    40    1
    25    27    1
    14    38    1
    26    27    1
    27    28    1
    28    29    1
    28    30    1
    29    31    1
    19    41    1
    18    42    1
    30    31    1
    29    32    1
    18    43    1
    17    44    1
    16    45    1
    30    32    1
    16    46    1
    16    47    1
    31    33    1
    32    33    1
    31    34    1
    32    34    1
    24    42    1
    28    39    1
    24    43    1
    23    44    1
    33    35    1
    28    40    1
    27    41    1
    34    35    1
    35    39    1
    35    40    1
    41    42    1
    41    43    1
    41    44    1
    44    45    1
    44    46    1
    44    47    1

