LIGPARGEN GENERATED GRO FILE
   47
    1UNK    C00    1   0.100   0.100   0.000
    1UNK    C01    2  -0.052   0.100   0.000
    1UNK    C02    3  -0.121   0.100   0.140
    1UNK    C03    4  -0.079   0.218   0.230
    1UNK    C04    5  -0.133   0.341   0.155
    1UNK    C05    6  -0.225   0.441   0.233
    1UNK    C06    7  -0.177   0.496   0.370
    1UNK    C07    8  -0.086   0.620   0.369
    1UNK    C08    9  -0.110   0.721   0.255
    1UNK    C09   10  -0.132   0.645   0.125
    1UNK    S0A   11  -0.131   0.742  -0.023
    1UNK    C0B   12  -0.146   0.618  -0.152
    1UNK    O0C   13  -0.250   0.824  -0.026
    1UNK    O0D   14   0.001   0.800  -0.037
    1UNK    C0E   15  -0.259   0.561   0.143
    1UNK    C0F   16  -0.212   0.274   0.037
    1UNK    C0G   17  -0.262   0.145   0.101
    1UNK    C0H   18  -0.112   0.225  -0.069
    1UNK    C0I   19  -0.181   0.193  -0.201
    1UNK    H0J   20   0.139   0.012   0.053
    1UNK    H0K   21   0.142   0.190   0.047
    1UNK    H0M   22   0.137   0.096  -0.103
    1UNK    H0N   23  -0.085   0.010  -0.054
    1UNK    H0O   24  -0.115   0.003   0.190
    1UNK    H0P   25   0.029   0.223   0.244
    1UNK    H0Q   26  -0.126   0.208   0.329
    1UNK    H0R   27  -0.046   0.394   0.116
    1UNK    H0S   28  -0.319   0.387   0.254
    1UNK    H0T   29  -0.131   0.417   0.430
    1UNK    H0U   30  -0.268   0.525   0.425
    1UNK    H0V   31   0.018   0.587   0.363
    1UNK    H0W   32  -0.096   0.673   0.465
    1UNK    H0X   33  -0.024   0.789   0.247
    1UNK    H0Y   34  -0.197   0.784   0.278
    1UNK    H0Z   35  -0.043   0.584   0.111
    1UNK    H10   36  -0.247   0.577  -0.151
    1UNK    H11   37  -0.072   0.540  -0.134
    1UNK    H12   38  -0.127   0.666  -0.248
    1UNK    H13   39  -0.301   0.529   0.049
    1UNK    H14   40  -0.338   0.621   0.190
    1UNK    H15   41  -0.292   0.335  -0.006
    1UNK    H16   42  -0.311   0.077   0.031
    1UNK    H17   43  -0.327   0.161   0.187
    1UNK    H18   44  -0.035   0.301  -0.088
    1UNK    H19   45  -0.259   0.118  -0.189
    1UNK    H1A   46  -0.109   0.155  -0.274
    1UNK    H1B   47  -0.227   0.283  -0.242
   1.00000   1.00000   1.00000

