LIGPARGEN GENERATED GRO FILE
   34
    1UNK    C00    1   0.100   0.100   0.000
    1UNK    C01    2  -0.053   0.100   0.000
    1UNK    C02    3  -0.104   0.100   0.144
    1UNK    C03    4  -0.105   0.220  -0.082
    1UNK    C04    5  -0.258   0.227  -0.087
    1UNK    C05    6  -0.306   0.347  -0.168
    1UNK    C06    7  -0.460   0.356  -0.175
    1UNK    C07    8  -0.522   0.373  -0.035
    1UNK    C08    9  -0.512   0.468  -0.271
    1UNK    C09   10  -0.467   0.609  -0.229
    1UNK    S0A   11  -0.460   0.445  -0.446
    1UNK    C0B   12  -0.535   0.297  -0.477
    1UNK    N0C   13  -0.587   0.196  -0.498
    1UNK    H0D   14   0.139   0.013   0.055
    1UNK    H0E   15   0.140   0.191   0.048
    1UNK    H0F   16   0.139   0.095  -0.102
    1UNK    H0G   17  -0.087   0.007  -0.048
    1UNK    H0H   18  -0.082   0.195   0.194
    1UNK    H0I   19  -0.059   0.019   0.202
    1UNK    H0J   20  -0.213   0.085   0.148
    1UNK    H0K   21  -0.066   0.213  -0.184
    1UNK    H0M   22  -0.066   0.313  -0.039
    1UNK    H0N   23  -0.296   0.236   0.015
    1UNK    H0O   24  -0.298   0.134  -0.129
    1UNK    H0P   25  -0.264   0.338  -0.269
    1UNK    H0Q   26  -0.265   0.438  -0.125
    1UNK    H0R   27  -0.498   0.260  -0.213
    1UNK    H0S   28  -0.479   0.459   0.018
    1UNK    H0T   29  -0.506   0.284   0.026
    1UNK    H0U   30  -0.630   0.388  -0.042
    1UNK    H0V   31  -0.621   0.467  -0.270
    1UNK    H0W   32  -0.358   0.619  -0.228
    1UNK    H0X   33  -0.503   0.633  -0.128
    1UNK    H0Y   34  -0.507   0.685  -0.296
   1.00000   1.00000   1.00000

