LIGPARGEN GENERATED GRO FILE
   35
    1UNK    C00    1   0.100   0.100   0.000
    1UNK    C01    2  -0.053   0.100   0.000
    1UNK    C02    3  -0.115   0.100   0.142
    1UNK    O03    4  -0.064   0.212   0.218
    1UNK    C04    5  -0.086   0.343   0.170
    1UNK    C05    6  -0.270   0.108   0.133
    1UNK    C06    7  -0.337   0.085   0.271
    1UNK    C07    8  -0.282  -0.043   0.319
    1UNK    C08    9  -0.245  -0.100   0.447
    1UNK    C09   10  -0.304  -0.034   0.569
    1UNK    C0A   11  -0.132  -0.035   0.359
    1UNK    C0B   12  -0.040   0.038   0.455
    1UNK    C0C   13  -0.072  -0.034   0.219
    1UNK    H0D   14   0.137   0.122  -0.101
    1UNK    H0E   15   0.140   0.003   0.029
    1UNK    H0F   16   0.141   0.175   0.067
    1UNK    H0G   17  -0.088   0.013  -0.056
    1UNK    H0H   18  -0.087   0.189  -0.054
    1UNK    H0I   19  -0.044   0.413   0.243
    1UNK    H0J   20  -0.192   0.366   0.160
    1UNK    H0K   21  -0.034   0.360   0.075
    1UNK    H0M   22  -0.306   0.031   0.064
    1UNK    H0N   23  -0.305   0.204   0.093
    1UNK    H0O   24  -0.445   0.077   0.258
    1UNK    H0P   25  -0.317   0.169   0.339
    1UNK    H0Q   26  -0.316  -0.121   0.251
    1UNK    H0R   27  -0.242  -0.207   0.459
    1UNK    H0S   28  -0.313   0.074   0.558
    1UNK    H0T   29  -0.242  -0.054   0.657
    1UNK    H0U   30  -0.405  -0.073   0.588
    1UNK    H0V   31  -0.088   0.082   0.543
    1UNK    H0W   32   0.018   0.119   0.408
    1UNK    H0X   33   0.034  -0.034   0.491
    1UNK    H0Y   34  -0.102  -0.122   0.161
    1UNK    H0Z   35   0.037  -0.038   0.228
   1.00000   1.00000   1.00000

