LIGPARGEN GENERATED GRO FILE
   33
    1UNK    C00    1   0.100   0.100   0.000
    1UNK    C01    2  -0.052   0.100   0.000
    1UNK    C02    3  -0.112   0.100   0.141
    1UNK    C03    4  -0.265   0.107   0.135
    1UNK    C04    5  -0.332  -0.016   0.068
    1UNK    C05    6  -0.437  -0.071   0.166
    1UNK    C06    7  -0.377  -0.190   0.244
    1UNK    C07    8  -0.473  -0.261   0.343
    1UNK    C08    9  -0.371  -0.236   0.454
    1UNK    C09   10  -0.306  -0.125   0.368
    1UNK    C0A   11  -0.354   0.018   0.376
    1UNK    C0B   12  -0.333   0.125   0.269
    1UNK    C0C   13  -0.453   0.040   0.267
    1UNK    H0D   14   0.137   0.092  -0.103
    1UNK    H0E   15   0.140   0.015   0.056
    1UNK    H0F   16   0.140   0.193   0.043
    1UNK    H0G   17  -0.086   0.012  -0.056
    1UNK    H0H   18  -0.087   0.188  -0.055
    1UNK    H0I   19  -0.074   0.187   0.197
    1UNK    H0J   20  -0.079   0.011   0.196
    1UNK    H0K   21  -0.291   0.195   0.075
    1UNK    H0M   22  -0.260  -0.093   0.038
    1UNK    H0N   23  -0.382   0.018  -0.024
    1UNK    H0O   24  -0.530  -0.099   0.114
    1UNK    H0P   25  -0.315  -0.260   0.186
    1UNK    H0Q   26  -0.493  -0.367   0.320
    1UNK    H0R   27  -0.569  -0.210   0.358
    1UNK    H0S   28  -0.304  -0.322   0.472
    1UNK    H0T   29  -0.413  -0.204   0.550
    1UNK    H0U   30  -0.197  -0.131   0.366
    1UNK    H0V   31  -0.380   0.047   0.477
    1UNK    H0W   32  -0.340   0.229   0.299
    1UNK    H0X   33  -0.552   0.078   0.287
   1.00000   1.00000   1.00000

