LIGPARGEN GENERATED GRO FILE
   42
    1UNK    C00    1   0.100   0.100   0.000
    1UNK    C01    2  -0.053   0.100   0.000
    1UNK    C02    3  -0.115   0.100   0.141
    1UNK    O03    4  -0.068   0.220   0.207
    1UNK    C04    5   0.037   0.208   0.292
    1UNK    O05    6   0.076   0.104   0.343
    1UNK    O06    7   0.095   0.330   0.302
    1UNK    C07    8   0.211   0.353   0.386
    1UNK    C08    9   0.171   0.339   0.533
    1UNK    C09   10   0.329   0.261   0.352
    1UNK    C0A   11   0.258   0.498   0.356
    1UNK    C0B   12   0.150   0.605   0.370
    1UNK    C0C   13  -0.272   0.099   0.140
    1UNK    C0D   14  -0.326  -0.026   0.066
    1UNK    C0E   15  -0.327   0.094   0.284
    1UNK    C0F   16  -0.330   0.224   0.072
    1UNK    H0G   17   0.137   0.091  -0.103
    1UNK    H0H   18   0.140   0.016   0.058
    1UNK    H0I   19   0.140   0.194   0.040
    1UNK    H0J   20  -0.086   0.013  -0.056
    1UNK    H0K   21  -0.084   0.190  -0.055
    1UNK    H0M   22  -0.081   0.011   0.195
    1UNK    H0N   23   0.149   0.234   0.558
    1UNK    H0O   24   0.080   0.395   0.555
    1UNK    H0P   25   0.251   0.372   0.600
    1UNK    H0Q   26   0.307   0.155   0.372
    1UNK    H0R   27   0.418   0.286   0.411
    1UNK    H0S   28   0.356   0.268   0.246
    1UNK    H0T   29   0.294   0.503   0.252
    1UNK    H0U   30   0.342   0.525   0.420
    1UNK    H0V   31   0.067   0.587   0.301
    1UNK    H0W   32   0.192   0.703   0.346
    1UNK    H0X   33   0.111   0.610   0.472
    1UNK    H0Y   34  -0.288  -0.118   0.112
    1UNK    H0Z   35  -0.297  -0.027  -0.040
    1UNK    H10   36  -0.435  -0.030   0.069
    1UNK    H11   37  -0.293   0.003   0.336
    1UNK    H12   38  -0.436   0.093   0.285
    1UNK    H13   39  -0.294   0.180   0.343
    1UNK    H14   40  -0.300   0.231  -0.033
    1UNK    H15   41  -0.298   0.316   0.123
    1UNK    H16   42  -0.440   0.223   0.073
   1.00000   1.00000   1.00000

