
;
; GENERATED BY LigParGen Server
; Jorgensen Lab @ Yale University 
;
[ atomtypes ]
  opls_818  H818     1.0080     0.000    A    2.50000E-01   1.25520E-01
  opls_814  C814    12.0110     0.000    A    3.50000E-01   2.76144E-01
  opls_803  O803    15.9990     0.000    A    2.90000E-01   5.85760E-01
  opls_824  H824     1.0080     0.000    A    2.50000E-01   1.25520E-01
  opls_815  C815    12.0110     0.000    A    3.50000E-01   2.76144E-01
  opls_805  O805    15.9990     0.000    A    2.96000E-01   8.78640E-01
  opls_836  H836     1.0080     0.000    A    2.50000E-01   1.25520E-01
  opls_834  H834     1.0080     0.000    A    2.50000E-01   1.25520E-01
  opls_828  H828     1.0080     0.000    A    2.50000E-01   1.25520E-01
  opls_812  C812    12.0110     0.000    A    3.50000E-01   2.76144E-01
  opls_806  O806    15.9990     0.000    A    2.90000E-01   5.85760E-01
  opls_802  C802    12.0110     0.000    A    3.50000E-01   2.76144E-01
  opls_827  H827     1.0080     0.000    A    2.50000E-01   1.25520E-01
  opls_809  C809    12.0110     0.000    A    3.50000E-01   2.76144E-01
  opls_838  H838     1.0080     0.000    A    2.50000E-01   1.25520E-01
  opls_822  H822     1.0080     0.000    A    2.50000E-01   1.25520E-01
  opls_807  C807    12.0110     0.000    A    3.50000E-01   2.76144E-01
  opls_825  H825     1.0080     0.000    A    2.50000E-01   1.25520E-01
  opls_830  H830     1.0080     0.000    A    2.50000E-01   1.25520E-01
  opls_821  H821     1.0080     0.000    A    2.50000E-01   1.25520E-01
  opls_820  H820     1.0080     0.000    A    2.50000E-01   1.25520E-01
  opls_837  H837     1.0080     0.000    A    2.50000E-01   1.25520E-01
  opls_829  H829     1.0080     0.000    A    2.50000E-01   1.25520E-01
  opls_831  H831     1.0080     0.000    A    2.50000E-01   1.25520E-01
  opls_804  C804    12.0110     0.000    A    3.55000E-01   2.92880E-01
  opls_816  H816     1.0080     0.000    A    2.50000E-01   1.25520E-01
  opls_800  C800    12.0110     0.000    A    3.50000E-01   2.76144E-01
  opls_811  C811    12.0110     0.000    A    3.50000E-01   2.76144E-01
  opls_823  H823     1.0080     0.000    A    2.50000E-01   1.25520E-01
  opls_813  C813    12.0110     0.000    A    3.50000E-01   2.76144E-01
  opls_826  H826     1.0080     0.000    A    2.50000E-01   1.25520E-01
  opls_835  H835     1.0080     0.000    A    2.50000E-01   1.25520E-01
  opls_841  H841     1.0080     0.000    A    2.50000E-01   1.25520E-01
  opls_819  H819     1.0080     0.000    A    2.50000E-01   1.25520E-01
  opls_810  C810    12.0110     0.000    A    3.50000E-01   2.76144E-01
  opls_833  H833     1.0080     0.000    A    2.50000E-01   1.25520E-01
  opls_839  H839     1.0080     0.000    A    2.50000E-01   1.25520E-01
  opls_801  C801    12.0110     0.000    A    3.50000E-01   2.76144E-01
  opls_808  C808    12.0110     0.000    A    3.50000E-01   2.76144E-01
  opls_817  H817     1.0080     0.000    A    2.50000E-01   1.25520E-01
  opls_832  H832     1.0080     0.000    A    2.50000E-01   1.25520E-01
  opls_840  H840     1.0080     0.000    A    2.50000E-01   1.25520E-01
[ moleculetype ]
; Name               nrexcl
UNK                   3
[ atoms ]
;   nr       type  resnr residue  atom   cgnr     charge       mass  
     1   opls_800      1    UNK   C00      1    -0.2477    12.0110 
     2   opls_801      1    UNK   C01      1    -0.2026    12.0110 
     3   opls_802      1    UNK   C02      1     0.0958    12.0110 
     4   opls_803      1    UNK   O03      1    -0.3371    15.9990 
     5   opls_804      1    UNK   C04      1     0.5951    12.0110 
     6   opls_805      1    UNK   O05      1    -0.5037    15.9990 
     7   opls_806      1    UNK   O06      1    -0.3464    15.9990 
     8   opls_807      1    UNK   C07      1     0.1681    12.0110 
     9   opls_808      1    UNK   C08      1    -0.2722    12.0110 
    10   opls_809      1    UNK   C09      1    -0.2763    12.0110 
    11   opls_810      1    UNK   C0A      1    -0.1698    12.0110 
    12   opls_811      1    UNK   C0B      1    -0.2375    12.0110 
    13   opls_812      1    UNK   C0C      1    -0.0501    12.0110 
    14   opls_813      1    UNK   C0D      1    -0.2318    12.0110 
    15   opls_814      1    UNK   C0E      1    -0.2354    12.0110 
    16   opls_815      1    UNK   C0F      1    -0.2294    12.0110 
    17   opls_816      1    UNK   H0G      1     0.0883     1.0080 
    18   opls_817      1    UNK   H0H      1     0.0883     1.0080 
    19   opls_818      1    UNK   H0I      1     0.0883     1.0080 
    20   opls_819      1    UNK   H0J      1      0.105     1.0080 
    21   opls_820      1    UNK   H0K      1      0.105     1.0080 
    22   opls_821      1    UNK   H0M      1     0.1317     1.0080 
    23   opls_822      1    UNK   H0N      1     0.1029     1.0080 
    24   opls_823      1    UNK   H0O      1     0.1029     1.0080 
    25   opls_824      1    UNK   H0P      1     0.1029     1.0080 
    26   opls_825      1    UNK   H0Q      1     0.1043     1.0080 
    27   opls_826      1    UNK   H0R      1     0.1043     1.0080 
    28   opls_827      1    UNK   H0S      1     0.1043     1.0080 
    29   opls_828      1    UNK   H0T      1     0.1013     1.0080 
    30   opls_829      1    UNK   H0U      1     0.1013     1.0080 
    31   opls_830      1    UNK   H0V      1      0.088     1.0080 
    32   opls_831      1    UNK   H0W      1      0.088     1.0080 
    33   opls_832      1    UNK   H0X      2      0.088     1.0080 
    34   opls_833      1    UNK   H0Y      2     0.0865     1.0080 
    35   opls_834      1    UNK   H0Z      2     0.0865     1.0080 
    36   opls_835      1    UNK   H10      2     0.0865     1.0080 
    37   opls_836      1    UNK   H11      2      0.088     1.0080 
    38   opls_837      1    UNK   H12      2      0.088     1.0080 
    39   opls_838      1    UNK   H13      2      0.088     1.0080 
    40   opls_839      1    UNK   H14      2     0.0875     1.0080 
    41   opls_840      1    UNK   H15      2     0.0875     1.0080 
    42   opls_841      1    UNK   H16      2     0.0875     1.0080 
[ bonds ]
    2     1     1      0.1529 224262.400
    3     2     1      0.1529 224262.400
    4     3     1      0.1410 267776.000
    5     4     1      0.1327 179075.200
    6     5     1      0.1229 476976.000
    7     5     1      0.1327 179075.200
    8     7     1      0.1410 267776.000
    9     8     1      0.1529 224262.400
   10     8     1      0.1529 224262.400
   11     8     1      0.1529 224262.400
   12    11     1      0.1529 224262.400
   13     3     1      0.1529 224262.400
   14    13     1      0.1529 224262.400
   15    13     1      0.1529 224262.400
   16    13     1      0.1529 224262.400
   17     1     1      0.1090 284512.000
   18     1     1      0.1090 284512.000
   19     1     1      0.1090 284512.000
   20     2     1      0.1090 284512.000
   21     2     1      0.1090 284512.000
   22     3     1      0.1090 284512.000
   23     9     1      0.1090 284512.000
   24     9     1      0.1090 284512.000
   25     9     1      0.1090 284512.000
   26    10     1      0.1090 284512.000
   27    10     1      0.1090 284512.000
   28    10     1      0.1090 284512.000
   29    11     1      0.1090 284512.000
   30    11     1      0.1090 284512.000
   31    12     1      0.1090 284512.000
   32    12     1      0.1090 284512.000
   33    12     1      0.1090 284512.000
   34    14     1      0.1090 284512.000
   35    14     1      0.1090 284512.000
   36    14     1      0.1090 284512.000
   37    15     1      0.1090 284512.000
   38    15     1      0.1090 284512.000
   39    15     1      0.1090 284512.000
   40    16     1      0.1090 284512.000
   41    16     1      0.1090 284512.000
   42    16     1      0.1090 284512.000

[ angles ]
;  ai    aj    ak funct            c0            c1            c2            c3 
    1     2     3     1    112.700    488.273
    2     3     4     1    109.500    418.400
    3     4     5     1    116.900    694.544
    4     5     6     1    123.400    694.544
    4     5     7     1    118.180    584.923
    5     7     8     1    116.900    694.544
    7     8     9     1    109.500    418.400
    7     8    10     1    109.500    418.400
    7     8    11     1    109.500    418.400
    8    11    12     1    112.700    488.273
    2     3    13     1    112.700    488.273
    3    13    14     1    112.700    488.273
    3    13    15     1    112.700    488.273
    3    13    16     1    112.700    488.273
    2     1    17     1    110.700    313.800
    2     1    18     1    110.700    313.800
    2     1    19     1    110.700    313.800
    1     2    20     1    110.700    313.800
    1     2    21     1    110.700    313.800
    2     3    22     1    110.700    313.800
    8     9    23     1    110.700    313.800
    8     9    24     1    110.700    313.800
    8     9    25     1    110.700    313.800
    8    10    26     1    110.700    313.800
    8    10    27     1    110.700    313.800
    8    10    28     1    110.700    313.800
    8    11    29     1    110.700    313.800
    8    11    30     1    110.700    313.800
   11    12    31     1    110.700    313.800
   11    12    32     1    110.700    313.800
   11    12    33     1    110.700    313.800
   13    14    34     1    110.700    313.800
   13    14    35     1    110.700    313.800
   13    14    36     1    110.700    313.800
   13    15    37     1    110.700    313.800
   13    15    38     1    110.700    313.800
   13    15    39     1    110.700    313.800
   13    16    40     1    110.700    313.800
   13    16    41     1    110.700    313.800
   13    16    42     1    110.700    313.800
   23     9    24     1    107.800    276.144
   26    10    27     1    107.800    276.144
   27    10    28     1    107.800    276.144
    3     2    20     1    110.700    313.800
   31    12    33     1    107.800    276.144
   10     8    11     1    112.700    488.273
   15    13    16     1    112.700    488.273
   26    10    28     1    107.800    276.144
    3     2    21     1    110.700    313.800
   31    12    32     1    107.800    276.144
   34    14    36     1    107.800    276.144
    4     3    22     1    109.500    292.880
    9     8    10     1    112.700    488.273
   32    12    33     1    107.800    276.144
   12    11    30     1    110.700    313.800
   14    13    15     1    112.700    488.273
   18     1    19     1    107.800    276.144
   41    16    42     1    107.800    276.144
   37    15    39     1    107.800    276.144
   24     9    25     1    107.800    276.144
   17     1    19     1    107.800    276.144
   35    14    36     1    107.800    276.144
    6     5     7     1    123.400    694.544
   40    16    41     1    107.800    276.144
   13     3    22     1    110.700    313.800
   14    13    16     1    112.700    488.273
   20     2    21     1    107.800    276.144
    9     8    11     1    112.700    488.273
   17     1    18     1    107.800    276.144
   34    14    35     1    107.800    276.144
   37    15    38     1    107.800    276.144
   40    16    42     1    107.800    276.144
   23     9    25     1    107.800    276.144
    4     3    13     1    109.500    418.400
   38    15    39     1    107.800    276.144
   29    11    30     1    107.800    276.144
   12    11    29     1    110.700    313.800

[ dihedrals ]
; IMPROPER DIHEDRAL ANGLES 
;  ai    aj    ak    al funct            c0            c1            c2            c3            c4            c5
     7     5     4     6    4        180.000     43.932     2  

[ dihedrals ]
; PROPER DIHEDRAL ANGLES
;  ai    aj    ak    al funct            c0            c1            c2            c3            c4            c5
    5    4    3    2        3      -2.197   5.201   0.527  -3.531  -0.000   0.000
   13    3    2    1        3       2.301  -1.464   0.837  -1.674  -0.000   0.000
   12   11    8   10        3       2.301  -1.464   0.837  -1.674  -0.000   0.000
   15   13    3    2        3       2.301  -1.464   0.837  -1.674  -0.000   0.000
   16   13    3    2        3       2.301  -1.464   0.837  -1.674  -0.000   0.000
   12   11    8    9        3       2.301  -1.464   0.837  -1.674  -0.000   0.000
   14   13    3    2        3       2.301  -1.464   0.837  -1.674  -0.000   0.000
   16   13    3    4        3       2.874   0.582   2.092  -5.548  -0.000   0.000
   15   13    3    4        3       2.874   0.582   2.092  -5.548  -0.000   0.000
   14   13    3    4        3       2.874   0.582   2.092  -5.548  -0.000   0.000
   12   11    8    7        3       2.874   0.582   2.092  -5.548  -0.000   0.000
   10    8    7    5        3      -2.197   5.201   0.527  -3.531  -0.000   0.000
    9    8    7    5        3      -2.197   5.201   0.527  -3.531  -0.000   0.000
   13    3    4    5        3      -2.197   5.201   0.527  -3.531  -0.000   0.000
   11    8    7    5        3      -2.197   5.201   0.527  -3.531  -0.000   0.000
    8    7    5    6        3      21.439   0.000  -21.439  -0.000  -0.000   0.000
    8    7    5    4        3      31.206  -9.768  -21.439  -0.000  -0.000   0.000
   42   16   13    3        3       0.628   1.883   0.000  -2.510  -0.000   0.000
   24    9    8   11        3       0.628   1.883   0.000  -2.510  -0.000   0.000
   32   12   11    8        3       0.628   1.883   0.000  -2.510  -0.000   0.000
   36   14   13    3        3       0.628   1.883   0.000  -2.510  -0.000   0.000
   28   10    8   11        3       0.628   1.883   0.000  -2.510  -0.000   0.000
   42   16   13   14        3       0.628   1.883   0.000  -2.510  -0.000   0.000
   39   15   13   14        3       0.628   1.883   0.000  -2.510  -0.000   0.000
   26   10    8    9        3       0.628   1.883   0.000  -2.510  -0.000   0.000
   40   16   13   14        3       0.628   1.883   0.000  -2.510  -0.000   0.000
   42   16   13   15        3       0.628   1.883   0.000  -2.510  -0.000   0.000
   41   16   13    3        3       0.628   1.883   0.000  -2.510  -0.000   0.000
   18    1    2    3        3       0.628   1.883   0.000  -2.510  -0.000   0.000
   39   15   13   16        3       0.628   1.883   0.000  -2.510  -0.000   0.000
   37   15   13   16        3       0.628   1.883   0.000  -2.510  -0.000   0.000
   41   16   13   14        3       0.628   1.883   0.000  -2.510  -0.000   0.000
   36   14   13   15        3       0.628   1.883   0.000  -2.510  -0.000   0.000
   34   14   13   16        3       0.628   1.883   0.000  -2.510  -0.000   0.000
   33   12   11    8        3       0.628   1.883   0.000  -2.510  -0.000   0.000
   38   15   13   16        3       0.628   1.883   0.000  -2.510  -0.000   0.000
   38   15   13    3        3       0.628   1.883   0.000  -2.510  -0.000   0.000
   35   14   13    3        3       0.628   1.883   0.000  -2.510  -0.000   0.000
   34   14   13   15        3       0.628   1.883   0.000  -2.510  -0.000   0.000
   28   10    8    9        3       0.628   1.883   0.000  -2.510  -0.000   0.000
   35   14   13   15        3       0.628   1.883   0.000  -2.510  -0.000   0.000
   35   14   13   16        3       0.628   1.883   0.000  -2.510  -0.000   0.000
   25    9    8   10        3       0.628   1.883   0.000  -2.510  -0.000   0.000
   30   11    8    9        3       0.628   1.883   0.000  -2.510  -0.000   0.000
   21    2    3   13        3       0.628   1.883   0.000  -2.510  -0.000   0.000
   26   10    8   11        3       0.628   1.883   0.000  -2.510  -0.000   0.000
   40   16   13   15        3       0.628   1.883   0.000  -2.510  -0.000   0.000
   30   11    8   10        3       0.628   1.883   0.000  -2.510  -0.000   0.000
   22    3   13   15        3       0.628   1.883   0.000  -2.510  -0.000   0.000
   38   15   13   14        3       0.628   1.883   0.000  -2.510  -0.000   0.000
   29   11    8   10        3       0.628   1.883   0.000  -2.510  -0.000   0.000
   36   14   13   16        3       0.628   1.883   0.000  -2.510  -0.000   0.000
   22    3   13   16        3       0.628   1.883   0.000  -2.510  -0.000   0.000
   41   16   13   15        3       0.628   1.883   0.000  -2.510  -0.000   0.000
   37   15   13   14        3       0.628   1.883   0.000  -2.510  -0.000   0.000
   37   15   13    3        3       0.628   1.883   0.000  -2.510  -0.000   0.000
   31   12   11    8        3       0.628   1.883   0.000  -2.510  -0.000   0.000
   40   16   13    3        3       0.628   1.883   0.000  -2.510  -0.000   0.000
   29   11    8    9        3       0.628   1.883   0.000  -2.510  -0.000   0.000
   27   10    8    9        3       0.628   1.883   0.000  -2.510  -0.000   0.000
   22    3    2    1        3       0.628   1.883   0.000  -2.510  -0.000   0.000
   39   15   13    3        3       0.628   1.883   0.000  -2.510  -0.000   0.000
   20    2    3   13        3       0.628   1.883   0.000  -2.510  -0.000   0.000
   34   14   13    3        3       0.628   1.883   0.000  -2.510  -0.000   0.000
   22    3   13   14        3       0.628   1.883   0.000  -2.510  -0.000   0.000
   25    9    8   11        3       0.628   1.883   0.000  -2.510  -0.000   0.000
   27   10    8   11        3       0.628   1.883   0.000  -2.510  -0.000   0.000
   17    1    2    3        3       0.628   1.883   0.000  -2.510  -0.000   0.000
   24    9    8   10        3       0.628   1.883   0.000  -2.510  -0.000   0.000
   23    9    8   10        3       0.628   1.883   0.000  -2.510  -0.000   0.000
   23    9    8   11        3       0.628   1.883   0.000  -2.510  -0.000   0.000
   19    1    2    3        3       0.628   1.883   0.000  -2.510  -0.000   0.000
   33   12   11   30        3       0.628   1.883   0.000  -2.510  -0.000   0.000
   32   12   11   29        3       0.628   1.883   0.000  -2.510  -0.000   0.000
   21    2    1   19        3       0.628   1.883   0.000  -2.510  -0.000   0.000
   32   12   11   30        3       0.628   1.883   0.000  -2.510  -0.000   0.000
   33   12   11   29        3       0.628   1.883   0.000  -2.510  -0.000   0.000
   20    2    1   18        3       0.628   1.883   0.000  -2.510  -0.000   0.000
   22    3    2   21        3       0.628   1.883   0.000  -2.510  -0.000   0.000
   31   12   11   29        3       0.628   1.883   0.000  -2.510  -0.000   0.000
   21    2    1   18        3       0.628   1.883   0.000  -2.510  -0.000   0.000
   31   12   11   30        3       0.628   1.883   0.000  -2.510  -0.000   0.000
   20    2    1   19        3       0.628   1.883   0.000  -2.510  -0.000   0.000
   22    3    2   20        3       0.628   1.883   0.000  -2.510  -0.000   0.000
   20    2    1   17        3       0.628   1.883   0.000  -2.510  -0.000   0.000
   21    2    1   17        3       0.628   1.883   0.000  -2.510  -0.000   0.000
   28   10    8    7        3       0.979   2.937   0.000  -3.916  -0.000   0.000
   29   11    8    7        3       0.979   2.937   0.000  -3.916  -0.000   0.000
   24    9    8    7        3       0.979   2.937   0.000  -3.916  -0.000   0.000
   30   11    8    7        3       0.979   2.937   0.000  -3.916  -0.000   0.000
   23    9    8    7        3       0.979   2.937   0.000  -3.916  -0.000   0.000
   25    9    8    7        3       0.979   2.937   0.000  -3.916  -0.000   0.000
   26   10    8    7        3       0.979   2.937   0.000  -3.916  -0.000   0.000
   21    2    3    4        3       0.979   2.937   0.000  -3.916  -0.000   0.000
   20    2    3    4        3       0.979   2.937   0.000  -3.916  -0.000   0.000
   27   10    8    7        3       0.979   2.937   0.000  -3.916  -0.000   0.000
   22    3    4    5        3       0.414   1.243   0.000  -1.657  -0.000   0.000
    6    5    4    3        3      21.439   0.000  -21.439  -0.000  -0.000   0.000
    7    5    4    3        3      31.206  -9.768  -21.439  -0.000  -0.000   0.000
    4    3    2    1        3       2.874   0.582   2.092  -5.548  -0.000   0.000

[ pairs ]
     1     4    1
     2     5    1
     3     6    1
     3     7    1
     4     8    1
     6     8    1
     5     9    1
     1    13    1
     5    10    1
     5    11    1
     2    14    1
     2    15    1
     5    13    1
     4    14    1
     2    16    1
     7    12    1
     4    15    1
     4    16    1
     3    17    1
     9    12    1
     3    18    1
    10    12    1
     3    19    1
     1    22    1
     4    20    1
     4    21    1
     5    22    1
     7    23    1
     7    24    1
     7    25    1
    13    20    1
    10    23    1
     7    26    1
    13    21    1
    11    23    1
    10    24    1
     7    27    1
    11    24    1
    10    25    1
     9    26    1
     7    28    1
    14    22    1
    11    25    1
     9    27    1
     7    29    1
    17    20    1
    15    22    1
    11    26    1
     9    28    1
     7    30    1
     3    34    1
    18    20    1
    17    21    1
    16    22    1
    11    27    1
     9    29    1
     3    35    1
    19    20    1
    18    21    1
    11    28    1
    10    29    1
     9    30    1
     8    31    1
     3    36    1
    19    21    1
    10    30    1
     8    32    1
     3    37    1
     8    33    1
     3    38    1
    20    22    1
     3    39    1
    21    22    1
     3    40    1
     3    41    1
     3    42    1
    15    34    1
    16    34    1
    15    35    1
    16    35    1
    15    36    1
    14    37    1
    16    36    1
    14    38    1
    16    37    1
    14    39    1
    16    38    1
    14    40    1
    16    39    1
    15    40    1
    14    41    1
    15    41    1
    14    42    1
    15    42    1
    29    31    1
    30    31    1
    29    32    1
    30    32    1
    29    33    1
    30    33    1

