LIGPARGEN GENERATED GRO FILE
   33
    1UNK    C00    1   0.100   0.100   0.000
    1UNK    C01    2  -0.052   0.100   0.000
    1UNK    C02    3  -0.115   0.100   0.140
    1UNK    Cl0    4  -0.067   0.249   0.230
    1UNK    C04    5  -0.269   0.094   0.137
    1UNK    C05    6  -0.330  -0.033   0.073
    1UNK    C06    7  -0.282  -0.159   0.146
    1UNK    C07    8  -0.484  -0.025   0.071
    1UNK    C08    9  -0.541   0.095  -0.006
    1UNK    C09   10  -0.685   0.055  -0.032
    1UNK    C0A   11  -0.677  -0.093  -0.066
    1UNK    C0B   12  -0.551  -0.146   0.002
    1UNK    H0C   13   0.137   0.093  -0.103
    1UNK    H0D   14   0.139   0.014   0.056
    1UNK    H0E   15   0.141   0.192   0.044
    1UNK    H0F   16  -0.084   0.011  -0.054
    1UNK    H0G   17  -0.088   0.186  -0.057
    1UNK    H0H   18  -0.075   0.017   0.199
    1UNK    H0I   19  -0.305   0.183   0.084
    1UNK    H0J   20  -0.307   0.103   0.240
    1UNK    H0K   21  -0.296  -0.039  -0.031
    1UNK    H0M   22  -0.303  -0.152   0.254
    1UNK    H0N   23  -0.175  -0.174   0.133
    1UNK    H0O   24  -0.331  -0.249   0.108
    1UNK    H0P   25  -0.521  -0.020   0.175
    1UNK    H0Q   26  -0.488   0.108  -0.101
    1UNK    H0R   27  -0.535   0.188   0.051
    1UNK    H0S   28  -0.731   0.113  -0.112
    1UNK    H0T   29  -0.745   0.069   0.060
    1UNK    H0U   30  -0.669  -0.106  -0.174
    1UNK    H0V   31  -0.767  -0.147  -0.033
    1UNK    H0W   32  -0.485  -0.190  -0.073
    1UNK    H0X   33  -0.575  -0.224   0.075
   1.00000   1.00000   1.00000

