LIGPARGEN GENERATED GRO FILE
   56
    1UNK    C00    1   0.100   0.100   0.000
    1UNK    C01    2  -0.052   0.100   0.000
    1UNK    C02    3  -0.108   0.100   0.143
    1UNK    C03    4  -0.261   0.100   0.142
    1UNK    C04    5  -0.330   0.100   0.283
    1UNK    C05    6  -0.482   0.100   0.257
    1UNK    C06    7  -0.297  -0.033   0.354
    1UNK    C07    8  -0.283   0.223   0.370
    1UNK    C08    9  -0.314   0.361   0.307
    1UNK    C09   10  -0.297   0.465   0.421
    1UNK    C0A   11  -0.384   0.592   0.392
    1UNK    C0B   12  -0.353   0.671   0.264
    1UNK    C0C   13  -0.450   0.788   0.247
    1UNK    N0D   14  -0.154   0.490   0.456
    1UNK    C0E   15  -0.065   0.530   0.347
    1UNK    C0F   16  -0.135   0.583   0.568
    1UNK    C0G   17  -0.366   0.385   0.536
    1UNK    C0H   18  -0.344   0.234   0.512
    1UNK    C0I   19  -0.257   0.172   0.621
    1UNK    H0J   20   0.138   0.100  -0.103
    1UNK    H0K   21   0.139   0.011   0.051
    1UNK    H0M   22   0.139   0.189   0.051
    1UNK    H0N   23  -0.088   0.012  -0.054
    1UNK    H0O   24  -0.088   0.189  -0.054
    1UNK    H0P   25  -0.069   0.188   0.195
    1UNK    H0Q   26  -0.070   0.012   0.195
    1UNK    H0R   27  -0.295   0.012   0.086
    1UNK    H0S   28  -0.296   0.187   0.085
    1UNK    H0T   29  -0.512   0.011   0.200
    1UNK    H0U   30  -0.514   0.187   0.198
    1UNK    H0V   31  -0.540   0.099   0.350
    1UNK    H0W   32  -0.319  -0.119   0.289
    1UNK    H0X   33  -0.357  -0.046   0.444
    1UNK    H0Y   34  -0.191  -0.039   0.382
    1UNK    H0Z   35  -0.174   0.216   0.382
    1UNK    H10   36  -0.417   0.363   0.271
    1UNK    H11   37  -0.252   0.380   0.219
    1UNK    H12   38  -0.381   0.659   0.478
    1UNK    H13   39  -0.489   0.561   0.385
    1UNK    H14   40  -0.360   0.606   0.177
    1UNK    H15   41  -0.253   0.713   0.267
    1UNK    H16   42  -0.553   0.753   0.240
    1UNK    H17   43  -0.426   0.843   0.155
    1UNK    H18   44  -0.442   0.857   0.331
    1UNK    H19   45  -0.071   0.465   0.260
    1UNK    H1A   46   0.039   0.523   0.381
    1UNK    H1B   47  -0.079   0.634   0.316
    1UNK    H1C   48  -0.184   0.550   0.659
    1UNK    H1D   49  -0.169   0.685   0.544
    1UNK    H1E   50  -0.028   0.590   0.593
    1UNK    H1F   51  -0.474   0.402   0.535
    1UNK    H1G   52  -0.334   0.414   0.637
    1UNK    H1H   53  -0.441   0.185   0.516
    1UNK    H1I   54  -0.159   0.221   0.627
    1UNK    H1J   55  -0.241   0.065   0.604
    1UNK    H1K   56  -0.306   0.182   0.718
   1.00000   1.00000   1.00000

