
;
; GENERATED BY LigParGen Server
; Jorgensen Lab @ Yale University 
;
[ atomtypes ]
  opls_810  H810     1.0080     0.000    A    2.50000E-01   1.25520E-01
  opls_802  C802    12.0110     0.000    A    3.50000E-01   2.76144E-01
  opls_801  C801    12.0110     0.000    A    3.50000E-01   2.76144E-01
  opls_805  F805    18.9984     0.000    A    2.90000E-01   2.51040E-01
  opls_809  H809     1.0080     0.000    A    2.50000E-01   1.25520E-01
  opls_814  H814     1.0080     0.000    A    2.50000E-01   1.25520E-01
  opls_808  H808     1.0080     0.000    A    2.50000E-01   1.25520E-01
  opls_803  C803    12.0110     0.000    A    3.50000E-01   2.76144E-01
  opls_806  C806    12.0110     0.000    A    3.50000E-01   2.76144E-01
  opls_812  H812     1.0080     0.000    A    2.50000E-01   1.25520E-01
  opls_807  H807     1.0080     0.000    A    2.50000E-01   1.25520E-01
  opls_817  H817     1.0080     0.000    A    2.50000E-01   1.25520E-01
  opls_816  H816     1.0080     0.000    A    2.50000E-01   1.25520E-01
  opls_813  H813     1.0080     0.000    A    2.50000E-01   1.25520E-01
  opls_800  C800    12.0110     0.000    A    3.50000E-01   2.76144E-01
  opls_811  H811     1.0080     0.000    A    2.50000E-01   1.25520E-01
  opls_804  C804    12.0110     0.000    A    3.50000E-01   2.76144E-01
  opls_815  H815     1.0080     0.000    A    2.50000E-01   1.25520E-01
[ moleculetype ]
; Name               nrexcl
UNK                   3
[ atoms ]
;   nr       type  resnr residue  atom   cgnr     charge       mass  
     1   opls_800      1    UNK   C00      1    -0.2307    12.0110 
     2   opls_801      1    UNK   C01      1    -0.1232    12.0110 
     3   opls_802      1    UNK   C02      1    -0.1797    12.0110 
     4   opls_803      1    UNK   C03      1     -0.225    12.0110 
     5   opls_804      1    UNK   C04      1     0.0639    12.0110 
     6   opls_805      1    UNK   F05      1    -0.1798    18.9984 
     7   opls_806      1    UNK   C06      1    -0.2208    12.0110 
     8   opls_807      1    UNK   H07      1     0.0839     1.0080 
     9   opls_808      1    UNK   H08      1     0.0839     1.0080 
    10   opls_809      1    UNK   H09      1     0.0839     1.0080 
    11   opls_810      1    UNK   H0A      1     0.1069     1.0080 
    12   opls_811      1    UNK   H0B      1     0.0991     1.0080 
    13   opls_812      1    UNK   H0C      1     0.0991     1.0080 
    14   opls_813      1    UNK   H0D      1     0.1098     1.0080 
    15   opls_814      1    UNK   H0E      1     0.1098     1.0080 
    16   opls_815      1    UNK   H0F      1     0.1002     1.0080 
    17   opls_816      1    UNK   H0G      1     0.1094     1.0080 
    18   opls_817      1    UNK   H0H      1     0.1094     1.0080 
[ bonds ]
    2     1     1      0.1529 224262.400
    3     2     1      0.1529 224262.400
    4     3     1      0.1529 224262.400
    5     4     1      0.1529 224262.400
    6     5     1      0.1360 307105.600
    7     2     1      0.1529 224262.400
    8     1     1      0.1090 284512.000
    9     1     1      0.1090 284512.000
   10     1     1      0.1090 284512.000
   11     2     1      0.1090 284512.000
   12     3     1      0.1090 284512.000
   13     3     1      0.1090 284512.000
   14     4     1      0.1090 284512.000
   15     4     1      0.1090 284512.000
   16     5     1      0.1090 284512.000
   17     7     1      0.1090 284512.000
   18     7     1      0.1090 284512.000
    7     5     1      0.1529 224262.400

[ angles ]
;  ai    aj    ak funct            c0            c1            c2            c3 
    1     2     3     1    112.700    488.273
    2     3     4     1    112.700    488.273
    3     4     5     1    112.700    488.273
    4     5     6     1    109.500    418.400
    1     2     7     1    112.700    488.273
    2     1     8     1    110.700    313.800
    2     1     9     1    110.700    313.800
    2     1    10     1    110.700    313.800
    1     2    11     1    110.700    313.800
    2     3    12     1    110.700    313.800
    2     3    13     1    110.700    313.800
    3     4    14     1    110.700    313.800
    3     4    15     1    110.700    313.800
    4     5    16     1    110.700    313.800
    2     7    17     1    110.700    313.800
    2     7    18     1    110.700    313.800
    7     2    11     1    110.700    313.800
    5     4    14     1    110.700    313.800
    3     2    11     1    110.700    313.800
    9     1    10     1    107.800    276.144
   14     4    15     1    107.800    276.144
    5     7    17     1    110.700    313.800
    4     5     7     1    112.700    488.273
    8     1     9     1    107.800    276.144
    2     7     5     1    112.700    488.273
   12     3    13     1    107.800    276.144
    6     5     7     1    109.500    418.400
    5     4    15     1    110.700    313.800
    8     1    10     1    107.800    276.144
    6     5    16     1    107.000    334.720
    4     3    12     1    110.700    313.800
    7     5    16     1    110.700    313.800
    3     2     7     1    112.700    488.273
    4     3    13     1    110.700    313.800
    5     7    18     1    110.700    313.800
   17     7    18     1    107.800    276.144

[ dihedrals ]
; IMPROPER DIHEDRAL ANGLES 
;  ai    aj    ak    al funct            c0            c1            c2            c3            c4            c5

[ dihedrals ]
; PROPER DIHEDRAL ANGLES
;  ai    aj    ak    al funct            c0            c1            c2            c3            c4            c5
    4    3    2    1        3       2.301  -1.464   0.837  -1.674  -0.000   0.000
    7    5    4    3        3       2.301  -1.464   0.837  -1.674  -0.000   0.000
    4    5    7    2        3       2.301  -1.464   0.837  -1.674  -0.000   0.000
    5    7    2    3        3       2.301  -1.464   0.837  -1.674  -0.000   0.000
    5    7    2    1        3       2.301  -1.464   0.837  -1.674  -0.000   0.000
    7    2    3    4        3       2.301  -1.464   0.837  -1.674  -0.000   0.000
    5    4    3    2        3       2.301  -1.464   0.837  -1.674  -0.000   0.000
    6    5    7    2        3      -0.209   1.883   1.674  -3.347  -0.000   0.000
    6    5    4    3        3      -0.209   1.883   1.674  -3.347  -0.000   0.000
   10    1    2    3        3       0.628   1.883   0.000  -2.510  -0.000   0.000
   17    7    2    1        3       0.628   1.883   0.000  -2.510  -0.000   0.000
   18    7    2    1        3       0.628   1.883   0.000  -2.510  -0.000   0.000
   15    4    3    2        3       0.628   1.883   0.000  -2.510  -0.000   0.000
   13    3    4    5        3       0.628   1.883   0.000  -2.510  -0.000   0.000
   12    3    4    5        3       0.628   1.883   0.000  -2.510  -0.000   0.000
   12    3    2    1        3       0.628   1.883   0.000  -2.510  -0.000   0.000
   18    7    2    3        3       0.628   1.883   0.000  -2.510  -0.000   0.000
   15    4    5    7        3       0.628   1.883   0.000  -2.510  -0.000   0.000
    9    1    2    7        3       0.628   1.883   0.000  -2.510  -0.000   0.000
   18    7    5    4        3       0.628   1.883   0.000  -2.510  -0.000   0.000
   16    5    4    3        3       0.628   1.883   0.000  -2.510  -0.000   0.000
    8    1    2    7        3       0.628   1.883   0.000  -2.510  -0.000   0.000
   11    2    3    4        3       0.628   1.883   0.000  -2.510  -0.000   0.000
   13    3    2    1        3       0.628   1.883   0.000  -2.510  -0.000   0.000
   14    4    5    7        3       0.628   1.883   0.000  -2.510  -0.000   0.000
   10    1    2    7        3       0.628   1.883   0.000  -2.510  -0.000   0.000
   17    7    2    3        3       0.628   1.883   0.000  -2.510  -0.000   0.000
   11    2    7    5        3       0.628   1.883   0.000  -2.510  -0.000   0.000
    8    1    2    3        3       0.628   1.883   0.000  -2.510  -0.000   0.000
   12    3    2    7        3       0.628   1.883   0.000  -2.510  -0.000   0.000
   16    5    7    2        3       0.628   1.883   0.000  -2.510  -0.000   0.000
    9    1    2    3        3       0.628   1.883   0.000  -2.510  -0.000   0.000
   17    7    5    4        3       0.628   1.883   0.000  -2.510  -0.000   0.000
   14    4    3    2        3       0.628   1.883   0.000  -2.510  -0.000   0.000
   13    3    2    7        3       0.628   1.883   0.000  -2.510  -0.000   0.000
   17    7    5    6        3       0.837   2.510   0.000  -3.347  -0.000   0.000
   14    4    5    6        3       0.837   2.510   0.000  -3.347  -0.000   0.000
   15    4    5    6        3       0.837   2.510   0.000  -3.347  -0.000   0.000
   18    7    5    6        3       0.837   2.510   0.000  -3.347  -0.000   0.000
   11    2    1   10        3       0.628   1.883   0.000  -2.510  -0.000   0.000
   11    2    1    8        3       0.628   1.883   0.000  -2.510  -0.000   0.000
   12    3    2   11        3       0.628   1.883   0.000  -2.510  -0.000   0.000
   18    7    2   11        3       0.628   1.883   0.000  -2.510  -0.000   0.000
   15    4    3   13        3       0.628   1.883   0.000  -2.510  -0.000   0.000
   13    3    2   11        3       0.628   1.883   0.000  -2.510  -0.000   0.000
   14    4    3   12        3       0.628   1.883   0.000  -2.510  -0.000   0.000
   14    4    3   13        3       0.628   1.883   0.000  -2.510  -0.000   0.000
   16    5    4   15        3       0.628   1.883   0.000  -2.510  -0.000   0.000
   11    2    1    9        3       0.628   1.883   0.000  -2.510  -0.000   0.000
   15    4    3   12        3       0.628   1.883   0.000  -2.510  -0.000   0.000
   16    5    4   14        3       0.628   1.883   0.000  -2.510  -0.000   0.000
   17    7    2   11        3       0.628   1.883   0.000  -2.510  -0.000   0.000
   18    7    5   16        3       0.628   1.883   0.000  -2.510  -0.000   0.000
   17    7    5   16        3       0.628   1.883   0.000  -2.510  -0.000   0.000

[ pairs ]
     1     4    1
     1     5    1
     2     6    1
     3     6    1
     3     8    1
     3     9    1
     3    10    1
     1    12    1
     1    13    1
     7     8    1
     4    11    1
     7     9    1
     5    11    1
     2    14    1
     7    10    1
     5    12    1
     2    15    1
     5    13    1
     2    16    1
     1    17    1
     8    11    1
     7    12    1
     3    16    1
     1    18    1
     9    11    1
     7    13    1
     6    14    1
     3    17    1
    10    11    1
     7    14    1
     6    15    1
     4    17    1
     3    18    1
     7    15    1
     4    18    1
    11    12    1
     6    17    1
    11    13    1
     6    18    1
    12    14    1
    13    14    1
    12    15    1
    13    15    1
    11    17    1
    11    18    1
    14    16    1
    15    16    1
    16    17    1
    16    18    1

