LIGPARGEN GENERATED GRO FILE
   18
    1UNK    C00    1   0.100   0.100   0.000
    1UNK    C01    2  -0.052   0.100   0.000
    1UNK    C02    3  -0.112   0.100   0.141
    1UNK    C03    4  -0.255   0.144   0.116
    1UNK    C04    5  -0.242   0.252   0.009
    1UNK    F05    6  -0.348   0.244  -0.076
    1UNK    C06    7  -0.112   0.225  -0.066
    1UNK    H07    8   0.139   0.010   0.048
    1UNK    H08    9   0.140   0.187   0.054
    1UNK    H09   10   0.139   0.103  -0.102
    1UNK    H0A   11  -0.088   0.011  -0.054
    1UNK    H0B   12  -0.060   0.172   0.205
    1UNK    H0C   13  -0.106   0.002   0.188
    1UNK    H0D   14  -0.303   0.181   0.207
    1UNK    H0E   15  -0.315   0.060   0.078
    1UNK    H0F   16  -0.242   0.352   0.053
    1UNK    H0G   17  -0.045   0.311  -0.054
    1UNK    H0H   18  -0.129   0.209  -0.173
   1.00000   1.00000   1.00000

