LIGPARGEN GENERATED GRO FILE
   57
    1UNK    C00    1   0.100   0.100   0.000
    1UNK    C01    2  -0.053   0.100   0.000
    1UNK    C02    3  -0.134   0.100   0.136
    1UNK    C03    4  -0.086  -0.028   0.210
    1UNK    C04    5  -0.091   0.218   0.226
    1UNK    C05    6  -0.054   0.348   0.158
    1UNK    C06    7  -0.148   0.413   0.059
    1UNK    C07    8  -0.282   0.359   0.003
    1UNK    C08    9  -0.403   0.453   0.039
    1UNK    C09   10  -0.385   0.602   0.006
    1UNK    C0A   11  -0.456   0.449   0.185
    1UNK    C0B   12  -0.363   0.481   0.300
    1UNK    O0C   13  -0.575   0.432   0.210
    1UNK    C0D   14  -0.508   0.391  -0.055
    1UNK    C0E   15  -0.496   0.240  -0.025
    1UNK    C0F   16  -0.340   0.208  -0.009
    1UNK    C0G   17  -0.314   0.142  -0.151
    1UNK    C0H   18  -0.298   0.101   0.110
    1UNK    C0I   19  -0.342  -0.044   0.072
    1UNK    C0J   20  -0.387   0.134   0.237
    1UNK    C0K   21  -0.385   0.053   0.365
    1UNK    H0M   22   0.134   0.131  -0.100
    1UNK    H0N   23   0.140  -0.000   0.018
    1UNK    H0O   24   0.145   0.168   0.072
    1UNK    H0P   25  -0.080   0.010  -0.056
    1UNK    H0Q   26  -0.081   0.187  -0.059
    1UNK    H0R   27   0.021  -0.024   0.232
    1UNK    H0S   28  -0.101  -0.119   0.150
    1UNK    H0T   29  -0.135  -0.042   0.306
    1UNK    H0U   30  -0.000   0.190   0.282
    1UNK    H0V   31  -0.164   0.237   0.304
    1UNK    H0W   32   0.043   0.338   0.108
    1UNK    H0X   33  -0.032   0.420   0.237
    1UNK    H0Y   34  -0.086   0.439  -0.028
    1UNK    H0Z   35  -0.167   0.512   0.102
    1UNK    H10   36  -0.265   0.383  -0.104
    1UNK    H11   37  -0.314   0.651   0.073
    1UNK    H12   38  -0.479   0.655   0.018
    1UNK    H13   39  -0.350   0.617  -0.097
    1UNK    H14   40  -0.266   0.436   0.288
    1UNK    H15   41  -0.405   0.438   0.392
    1UNK    H16   42  -0.353   0.589   0.311
    1UNK    H17   43  -0.482   0.410  -0.160
    1UNK    H18   44  -0.609   0.428  -0.039
    1UNK    H19   45  -0.544   0.186  -0.107
    1UNK    H1A   46  -0.556   0.219   0.062
    1UNK    H1B   47  -0.319   0.215  -0.232
    1UNK    H1C   48  -0.391   0.066  -0.172
    1UNK    H1D   49  -0.222   0.087  -0.163
    1UNK    H1E   50  -0.282  -0.086  -0.009
    1UNK    H1F   51  -0.447  -0.047   0.041
    1UNK    H1G   52  -0.332  -0.112   0.157
    1UNK    H1H   53  -0.492   0.126   0.208
    1UNK    H1I   54  -0.371   0.237   0.265
    1UNK    H1J   55  -0.428  -0.047   0.352
    1UNK    H1K   56  -0.449   0.104   0.440
    1UNK    H1M   57  -0.287   0.045   0.410
   1.00000   1.00000   1.00000

