
;
; GENERATED BY LigParGen Server
; Jorgensen Lab @ Yale University 
;
[ atomtypes ]
  opls_818  H818     1.0080     0.000    A    2.50000E-01   1.25520E-01
  opls_810  C810    12.0110     0.000    A    3.45000E-01   3.47272E-01
  opls_824  H824     1.0080     0.000    A    2.50000E-01   1.25520E-01
  opls_802  C802    12.0110     0.000    A    3.45000E-01   3.47272E-01
  opls_805  C805    12.0110     0.000    A    3.50000E-01   2.76144E-01
  opls_828  H828     1.0080     0.000    A    2.50000E-01   1.25520E-01
  opls_813  H813     1.0080     0.000    A    2.50000E-01   1.25520E-01
  opls_806  C806    12.0110     0.000    A    3.50000E-01   2.76144E-01
  opls_815  H815     1.0080     0.000    A    2.50000E-01   1.25520E-01
  opls_809  C809    12.0110     0.000    A    3.50000E-01   2.76144E-01
  opls_830  H830     1.0080     0.000    A    2.50000E-01   1.25520E-01
  opls_822  H822     1.0080     0.000    A    2.50000E-01   1.25520E-01
  opls_803  C803    12.0110     0.000    A    3.50000E-01   2.76144E-01
  opls_825  H825     1.0080     0.000    A    2.50000E-01   1.25520E-01
  opls_826  H826     1.0080     0.000    A    2.50000E-01   1.25520E-01
  opls_814  H814     1.0080     0.000    A    2.50000E-01   1.25520E-01
  opls_821  H821     1.0080     0.000    A    2.50000E-01   1.25520E-01
  opls_820  H820     1.0080     0.000    A    2.50000E-01   1.25520E-01
  opls_829  H829     1.0080     0.000    A    2.50000E-01   1.25520E-01
  opls_816  H816     1.0080     0.000    A    2.50000E-01   1.25520E-01
  opls_800  C800    12.0110     0.000    A    3.50000E-01   2.76144E-01
  opls_823  H823     1.0080     0.000    A    2.50000E-01   1.25520E-01
  opls_808  O808    15.9990     0.000    A    2.90000E-01   5.85760E-01
  opls_811  C811    12.0110     0.000    A    3.45000E-01   3.47272E-01
  opls_819  H819     1.0080     0.000    A    2.50000E-01   1.25520E-01
  opls_804  C804    12.0110     0.000    A    3.50000E-01   2.76144E-01
  opls_827  H827     1.0080     0.000    A    2.50000E-01   1.25520E-01
  opls_801  C801    12.0110     0.000    A    3.50000E-01   2.76144E-01
  opls_817  H817     1.0080     0.000    A    2.50000E-01   1.25520E-01
  opls_812  C812    12.0110     0.000    A    3.45000E-01   3.47272E-01
  opls_807  C807    12.0110     0.000    A    3.50000E-01   2.76144E-01
[ moleculetype ]
; Name               nrexcl
UNK                   3
[ atoms ]
;   nr       type  resnr residue  atom   cgnr     charge       mass  
     1   opls_800      1    UNK   C00      1    -0.2404    12.0110 
     2   opls_801      1    UNK   C01      1    -0.1513    12.0110 
     3   opls_802      1    UNK   C02      1    -0.0556    12.0110 
     4   opls_803      1    UNK   C03      1    -0.1502    12.0110 
     5   opls_804      1    UNK   C04      1    -0.1473    12.0110 
     6   opls_805      1    UNK   C05      1    -0.1716    12.0110 
     7   opls_806      1    UNK   C06      1    -0.1427    12.0110 
     8   opls_807      1    UNK   C07      1     0.0070    12.0110 
     9   opls_808      1    UNK   O08      1    -0.3753    15.9990 
    10   opls_809      1    UNK   C09      1     0.0931    12.0110 
    11   opls_810      1    UNK   C0A      1    -0.1924    12.0110 
    12   opls_811      1    UNK   C0B      1    -0.2067    12.0110 
    13   opls_812      1    UNK   C0C      1    -0.1077    12.0110 
    14   opls_813      1    UNK   H0D      1     0.0808     1.0080 
    15   opls_814      1    UNK   H0E      1     0.0808     1.0080 
    16   opls_815      1    UNK   H0F      1     0.0808     1.0080 
    17   opls_816      1    UNK   H0G      1     0.0912     1.0080 
    18   opls_817      1    UNK   H0H      1     0.0912     1.0080 
    19   opls_818      1    UNK   H0I      1     0.0979     1.0080 
    20   opls_819      1    UNK   H0J      1     0.0979     1.0080 
    21   opls_820      1    UNK   H0K      1     0.1155     1.0080 
    22   opls_821      1    UNK   H0M      1     0.0991     1.0080 
    23   opls_822      1    UNK   H0N      1     0.0991     1.0080 
    24   opls_823      1    UNK   H0O      1     0.1175     1.0080 
    25   opls_824      1    UNK   H0P      1     0.0985     1.0080 
    26   opls_825      1    UNK   H0Q      1     0.0985     1.0080 
    27   opls_826      1    UNK   H0R      1     0.1391     1.0080 
    28   opls_827      1    UNK   H0S      1     0.1235     1.0080 
    29   opls_828      1    UNK   H0T      1     0.1024     1.0080 
    30   opls_829      1    UNK   H0U      1     0.1024     1.0080 
    31   opls_830      1    UNK   H0V      1     0.1248     1.0080 
[ bonds ]
    2     1     1      0.1529 224262.400
    3     2     1      0.1510 234304.000
    4     3     1      0.1510 234304.000
    5     4     1      0.1529 224262.400
    6     5     1      0.1529 224262.400
    7     6     1      0.1529 224262.400
    8     7     1      0.1529 224262.400
    9     8     1      0.1410 267776.000
   10     5     1      0.1529 224262.400
   11    10     1      0.1510 234304.000
   12     3     1      0.1520 217568.000
   13     3     1      0.1520 217568.000
   14     1     1      0.1090 284512.000
   15     1     1      0.1090 284512.000
   16     1     1      0.1090 284512.000
   17     2     1      0.1090 284512.000
   18     2     1      0.1090 284512.000
   19     4     1      0.1090 284512.000
   20     4     1      0.1090 284512.000
   21     5     1      0.1090 284512.000
   22     6     1      0.1090 284512.000
   23     6     1      0.1090 284512.000
   24     7     1      0.1090 284512.000
   25     8     1      0.1090 284512.000
   26     8     1      0.1090 284512.000
   27    10     1      0.1090 284512.000
   28    11     1      0.1088 284512.000
   29    12     1      0.1088 284512.000
   30    12     1      0.1088 284512.000
   31    13     1      0.1088 284512.000
   13     7     1      0.1510 234304.000
   10     9     1      0.1410 267776.000
   12    11     1      0.1520 217568.000
   13    11     1      0.1520 217568.000

[ angles ]
;  ai    aj    ak funct            c0            c1            c2            c3 
    1     2     3     1    112.700    488.273
    2     3     4     1    114.300    292.880
    3     4     5     1    112.700    488.273
    4     5     6     1    112.700    488.273
    5     6     7     1    112.700    488.273
    6     7     8     1    112.700    488.273
    7     8     9     1    109.500    418.400
    4     5    10     1    112.700    488.273
    5    10    11     1    112.700    488.273
    2     3    12     1    117.200    313.800
    2     3    13     1    117.200    313.800
    2     1    14     1    110.700    313.800
    2     1    15     1    110.700    313.800
    2     1    16     1    110.700    313.800
    1     2    17     1    110.700    313.800
    1     2    18     1    110.700    313.800
    3     4    19     1    110.700    313.800
    3     4    20     1    110.700    313.800
    4     5    21     1    110.700    313.800
    5     6    22     1    110.700    313.800
    5     6    23     1    110.700    313.800
    6     7    24     1    110.700    313.800
    7     8    25     1    110.700    313.800
    7     8    26     1    110.700    313.800
    5    10    27     1    110.700    313.800
   10    11    28     1    114.300    292.880
    3    12    29     1    117.200    313.800
    3    12    30     1    117.200    313.800
    3    13    31     1    117.200    313.800
    9     8    25     1    109.500    292.880
    8     7    24     1    110.700    313.800
    3    13    11     1     83.000    251.040
    3     2    18     1    110.700    313.800
    7     6    22     1    110.700    313.800
   12     3    13     1     83.000    251.040
    5    10     9     1    109.500    418.400
    3     2    17     1    110.700    313.800
   10     5    21     1    110.700    313.800
   25     8    26     1    107.800    276.144
    7     6    23     1    110.700    313.800
   19     4    20     1    107.800    276.144
   11    10    27     1    110.700    313.800
   13     7    24     1    110.700    313.800
   12    11    13     1     83.000    251.040
   22     6    23     1    107.800    276.144
   13    11    28     1    117.200    313.800
    8     7    13     1    112.700    488.273
   14     1    15     1    107.800    276.144
    6     7    13     1    112.700    488.273
   15     1    16     1    107.800    276.144
   11    13    31     1    117.200    313.800
   10    11    12     1    117.200    313.800
    5     4    19     1    110.700    313.800
   12    11    28     1    117.200    313.800
   17     2    18     1    107.800    276.144
   11    12    29     1    117.200    313.800
    6     5    21     1    110.700    313.800
    5     4    20     1    110.700    313.800
    4     3    12     1    117.200    313.800
    9    10    11     1    109.500    418.400
    3    13     7     1    117.200    313.800
    7    13    11     1    117.200    313.800
    9     8    26     1    109.500    292.880
   10    11    13     1    117.200    313.800
    4     3    13     1    117.200    313.800
    9    10    27     1    109.500    292.880
    8     9    10     1    109.500    502.080
    7    13    31     1    114.300    292.880
   14     1    16     1    107.800    276.144
    6     5    10     1    112.700    488.273
   11    12    30     1    117.200    313.800
    3    12    11     1     83.000    251.040
   29    12    30     1    114.300    292.880

[ dihedrals ]
; IMPROPER DIHEDRAL ANGLES 
;  ai    aj    ak    al funct            c0            c1            c2            c3            c4            c5

[ dihedrals ]
; PROPER DIHEDRAL ANGLES
;  ai    aj    ak    al funct            c0            c1            c2            c3            c4            c5
    7    6    5    4        3       2.301  -1.464   0.837  -1.674  -0.000   0.000
    8    7    6    5        3       2.301  -1.464   0.837  -1.674  -0.000   0.000
   10    5    6    7        3       2.301  -1.464   0.837  -1.674  -0.000   0.000
    6    5    4    3        3       2.301  -1.464   0.837  -1.674  -0.000   0.000
   10    5    4    3        3       2.301  -1.464   0.837  -1.674  -0.000   0.000
    5    4    3    2        3       2.301  -1.464   0.837  -1.674  -0.000   0.000
    8    7   13    3        3       0.000   0.000   0.000  -0.000  -0.000   0.000
    6    7   13    3        3       0.000   0.000   0.000  -0.000  -0.000   0.000
    4    3    2    1        3       2.301  -1.464   0.837  -1.674  -0.000   0.000
   10   11   13    7        3       0.000   0.000   0.000  -0.000  -0.000   0.000
    7   13    3    4        3       0.000   0.000   0.000  -0.000  -0.000   0.000
    7   13    3    2        3       0.000   0.000   0.000  -0.000  -0.000   0.000
   10   11   13    3        3       0.000   0.000   0.000  -0.000  -0.000   0.000
   10   11   12    3        3       0.000   0.000   0.000  -0.000  -0.000   0.000
   10    9    8    7        3       1.715   2.845   1.046  -5.607  -0.000   0.000
    8    9   10    5        3       1.715   2.845   1.046  -5.607  -0.000   0.000
   11   10    5    4        3       2.301  -1.464   0.837  -1.674  -0.000   0.000
   13    7    6    5        3       2.301  -1.464   0.837  -1.674  -0.000   0.000
   11   10    5    6        3       2.301  -1.464   0.837  -1.674  -0.000   0.000
   13    7    8    9        3       2.874   0.582   2.092  -5.548  -0.000   0.000
   11   10    9    8        3       1.715   2.845   1.046  -5.607  -0.000   0.000
   13   11   10    5        3       0.000   0.000   0.000  -0.000  -0.000   0.000
   12   11   10    5        3       0.000   0.000   0.000  -0.000  -0.000   0.000
   11   13    7    6        3       0.000   0.000   0.000  -0.000  -0.000   0.000
   12    3    2    1        3       0.000   0.000   0.000  -0.000  -0.000   0.000
   13    3    4    5        3       0.000   0.000   0.000  -0.000  -0.000   0.000
   12    3    4    5        3       0.000   0.000   0.000  -0.000  -0.000   0.000
   11   13    7    8        3       0.000   0.000   0.000  -0.000  -0.000   0.000
   13    3    2    1        3       0.000   0.000   0.000  -0.000  -0.000   0.000
   12   11   10    9        3       0.000   0.000   0.000  -0.000  -0.000   0.000
   13   11   10    9        3       0.000   0.000   0.000  -0.000  -0.000   0.000
   11   13    3    4        3       0.000   0.000   0.000  -0.000  -0.000   0.000
   12    3   13    7        3       0.000   0.000   0.000  -0.000  -0.000   0.000
   11   13    3    2        3       0.000   0.000   0.000  -0.000  -0.000   0.000
   12   11   13    7        3       0.000   0.000   0.000  -0.000  -0.000   0.000
   11   12    3    2        3       0.000   0.000   0.000  -0.000  -0.000   0.000
   11   12    3    4        3       0.000   0.000   0.000  -0.000  -0.000   0.000
   24    7    6    5        3       0.628   1.883   0.000  -2.510  -0.000   0.000
   20    4    5    6        3       0.628   1.883   0.000  -2.510  -0.000   0.000
   21    5    6    7        3       0.628   1.883   0.000  -2.510  -0.000   0.000
   22    6    7    8        3       0.628   1.883   0.000  -2.510  -0.000   0.000
   19    4    5   10        3       0.628   1.883   0.000  -2.510  -0.000   0.000
   19    4    5    6        3       0.628   1.883   0.000  -2.510  -0.000   0.000
   23    6    5   10        3       0.628   1.883   0.000  -2.510  -0.000   0.000
   23    6    7    8        3       0.628   1.883   0.000  -2.510  -0.000   0.000
   23    6    5    4        3       0.628   1.883   0.000  -2.510  -0.000   0.000
   27   10    5    6        3       0.628   1.883   0.000  -2.510  -0.000   0.000
   25    8    7    6        3       0.628   1.883   0.000  -2.510  -0.000   0.000
   27   10    5    4        3       0.628   1.883   0.000  -2.510  -0.000   0.000
   22    6    5    4        3       0.628   1.883   0.000  -2.510  -0.000   0.000
   22    6    5   10        3       0.628   1.883   0.000  -2.510  -0.000   0.000
   20    4    5   10        3       0.628   1.883   0.000  -2.510  -0.000   0.000
   26    8    7    6        3       0.628   1.883   0.000  -2.510  -0.000   0.000
   15    1    2    3        3       0.628   1.883   0.000  -2.510  -0.000   0.000
   25    8    7   13        3       0.628   1.883   0.000  -2.510  -0.000   0.000
   26    8    7   13        3       0.628   1.883   0.000  -2.510  -0.000   0.000
   23    6    7   13        3       0.628   1.883   0.000  -2.510  -0.000   0.000
   16    1    2    3        3       0.628   1.883   0.000  -2.510  -0.000   0.000
   14    1    2    3        3       0.628   1.883   0.000  -2.510  -0.000   0.000
   22    6    7   13        3       0.628   1.883   0.000  -2.510  -0.000   0.000
   21    5    4    3        3       0.628   1.883   0.000  -2.510  -0.000   0.000
   21    5   10   11        3       0.628   1.883   0.000  -2.510  -0.000   0.000
   25    8    7   24        3       0.628   1.883   0.000  -2.510  -0.000   0.000
   26    8    7   24        3       0.628   1.883   0.000  -2.510  -0.000   0.000
   24    7    6   23        3       0.628   1.883   0.000  -2.510  -0.000   0.000
   24    7    6   22        3       0.628   1.883   0.000  -2.510  -0.000   0.000
   21    5    4   19        3       0.628   1.883   0.000  -2.510  -0.000   0.000
   23    6    5   21        3       0.628   1.883   0.000  -2.510  -0.000   0.000
   17    2    1   14        3       0.628   1.883   0.000  -2.510  -0.000   0.000
   27   10    5   21        3       0.628   1.883   0.000  -2.510  -0.000   0.000
   17    2    1   16        3       0.628   1.883   0.000  -2.510  -0.000   0.000
   21    5    4   20        3       0.628   1.883   0.000  -2.510  -0.000   0.000
   18    2    1   14        3       0.628   1.883   0.000  -2.510  -0.000   0.000
   17    2    1   15        3       0.628   1.883   0.000  -2.510  -0.000   0.000
   18    2    1   16        3       0.628   1.883   0.000  -2.510  -0.000   0.000
   22    6    5   21        3       0.628   1.883   0.000  -2.510  -0.000   0.000
   18    2    1   15        3       0.628   1.883   0.000  -2.510  -0.000   0.000
   21    5   10    9        3       0.979   2.937   0.000  -3.916  -0.000   0.000
   24    7    8    9        3       0.979   2.937   0.000  -3.916  -0.000   0.000
   19    4    3    2        3       0.628   1.883   0.000  -2.510  -0.000   0.000
   17    2    3    4        3       0.628   1.883   0.000  -2.510  -0.000   0.000
   20    4    3    2        3       0.628   1.883   0.000  -2.510  -0.000   0.000
   18    2    3    4        3       0.628   1.883   0.000  -2.510  -0.000   0.000
   18    2    3   12        3       0.628   1.883   0.000  -2.510  -0.000   0.000
   24    7   13   11        3       0.628   1.883   0.000  -2.510  -0.000   0.000
   17    2    3   13        3       0.628   1.883   0.000  -2.510  -0.000   0.000
   20    4    3   12        3       0.628   1.883   0.000  -2.510  -0.000   0.000
   19    4    3   13        3       0.628   1.883   0.000  -2.510  -0.000   0.000
   27   10   11   13        3       0.628   1.883   0.000  -2.510  -0.000   0.000
   24    7   13    3        3       0.628   1.883   0.000  -2.510  -0.000   0.000
   17    2    3   12        3       0.628   1.883   0.000  -2.510  -0.000   0.000
   19    4    3   12        3       0.628   1.883   0.000  -2.510  -0.000   0.000
   27   10   11   12        3       0.628   1.883   0.000  -2.510  -0.000   0.000
   18    2    3   13        3       0.628   1.883   0.000  -2.510  -0.000   0.000
   20    4    3   13        3       0.628   1.883   0.000  -2.510  -0.000   0.000
   25    8    9   10        3       1.590   4.770   0.000  -6.360  -0.000   0.000
   27   10    9    8        3       1.590   4.770   0.000  -6.360  -0.000   0.000
   26    8    9   10        3       1.590   4.770   0.000  -6.360  -0.000   0.000
   31   13    7    6        3       0.628   1.883   0.000  -2.510  -0.000   0.000
   28   11   10    5        3       0.628   1.883   0.000  -2.510  -0.000   0.000
   31   13    7    8        3       0.628   1.883   0.000  -2.510  -0.000   0.000
   31   13    7   24        3       0.628   1.883   0.000  -2.510  -0.000   0.000
   28   11   10   27        3       0.628   1.883   0.000  -2.510  -0.000   0.000
   28   11   10    9        3       0.979   2.937   0.000  -3.916  -0.000   0.000
   29   12    3    4        3       0.000   0.000   0.000  -0.000  -0.000   0.000
   29   12   11   10        3       0.000   0.000   0.000  -0.000  -0.000   0.000
   28   11   13    7        3       0.000   0.000   0.000  -0.000  -0.000   0.000
   30   12    3    2        3       0.000   0.000   0.000  -0.000  -0.000   0.000
   30   12   11   10        3       0.000   0.000   0.000  -0.000  -0.000   0.000
   29   12    3    2        3       0.000   0.000   0.000  -0.000  -0.000   0.000
   31   13    3    4        3       0.000   0.000   0.000  -0.000  -0.000   0.000
   30   12    3    4        3       0.000   0.000   0.000  -0.000  -0.000   0.000
   31   13    3    2        3       0.000   0.000   0.000  -0.000  -0.000   0.000
   31   13   11   10        3       0.000   0.000   0.000  -0.000  -0.000   0.000
   30   12    3   13        3       0.000   0.000   0.000  -0.000  -0.000   0.000
   31   13   11   12        3       0.000   0.000   0.000  -0.000  -0.000   0.000
   28   11   13    3        3       0.000   0.000   0.000  -0.000  -0.000   0.000
   30   12   11   13        3       0.000   0.000   0.000  -0.000  -0.000   0.000
   29   12   11   13        3       0.000   0.000   0.000  -0.000  -0.000   0.000
   29   12    3   13        3       0.000   0.000   0.000  -0.000  -0.000   0.000
   28   11   12    3        3       0.000   0.000   0.000  -0.000  -0.000   0.000
   31   13    3   12        3       0.000   0.000   0.000  -0.000  -0.000   0.000
   30   12   11   28        3       0.000   0.000   0.000  -0.000  -0.000   0.000
   31   13   11   28        3       0.000   0.000   0.000  -0.000  -0.000   0.000
   29   12   11   28        3       0.000   0.000   0.000  -0.000  -0.000   0.000
    9   10    5    6        3       2.874   0.582   2.092  -5.548  -0.000   0.000
    9    8    7    6        3       2.874   0.582   2.092  -5.548  -0.000   0.000
    9   10    5    4        3       2.874   0.582   2.092  -5.548  -0.000   0.000

[ pairs ]
     1     4    1
     2     5    1
     3     6    1
     2     7    1
     4     7    1
     3     8    1
     5     8    1
     4     9    1
     3    10    1
     2    11    1
     1    12    1
     1    13    1
     6     9    1
     4    11    1
     7    10    1
     6    11    1
     5    12    1
     3    14    1
     5    13    1
     3    15    1
     8    11    1
     7    12    1
     3    16    1
     9    12    1
     4    17    1
     2    19    1
     9    13    1
     4    18    1
     2    20    1
     3    21    1
     6    19    1
     6    20    1
     4    22    1
     4    23    1
     3    24    1
     7    21    1
    12    17    1
    10    19    1
     5    24    1
    13    17    1
    12    18    1
    10    20    1
     9    21    1
     8    22    1
    14    17    1
    13    18    1
    12    19    1
     8    23    1
     6    25    1
     4    27    1
     3    28    1
     2    29    1
    15    17    1
    14    18    1
    13    19    1
    12    20    1
    11    21    1
    10    22    1
     6    26    1
     2    30    1
    16    17    1
    15    18    1
    13    20    1
    10    23    1
     9    24    1
     6    27    1
     5    28    1
     4    29    1
     2    31    1
    16    18    1
     4    30    1
    13    22    1
    11    24    1
    10    25    1
     8    27    1
     7    28    1
     4    31    1
    13    23    1
    10    26    1
     9    28    1
     6    31    1
    13    25    1
    13    26    1
    12    27    1
    10    29    1
     8    31    1
    19    21    1
    13    27    1
    10    30    1
    20    21    1
    10    31    1
    13    29    1
    21    22    1
    13    30    1
    12    31    1
    21    23    1
    22    24    1
    23    24    1
    21    27    1
    24    25    1
    24    26    1
    27    28    1
    24    31    1
    28    29    1
    28    30    1
    28    31    1

