
;
; GENERATED BY LigParGen Server
; Jorgensen Lab @ Yale University 
;
[ atomtypes ]
  opls_814  C814    12.0110     0.000    A    3.50000E-01   2.76144E-01
  opls_824  H824     1.0080     0.000    A    2.50000E-01   1.25520E-01
  opls_811  C811    12.0110     0.000    A    3.50000E-01   2.76144E-01
  opls_804  C804    12.0110     0.000    A    3.50000E-01   2.76144E-01
  opls_818  C818    12.0110     0.000    A    3.50000E-01   2.76144E-01
  opls_848  H848     1.0080     0.000    A    2.50000E-01   1.25520E-01
  opls_843  H843     1.0080     0.000    A    2.50000E-01   1.25520E-01
  opls_836  H836     1.0080     0.000    A    2.50000E-01   1.25520E-01
  opls_834  H834     1.0080     0.000    A    2.50000E-01   1.25520E-01
  opls_810  C810    12.0110     0.000    A    3.50000E-01   2.76144E-01
  opls_828  H828     1.0080     0.000    A    2.50000E-01   1.25520E-01
  opls_851  H851     1.0080     0.000    A    2.50000E-01   1.25520E-01
  opls_806  O806    15.9990     0.000    A    2.90000E-01   5.85760E-01
  opls_802  C802    12.0110     0.000    A    3.50000E-01   2.76144E-01
  opls_827  H827     1.0080     0.000    A    2.50000E-01   1.25520E-01
  opls_801  C801    12.0110     0.000    A    3.50000E-01   2.76144E-01
  opls_838  H838     1.0080     0.000    A    2.50000E-01   1.25520E-01
  opls_822  H822     1.0080     0.000    A    2.50000E-01   1.25520E-01
  opls_803  C803    12.0110     0.000    A    3.50000E-01   2.76144E-01
  opls_825  H825     1.0080     0.000    A    2.50000E-01   1.25520E-01
  opls_830  H830     1.0080     0.000    A    2.50000E-01   1.25520E-01
  opls_809  O809    15.9990     0.000    A    2.96000E-01   8.78640E-01
  opls_821  H821     1.0080     0.000    A    2.50000E-01   1.25520E-01
  opls_842  H842     1.0080     0.000    A    2.50000E-01   1.25520E-01
  opls_820  H820     1.0080     0.000    A    2.50000E-01   1.25520E-01
  opls_837  H837     1.0080     0.000    A    2.50000E-01   1.25520E-01
  opls_829  H829     1.0080     0.000    A    2.50000E-01   1.25520E-01
  opls_831  H831     1.0080     0.000    A    2.50000E-01   1.25520E-01
  opls_832  H832     1.0080     0.000    A    2.50000E-01   1.25520E-01
  opls_800  C800    12.0110     0.000    A    3.50000E-01   2.76144E-01
  opls_805  C805    12.0110     0.000    A    3.50000E-01   2.76144E-01
  opls_846  H846     1.0080     0.000    A    2.50000E-01   1.25520E-01
  opls_815  C815    12.0110     0.000    A    3.50000E-01   2.76144E-01
  opls_823  H823     1.0080     0.000    A    2.50000E-01   1.25520E-01
  opls_813  C813    12.0110     0.000    A    3.50000E-01   2.76144E-01
  opls_826  H826     1.0080     0.000    A    2.50000E-01   1.25520E-01
  opls_835  H835     1.0080     0.000    A    2.50000E-01   1.25520E-01
  opls_841  H841     1.0080     0.000    A    2.50000E-01   1.25520E-01
  opls_819  H819     1.0080     0.000    A    2.50000E-01   1.25520E-01
  opls_816  C816    12.0110     0.000    A    3.50000E-01   2.76144E-01
  opls_833  H833     1.0080     0.000    A    2.50000E-01   1.25520E-01
  opls_839  H839     1.0080     0.000    A    2.50000E-01   1.25520E-01
  opls_817  C817    12.0110     0.000    A    3.50000E-01   2.76144E-01
  opls_852  H852     1.0080     0.000    A    2.50000E-01   1.25520E-01
  opls_812  C812    12.0110     0.000    A    3.50000E-01   2.76144E-01
  opls_850  H850     1.0080     0.000    A    2.50000E-01   1.25520E-01
  opls_840  H840     1.0080     0.000    A    2.50000E-01   1.25520E-01
  opls_849  H849     1.0080     0.000    A    2.50000E-01   1.25520E-01
  opls_847  H847     1.0080     0.000    A    2.50000E-01   1.25520E-01
  opls_844  H844     1.0080     0.000    A    2.50000E-01   1.25520E-01
  opls_845  H845     1.0080     0.000    A    2.50000E-01   1.25520E-01
  opls_808  C808    12.0110     0.000    A    3.55000E-01   2.92880E-01
  opls_807  C807    12.0110     0.000    A    3.50000E-01   2.76144E-01
[ moleculetype ]
; Name               nrexcl
UNK                   3
[ atoms ]
;   nr       type  resnr residue  atom   cgnr     charge       mass  
     1   opls_800      1    UNK   C00      1    -0.2392    12.0110 
     2   opls_801      1    UNK   C01      1    -0.1778    12.0110 
     3   opls_802      1    UNK   C02      1    -0.1735    12.0110 
     4   opls_803      1    UNK   C03      1    -0.1368    12.0110 
     5   opls_804      1    UNK   C04      1    -0.2386    12.0110 
     6   opls_805      1    UNK   C05      1      0.028    12.0110 
     7   opls_806      1    UNK   O06      1     -0.361    15.9990 
     8   opls_807      1    UNK   C07      1    -0.0654    12.0110 
     9   opls_808      1    UNK   C08      1     0.3527    12.0110 
    10   opls_809      1    UNK   O09      1    -0.4436    15.9990 
    11   opls_810      1    UNK   C0A      1    -0.0767    12.0110 
    12   opls_811      1    UNK   C0B      1    -0.2352    12.0110 
    13   opls_812      1    UNK   C0C      1    -0.1668    12.0110 
    14   opls_813      1    UNK   C0D      1    -0.2442    12.0110 
    15   opls_814      1    UNK   C0E      1    -0.1652    12.0110 
    16   opls_815      1    UNK   C0F      1    -0.1758    12.0110 
    17   opls_816      1    UNK   C0G      1    -0.1131    12.0110 
    18   opls_817      1    UNK   C0H      1    -0.2343    12.0110 
    19   opls_818      1    UNK   C0I      1    -0.2368    12.0110 
    20   opls_819      1    UNK   H0J      1     0.0815     1.0080 
    21   opls_820      1    UNK   H0K      1     0.0815     1.0080 
    22   opls_821      1    UNK   H0M      1     0.0815     1.0080 
    23   opls_822      1    UNK   H0N      1     0.0887     1.0080 
    24   opls_823      1    UNK   H0O      1     0.0887     1.0080 
    25   opls_824      1    UNK   H0P      1     0.0962     1.0080 
    26   opls_825      1    UNK   H0Q      1     0.0962     1.0080 
    27   opls_826      1    UNK   H0R      1     0.1143     1.0080 
    28   opls_827      1    UNK   H0S      1     0.0874     1.0080 
    29   opls_828      1    UNK   H0T      1     0.0874     1.0080 
    30   opls_829      1    UNK   H0U      1     0.0874     1.0080 
    31   opls_830      1    UNK   H0V      1     0.1393     1.0080 
    32   opls_831      1    UNK   H0W      1     0.0906     1.0080 
    33   opls_832      1    UNK   H0X      2     0.0906     1.0080 
    34   opls_833      1    UNK   H0Y      2     0.0906     1.0080 
    35   opls_834      1    UNK   H0Z      2     0.0902     1.0080 
    36   opls_835      1    UNK   H10      2     0.0902     1.0080 
    37   opls_836      1    UNK   H11      2     0.0902     1.0080 
    38   opls_837      1    UNK   H12      2     0.0987     1.0080 
    39   opls_838      1    UNK   H13      2     0.0987     1.0080 
    40   opls_839      1    UNK   H14      2     0.0878     1.0080 
    41   opls_840      1    UNK   H15      2     0.0878     1.0080 
    42   opls_841      1    UNK   H16      2     0.0878     1.0080 
    43   opls_842      1    UNK   H17      2     0.1027     1.0080 
    44   opls_843      1    UNK   H18      2     0.1027     1.0080 
    45   opls_844      1    UNK   H19      2     0.0886     1.0080 
    46   opls_845      1    UNK   H1A      2     0.0886     1.0080 
    47   opls_846      1    UNK   H1B      2     0.0941     1.0080 
    48   opls_847      1    UNK   H1C      2     0.0834     1.0080 
    49   opls_848      1    UNK   H1D      2     0.0834     1.0080 
    50   opls_849      1    UNK   H1E      2     0.0834     1.0080 
    51   opls_850      1    UNK   H1F      2     0.0811     1.0080 
    52   opls_851      1    UNK   H1G      2     0.0811     1.0080 
    53   opls_852      1    UNK   H1H      2     0.0811     1.0080 
[ bonds ]
    2     1     1      0.1529 224262.400
    3     2     1      0.1529 224262.400
    4     3     1      0.1529 224262.400
    5     4     1      0.1529 224262.400
    6     4     1      0.1529 224262.400
    7     6     1      0.1410 267776.000
    8     7     1      0.1410 267776.000
    9     6     1      0.1522 265265.600
   10     9     1      0.1229 476976.000
   11     9     1      0.1522 265265.600
   12    11     1      0.1529 224262.400
   13    11     1      0.1529 224262.400
   14    13     1      0.1529 224262.400
   15    11     1      0.1529 224262.400
   16    15     1      0.1529 224262.400
   17    16     1      0.1529 224262.400
   18    17     1      0.1529 224262.400
   19    17     1      0.1529 224262.400
   20     1     1      0.1090 284512.000
   21     1     1      0.1090 284512.000
   22     1     1      0.1090 284512.000
   23     2     1      0.1090 284512.000
   24     2     1      0.1090 284512.000
   25     3     1      0.1090 284512.000
   26     3     1      0.1090 284512.000
   27     4     1      0.1090 284512.000
   28     5     1      0.1090 284512.000
   29     5     1      0.1090 284512.000
   30     5     1      0.1090 284512.000
   31     6     1      0.1090 284512.000
   32     8     1      0.1090 284512.000
   33     8     1      0.1090 284512.000
   34     8     1      0.1090 284512.000
   35    12     1      0.1090 284512.000
   36    12     1      0.1090 284512.000
   37    12     1      0.1090 284512.000
   38    13     1      0.1090 284512.000
   39    13     1      0.1090 284512.000
   40    14     1      0.1090 284512.000
   41    14     1      0.1090 284512.000
   42    14     1      0.1090 284512.000
   43    15     1      0.1090 284512.000
   44    15     1      0.1090 284512.000
   45    16     1      0.1090 284512.000
   46    16     1      0.1090 284512.000
   47    17     1      0.1090 284512.000
   48    18     1      0.1090 284512.000
   49    18     1      0.1090 284512.000
   50    18     1      0.1090 284512.000
   51    19     1      0.1090 284512.000
   52    19     1      0.1090 284512.000
   53    19     1      0.1090 284512.000

[ angles ]
;  ai    aj    ak funct            c0            c1            c2            c3 
    1     2     3     1    112.700    488.273
    2     3     4     1    112.700    488.273
    3     4     5     1    112.700    488.273
    3     4     6     1    112.700    488.273
    4     6     7     1    109.500    418.400
    6     7     8     1    109.500    502.080
    4     6     9     1    111.100    527.184
    6     9    10     1    120.400    669.440
    6     9    11     1    116.000    585.760
    9    11    12     1    111.100    527.184
    9    11    13     1    111.100    527.184
   11    13    14     1    112.700    488.273
    9    11    15     1    111.100    527.184
   11    15    16     1    112.700    488.273
   15    16    17     1    112.700    488.273
   16    17    18     1    112.700    488.273
   16    17    19     1    112.700    488.273
    2     1    20     1    110.700    313.800
    2     1    21     1    110.700    313.800
    2     1    22     1    110.700    313.800
    1     2    23     1    110.700    313.800
    1     2    24     1    110.700    313.800
    2     3    25     1    110.700    313.800
    2     3    26     1    110.700    313.800
    3     4    27     1    110.700    313.800
    4     5    28     1    110.700    313.800
    4     5    29     1    110.700    313.800
    4     5    30     1    110.700    313.800
    4     6    31     1    110.700    313.800
    7     8    32     1    109.500    292.880
    7     8    33     1    109.500    292.880
    7     8    34     1    109.500    292.880
   11    12    35     1    110.700    313.800
   11    12    36     1    110.700    313.800
   11    12    37     1    110.700    313.800
   11    13    38     1    110.700    313.800
   11    13    39     1    110.700    313.800
   13    14    40     1    110.700    313.800
   13    14    41     1    110.700    313.800
   13    14    42     1    110.700    313.800
   11    15    43     1    110.700    313.800
   11    15    44     1    110.700    313.800
   15    16    45     1    110.700    313.800
   15    16    46     1    110.700    313.800
   16    17    47     1    110.700    313.800
   17    18    48     1    110.700    313.800
   17    18    49     1    110.700    313.800
   17    18    50     1    110.700    313.800
   17    19    51     1    110.700    313.800
   17    19    52     1    110.700    313.800
   17    19    53     1    110.700    313.800
   18    17    47     1    110.700    313.800
   12    11    15     1    112.700    488.273
   16    15    43     1    110.700    313.800
   45    16    46     1    107.800    276.144
   12    11    13     1    112.700    488.273
   32     8    34     1    107.800    276.144
   36    12    37     1    107.800    276.144
   35    12    36     1    107.800    276.144
   29     5    30     1    107.800    276.144
   38    13    39     1    107.800    276.144
   49    18    50     1    107.800    276.144
   20     1    21     1    107.800    276.144
    5     4    27     1    110.700    313.800
    7     6    31     1    109.500    292.880
   40    14    41     1    107.800    276.144
    5     4     6     1    112.700    488.273
   43    15    44     1    107.800    276.144
   16    15    44     1    110.700    313.800
   52    19    53     1    107.800    276.144
   17    16    45     1    110.700    313.800
   14    13    39     1    110.700    313.800
   40    14    42     1    107.800    276.144
   48    18    50     1    107.800    276.144
   41    14    42     1    107.800    276.144
   20     1    22     1    107.800    276.144
   48    18    49     1    107.800    276.144
   23     2    24     1    107.800    276.144
   32     8    33     1    107.800    276.144
   51    19    53     1    107.800    276.144
    9     6    31     1    109.500    292.880
   33     8    34     1    107.800    276.144
   13    11    15     1    112.700    488.273
   35    12    37     1    107.800    276.144
   14    13    38     1    110.700    313.800
    6     4    27     1    110.700    313.800
   51    19    52     1    107.800    276.144
   17    16    46     1    110.700    313.800
   28     5    29     1    107.800    276.144
    4     3    26     1    110.700    313.800
   25     3    26     1    107.800    276.144
    7     6     9     1    109.500    418.400
    4     3    25     1    110.700    313.800
    3     2    23     1    110.700    313.800
   18    17    19     1    112.700    488.273
   19    17    47     1    110.700    313.800
   10     9    11     1    120.400    669.440
   21     1    22     1    107.800    276.144
    3     2    24     1    110.700    313.800
   28     5    30     1    107.800    276.144

[ dihedrals ]
; IMPROPER DIHEDRAL ANGLES 
;  ai    aj    ak    al funct            c0            c1            c2            c3            c4            c5
    11     9     6    10    4        180.000     43.932     2  

[ dihedrals ]
; PROPER DIHEDRAL ANGLES
;  ai    aj    ak    al funct            c0            c1            c2            c3            c4            c5
    9    6    4    3        3      -4.960   6.286   1.310  -2.636  -0.000   0.000
    9    6    4    5        3      -4.960   6.286   1.310  -2.636  -0.000   0.000
    9    6    7    8        3       1.715   2.845   1.046  -5.607  -0.000   0.000
   11    9    6    4        3       0.818  -7.906   0.602   6.485  -0.000   0.000
   11    9    6    7        3       2.874   0.582   2.092  -5.548  -0.000   0.000
   15   11    9    6        3       0.818  -7.906   0.602   6.485  -0.000   0.000
   13   11    9    6        3       0.818  -7.906   0.602   6.485  -0.000   0.000
   12   11    9    6        3       0.818  -7.906   0.602   6.485  -0.000   0.000
   15   11    9   10        3       0.000   0.000   0.000  -0.000  -0.000   0.000
   12   11    9   10        3       0.000   0.000   0.000  -0.000  -0.000   0.000
   13   11    9   10        3       0.000   0.000   0.000  -0.000  -0.000   0.000
   14   13   11    9        3      -4.960   6.286   1.310  -2.636  -0.000   0.000
   16   15   11    9        3      -4.960   6.286   1.310  -2.636  -0.000   0.000
   15   11   13   14        3       2.301  -1.464   0.837  -1.674  -0.000   0.000
   16   15   11   13        3       2.301  -1.464   0.837  -1.674  -0.000   0.000
   14   13   11   12        3       2.301  -1.464   0.837  -1.674  -0.000   0.000
   19   17   16   15        3       2.301  -1.464   0.837  -1.674  -0.000   0.000
   16   15   11   12        3       2.301  -1.464   0.837  -1.674  -0.000   0.000
    6    4    3    2        3       2.301  -1.464   0.837  -1.674  -0.000   0.000
    4    3    2    1        3       2.301  -1.464   0.837  -1.674  -0.000   0.000
    5    4    3    2        3       2.301  -1.464   0.837  -1.674  -0.000   0.000
   18   17   16   15        3       2.301  -1.464   0.837  -1.674  -0.000   0.000
   17   16   15   11        3       2.301  -1.464   0.837  -1.674  -0.000   0.000
    8    7    6    4        3       1.715   2.845   1.046  -5.607  -0.000   0.000
   31    6    9   11        3       0.575   1.726   0.000  -2.301  -0.000   0.000
   31    6    9   10        3       0.000   0.000   0.000  -0.000  -0.000   0.000
   35   12   11    9        3      -0.209  -0.628   0.000   0.837  -0.000   0.000
   43   15   11    9        3      -0.209  -0.628   0.000   0.837  -0.000   0.000
   37   12   11    9        3      -0.209  -0.628   0.000   0.837  -0.000   0.000
   27    4    6    9        3      -0.209  -0.628   0.000   0.837  -0.000   0.000
   39   13   11    9        3      -0.209  -0.628   0.000   0.837  -0.000   0.000
   36   12   11    9        3      -0.209  -0.628   0.000   0.837  -0.000   0.000
   44   15   11    9        3      -0.209  -0.628   0.000   0.837  -0.000   0.000
   38   13   11    9        3      -0.209  -0.628   0.000   0.837  -0.000   0.000
   41   14   13   11        3       0.628   1.883   0.000  -2.510  -0.000   0.000
   36   12   11   13        3       0.628   1.883   0.000  -2.510  -0.000   0.000
   46   16   17   18        3       0.628   1.883   0.000  -2.510  -0.000   0.000
   30    5    4    3        3       0.628   1.883   0.000  -2.510  -0.000   0.000
   45   16   17   19        3       0.628   1.883   0.000  -2.510  -0.000   0.000
   47   17   16   15        3       0.628   1.883   0.000  -2.510  -0.000   0.000
   44   15   11   13        3       0.628   1.883   0.000  -2.510  -0.000   0.000
   35   12   11   15        3       0.628   1.883   0.000  -2.510  -0.000   0.000
   53   19   17   18        3       0.628   1.883   0.000  -2.510  -0.000   0.000
   37   12   11   13        3       0.628   1.883   0.000  -2.510  -0.000   0.000
   45   16   15   11        3       0.628   1.883   0.000  -2.510  -0.000   0.000
   28    5    4    3        3       0.628   1.883   0.000  -2.510  -0.000   0.000
   50   18   17   19        3       0.628   1.883   0.000  -2.510  -0.000   0.000
   37   12   11   15        3       0.628   1.883   0.000  -2.510  -0.000   0.000
   46   16   17   19        3       0.628   1.883   0.000  -2.510  -0.000   0.000
   46   16   15   11        3       0.628   1.883   0.000  -2.510  -0.000   0.000
   28    5    4    6        3       0.628   1.883   0.000  -2.510  -0.000   0.000
   24    2    3    4        3       0.628   1.883   0.000  -2.510  -0.000   0.000
   42   14   13   11        3       0.628   1.883   0.000  -2.510  -0.000   0.000
   52   19   17   18        3       0.628   1.883   0.000  -2.510  -0.000   0.000
   38   13   11   12        3       0.628   1.883   0.000  -2.510  -0.000   0.000
   36   12   11   15        3       0.628   1.883   0.000  -2.510  -0.000   0.000
   22    1    2    3        3       0.628   1.883   0.000  -2.510  -0.000   0.000
   43   15   16   17        3       0.628   1.883   0.000  -2.510  -0.000   0.000
   21    1    2    3        3       0.628   1.883   0.000  -2.510  -0.000   0.000
   20    1    2    3        3       0.628   1.883   0.000  -2.510  -0.000   0.000
   29    5    4    6        3       0.628   1.883   0.000  -2.510  -0.000   0.000
   31    6    4    3        3       0.628   1.883   0.000  -2.510  -0.000   0.000
   49   18   17   16        3       0.628   1.883   0.000  -2.510  -0.000   0.000
   25    3    4    6        3       0.628   1.883   0.000  -2.510  -0.000   0.000
   38   13   11   15        3       0.628   1.883   0.000  -2.510  -0.000   0.000
   26    3    4    5        3       0.628   1.883   0.000  -2.510  -0.000   0.000
   50   18   17   16        3       0.628   1.883   0.000  -2.510  -0.000   0.000
   27    4    3    2        3       0.628   1.883   0.000  -2.510  -0.000   0.000
   35   12   11   13        3       0.628   1.883   0.000  -2.510  -0.000   0.000
   51   19   17   18        3       0.628   1.883   0.000  -2.510  -0.000   0.000
   49   18   17   19        3       0.628   1.883   0.000  -2.510  -0.000   0.000
   44   15   16   17        3       0.628   1.883   0.000  -2.510  -0.000   0.000
   48   18   17   16        3       0.628   1.883   0.000  -2.510  -0.000   0.000
   26    3    4    6        3       0.628   1.883   0.000  -2.510  -0.000   0.000
   53   19   17   16        3       0.628   1.883   0.000  -2.510  -0.000   0.000
   40   14   13   11        3       0.628   1.883   0.000  -2.510  -0.000   0.000
   52   19   17   16        3       0.628   1.883   0.000  -2.510  -0.000   0.000
   48   18   17   19        3       0.628   1.883   0.000  -2.510  -0.000   0.000
   25    3    2    1        3       0.628   1.883   0.000  -2.510  -0.000   0.000
   51   19   17   16        3       0.628   1.883   0.000  -2.510  -0.000   0.000
   23    2    3    4        3       0.628   1.883   0.000  -2.510  -0.000   0.000
   43   15   11   12        3       0.628   1.883   0.000  -2.510  -0.000   0.000
   29    5    4    3        3       0.628   1.883   0.000  -2.510  -0.000   0.000
   26    3    2    1        3       0.628   1.883   0.000  -2.510  -0.000   0.000
   39   13   11   15        3       0.628   1.883   0.000  -2.510  -0.000   0.000
   30    5    4    6        3       0.628   1.883   0.000  -2.510  -0.000   0.000
   31    6    4    5        3       0.628   1.883   0.000  -2.510  -0.000   0.000
   25    3    4    5        3       0.628   1.883   0.000  -2.510  -0.000   0.000
   39   13   11   12        3       0.628   1.883   0.000  -2.510  -0.000   0.000
   44   15   11   12        3       0.628   1.883   0.000  -2.510  -0.000   0.000
   45   16   17   18        3       0.628   1.883   0.000  -2.510  -0.000   0.000
   43   15   11   13        3       0.628   1.883   0.000  -2.510  -0.000   0.000
   51   19   17   47        3       0.628   1.883   0.000  -2.510  -0.000   0.000
   42   14   13   39        3       0.628   1.883   0.000  -2.510  -0.000   0.000
   42   14   13   38        3       0.628   1.883   0.000  -2.510  -0.000   0.000
   49   18   17   47        3       0.628   1.883   0.000  -2.510  -0.000   0.000
   53   19   17   47        3       0.628   1.883   0.000  -2.510  -0.000   0.000
   25    3    2   24        3       0.628   1.883   0.000  -2.510  -0.000   0.000
   29    5    4   27        3       0.628   1.883   0.000  -2.510  -0.000   0.000
   41   14   13   38        3       0.628   1.883   0.000  -2.510  -0.000   0.000
   46   16   15   44        3       0.628   1.883   0.000  -2.510  -0.000   0.000
   24    2    1   20        3       0.628   1.883   0.000  -2.510  -0.000   0.000
   26    3    2   24        3       0.628   1.883   0.000  -2.510  -0.000   0.000
   41   14   13   39        3       0.628   1.883   0.000  -2.510  -0.000   0.000
   52   19   17   47        3       0.628   1.883   0.000  -2.510  -0.000   0.000
   26    3    2   23        3       0.628   1.883   0.000  -2.510  -0.000   0.000
   25    3    2   23        3       0.628   1.883   0.000  -2.510  -0.000   0.000
   23    2    1   22        3       0.628   1.883   0.000  -2.510  -0.000   0.000
   23    2    1   21        3       0.628   1.883   0.000  -2.510  -0.000   0.000
   40   14   13   38        3       0.628   1.883   0.000  -2.510  -0.000   0.000
   30    5    4   27        3       0.628   1.883   0.000  -2.510  -0.000   0.000
   45   16   15   43        3       0.628   1.883   0.000  -2.510  -0.000   0.000
   24    2    1   22        3       0.628   1.883   0.000  -2.510  -0.000   0.000
   27    4    3   25        3       0.628   1.883   0.000  -2.510  -0.000   0.000
   50   18   17   47        3       0.628   1.883   0.000  -2.510  -0.000   0.000
   23    2    1   20        3       0.628   1.883   0.000  -2.510  -0.000   0.000
   24    2    1   21        3       0.628   1.883   0.000  -2.510  -0.000   0.000
   31    6    4   27        3       0.628   1.883   0.000  -2.510  -0.000   0.000
   40   14   13   39        3       0.628   1.883   0.000  -2.510  -0.000   0.000
   27    4    3   26        3       0.628   1.883   0.000  -2.510  -0.000   0.000
   48   18   17   47        3       0.628   1.883   0.000  -2.510  -0.000   0.000
   28    5    4   27        3       0.628   1.883   0.000  -2.510  -0.000   0.000
   47   17   16   45        3       0.628   1.883   0.000  -2.510  -0.000   0.000
   45   16   15   44        3       0.628   1.883   0.000  -2.510  -0.000   0.000
   46   16   15   43        3       0.628   1.883   0.000  -2.510  -0.000   0.000
   47   17   16   46        3       0.628   1.883   0.000  -2.510  -0.000   0.000
   27    4    6    7        3       0.979   2.937   0.000  -3.916  -0.000   0.000
   34    8    7    6        3       1.590   4.770   0.000  -6.360  -0.000   0.000
   33    8    7    6        3       1.590   4.770   0.000  -6.360  -0.000   0.000
   31    6    7    8        3       1.590   4.770   0.000  -6.360  -0.000   0.000
   32    8    7    6        3       1.590   4.770   0.000  -6.360  -0.000   0.000
   10    9    6    4        3       0.000   0.000   0.000  -0.000  -0.000   0.000
   10    9    6    7        3       0.000   0.000   0.000  -0.000  -0.000   0.000
    7    6    4    3        3       2.874   0.582   2.092  -5.548  -0.000   0.000
    7    6    4    5        3       2.874   0.582   2.092  -5.548  -0.000   0.000

[ pairs ]
     1     4    1
     2     5    1
     2     6    1
     3     7    1
     5     7    1
     4     8    1
     3     9    1
     5     9    1
     4    10    1
     4    11    1
     8     9    1
     7    10    1
     7    11    1
     6    12    1
     6    13    1
     6    15    1
    10    12    1
    10    13    1
     9    14    1
     3    20    1
     3    21    1
    10    15    1
     9    16    1
     3    22    1
    12    14    1
     1    25    1
     4    23    1
     1    26    1
    12    16    1
    11    17    1
     4    24    1
    14    15    1
    13    16    1
     2    27    1
     5    25    1
     6    25    1
     5    26    1
     3    28    1
     6    26    1
     3    29    1
    15    18    1
     3    30    1
    15    19    1
     7    27    1
     6    28    1
     3    31    1
     6    29    1
     9    27    1
     6    30    1
     5    31    1
     6    32    1
     8    31    1
     6    33    1
     6    34    1
    10    31    1
    11    31    1
    20    23    1
    21    23    1
    20    24    1
     9    35    1
    22    23    1
    21    24    1
     9    36    1
    22    24    1
     9    37    1
     9    38    1
    23    25    1
    13    35    1
     9    39    1
    24    25    1
    23    26    1
    13    36    1
    24    26    1
    15    35    1
    13    37    1
    12    38    1
    15    36    1
    12    39    1
    11    40    1
    25    27    1
    15    37    1
    11    41    1
     9    43    1
    26    27    1
    15    38    1
    11    42    1
     9    44    1
    15    39    1
    27    28    1
    12    43    1
    27    29    1
    13    43    1
    12    44    1
    11    45    1
    27    30    1
    13    44    1
    11    46    1
    27    31    1
    17    43    1
    17    44    1
    15    47    1
    18    45    1
    19    45    1
    18    46    1
    16    48    1
    19    46    1
    16    49    1
    16    50    1
    19    48    1
    16    51    1
    19    49    1
    16    52    1
    19    50    1
    18    51    1
    16    53    1
    18    52    1
    18    53    1
    38    40    1
    39    40    1
    38    41    1
    39    41    1
    38    42    1
    39    42    1
    43    45    1
    44    45    1
    43    46    1
    44    46    1
    45    47    1
    46    47    1
    47    48    1
    47    49    1
    47    50    1
    47    51    1
    47    52    1
    47    53    1

