LIGPARGEN GENERATED GRO FILE
   53
    1UNK    C00    1   0.100   0.100   0.000
    1UNK    C01    2  -0.052   0.100   0.000
    1UNK    C02    3  -0.107   0.100   0.143
    1UNK    C03    4  -0.262   0.100   0.151
    1UNK    C04    5  -0.321  -0.027   0.089
    1UNK    C05    6  -0.307   0.116   0.300
    1UNK    O06    7  -0.245   0.229   0.363
    1UNK    C07    8  -0.288   0.356   0.315
    1UNK    C08    9  -0.460   0.117   0.319
    1UNK    O09   10  -0.532   0.172   0.234
    1UNK    C0A   11  -0.523   0.057   0.449
    1UNK    C0B   12  -0.437  -0.054   0.512
    1UNK    C0C   13  -0.536   0.170   0.555
    1UNK    C0D   14  -0.635   0.282   0.525
    1UNK    C0E   15  -0.663  -0.002   0.414
    1UNK    C0F   16  -0.660  -0.117   0.312
    1UNK    C0G   17  -0.799  -0.171   0.272
    1UNK    C0H   18  -0.889  -0.064   0.210
    1UNK    C0I   19  -0.781  -0.286   0.173
    1UNK    H0J   20   0.138   0.100  -0.103
    1UNK    H0K   21   0.139   0.011   0.050
    1UNK    H0M   22   0.140   0.188   0.051
    1UNK    H0N   23  -0.086   0.012  -0.055
    1UNK    H0O   24  -0.088   0.189  -0.054
    1UNK    H0P   25  -0.068   0.189   0.194
    1UNK    H0Q   26  -0.068   0.013   0.197
    1UNK    H0R   27  -0.299   0.185   0.092
    1UNK    H0S   28  -0.282  -0.117   0.138
    1UNK    H0T   29  -0.296  -0.033  -0.018
    1UNK    H0U   30  -0.430  -0.029   0.095
    1UNK    H0V   31  -0.267   0.029   0.352
    1UNK    H0W   32  -0.203   0.424   0.318
    1UNK    H0X   33  -0.366   0.395   0.381
    1UNK    H0Y   34  -0.326   0.354   0.213
    1UNK    H0Z   35  -0.342  -0.014   0.551
    1UNK    H10   36  -0.411  -0.132   0.440
    1UNK    H11   37  -0.488  -0.101   0.597
    1UNK    H12   38  -0.437   0.215   0.572
    1UNK    H13   39  -0.566   0.126   0.652
    1UNK    H14   40  -0.622   0.321   0.423
    1UNK    H15   41  -0.619   0.365   0.594
    1UNK    H16   42  -0.738   0.248   0.537
    1UNK    H17   43  -0.727   0.078   0.375
    1UNK    H18   44  -0.712  -0.038   0.506
    1UNK    H19   45  -0.602  -0.200   0.352
    1UNK    H1A   46  -0.609  -0.084   0.221
    1UNK    H1B   47  -0.848  -0.210   0.362
    1UNK    H1C   48  -0.840  -0.015   0.126
    1UNK    H1D   49  -0.916   0.013   0.283
    1UNK    H1E   50  -0.983  -0.108   0.174
    1UNK    H1F   51  -0.733  -0.252   0.080
    1UNK    H1G   52  -0.878  -0.330   0.146
    1UNK    H1H   53  -0.719  -0.365   0.215
   1.00000   1.00000   1.00000

