LIGPARGEN GENERATED GRO FILE
   33
    1UNK    C00    1   0.100   0.100   0.000
    1UNK    C01    2  -0.052   0.100   0.000
    1UNK    O02    3  -0.098   0.100   0.135
    1UNK    C03    4  -0.204   0.184   0.149
    1UNK    O04    5  -0.275   0.189   0.248
    1UNK    C05    6  -0.221   0.269   0.027
    1UNK    C06    7  -0.112   0.223  -0.068
    1UNK    C07    8  -0.162   0.190  -0.210
    1UNK    C08    9  -0.231   0.304  -0.288
    1UNK    C09   10  -0.138   0.422  -0.312
    1UNK    S0A   11  -0.294   0.238  -0.444
    1UNK    O0B   12  -0.182   0.186  -0.521
    1UNK    O0C   13  -0.405   0.149  -0.411
    1UNK    S0D   14  -0.375   0.403  -0.551
    1UNK    C0E   15  -0.492   0.330  -0.663
    1UNK    O0F   16  -0.450   0.482  -0.455
    1UNK    O0G   17  -0.269   0.463  -0.630
    1UNK    H0H   18   0.138   0.006   0.042
    1UNK    H0I   19   0.139   0.180   0.064
    1UNK    H0J   20   0.140   0.111  -0.101
    1UNK    H0K   21  -0.087   0.007  -0.046
    1UNK    H0M   22  -0.207   0.374   0.054
    1UNK    H0N   23  -0.322   0.253  -0.014
    1UNK    H0O   24  -0.036   0.302  -0.075
    1UNK    H0P   25  -0.233   0.106  -0.202
    1UNK    H0Q   26  -0.078   0.151  -0.268
    1UNK    H0R   27  -0.319   0.338  -0.233
    1UNK    H0S   28  -0.057   0.397  -0.382
    1UNK    H0T   29  -0.093   0.459  -0.219
    1UNK    H0U   30  -0.193   0.507  -0.355
    1UNK    H0V   31  -0.569   0.278  -0.605
    1UNK    H0W   32  -0.439   0.261  -0.728
    1UNK    H0X   33  -0.537   0.410  -0.721
   1.00000   1.00000   1.00000

