
;
; GENERATED BY LigParGen Server
; Jorgensen Lab @ Yale University 
;
[ atomtypes ]
  opls_818  H818     1.0080     0.000    A    2.50000E-01   1.25520E-01
  opls_814  C814    12.0110     0.000    A    3.50000E-01   2.76144E-01
  opls_803  O803    15.9990     0.000    A    2.90000E-01   5.85760E-01
  opls_824  H824     1.0080     0.000    A    2.50000E-01   1.25520E-01
  opls_805  O805    15.9990     0.000    A    2.96000E-01   8.78640E-01
  opls_836  H836     1.0080     0.000    A    2.50000E-01   1.25520E-01
  opls_834  H834     1.0080     0.000    A    2.50000E-01   1.25520E-01
  opls_810  C810    12.0110     0.000    A    3.50000E-01   2.76144E-01
  opls_828  H828     1.0080     0.000    A    2.50000E-01   1.25520E-01
  opls_815  N815    14.0070     0.000    A    3.30000E-01   7.11280E-01
  opls_806  O806    15.9990     0.000    A    2.90000E-01   5.85760E-01
  opls_802  C802    12.0110     0.000    A    3.50000E-01   2.76144E-01
  opls_827  H827     1.0080     0.000    A    2.50000E-01   1.25520E-01
  opls_809  C809    12.0110     0.000    A    3.50000E-01   2.76144E-01
  opls_838  H838     1.0080     0.000    A    2.50000E-01   1.25520E-01
  opls_822  H822     1.0080     0.000    A    2.50000E-01   1.25520E-01
  opls_807  C807    12.0110     0.000    A    3.50000E-01   2.76144E-01
  opls_825  H825     1.0080     0.000    A    2.50000E-01   1.25520E-01
  opls_830  H830     1.0080     0.000    A    2.50000E-01   1.25520E-01
  opls_821  H821     1.0080     0.000    A    2.50000E-01   1.25520E-01
  opls_820  H820     1.0080     0.000    A    2.50000E-01   1.25520E-01
  opls_837  H837     1.0080     0.000    A    2.50000E-01   1.25520E-01
  opls_829  H829     1.0080     0.000    A    2.50000E-01   1.25520E-01
  opls_831  H831     1.0080     0.000    A    2.50000E-01   1.25520E-01
  opls_804  C804    12.0110     0.000    A    3.55000E-01   2.92880E-01
  opls_812  O812    15.9990     0.000    A    2.96000E-01   8.78640E-01
  opls_832  H832     1.0080     0.000    A    2.50000E-01   1.25520E-01
  opls_800  C800    12.0110     0.000    A    3.50000E-01   2.76144E-01
  opls_823  H823     1.0080     0.000    A    2.50000E-01   1.25520E-01
  opls_811  C811    12.0110     0.000    A    3.55000E-01   2.92880E-01
  opls_833  H833     1.0080     0.000    A    2.50000E-01   1.25520E-01
  opls_813  C813    12.0110     0.000    A    3.50000E-01   2.76144E-01
  opls_808  O808    15.9990     0.000    A    2.90000E-01   5.85760E-01
  opls_826  H826     1.0080     0.000    A    2.50000E-01   1.25520E-01
  opls_835  H835     1.0080     0.000    A    2.50000E-01   1.25520E-01
  opls_819  H819     1.0080     0.000    A    2.50000E-01   1.25520E-01
  opls_816  C816    12.0110     0.000    A    3.50000E-01   2.76144E-01
  opls_839  H839     1.0080     0.000    A    2.50000E-01   1.25520E-01
  opls_817  C817    12.0110     0.000    A    3.50000E-01   2.76144E-01
  opls_801  C801    12.0110     0.000    A    3.50000E-01   2.76144E-01
  opls_840  H840     1.0080     0.000    A    2.50000E-01   1.25520E-01
[ moleculetype ]
; Name               nrexcl
UNK                   3
[ atoms ]
;   nr       type  resnr residue  atom   cgnr     charge       mass  
     1   opls_800      1    UNK   C00      1    -0.2755    12.0110 
     2   opls_801      1    UNK   C01      1     0.0826    12.0110 
     3   opls_802      1    UNK   C02      1    -0.2479    12.0110 
     4   opls_803      1    UNK   O03      1    -0.3268    15.9990 
     5   opls_804      1    UNK   C04      1     0.5745    12.0110 
     6   opls_805      1    UNK   O05      1    -0.4879    15.9990 
     7   opls_806      1    UNK   O06      1    -0.2928    15.9990 
     8   opls_807      1    UNK   C07      1     0.1889    12.0110 
     9   opls_808      1    UNK   O08      1    -0.4068    15.9990 
    10   opls_809      1    UNK   C09      1      0.032    12.0110 
    11   opls_810      1    UNK   C0A      1    -0.1788    12.0110 
    12   opls_811      1    UNK   C0B      1     0.3137    12.0110 
    13   opls_812      1    UNK   O0C      1    -0.4538    15.9990 
    14   opls_813      1    UNK   C0D      1    -0.1651    12.0110 
    15   opls_814      1    UNK   C0E      1      0.004    12.0110 
    16   opls_815      1    UNK   N0F      1    -0.5664    14.0070 
    17   opls_816      1    UNK   C0G      1     -0.059    12.0110 
    18   opls_817      1    UNK   C0H      1    -0.0571    12.0110 
    19   opls_818      1    UNK   H0I      1     0.1013     1.0080 
    20   opls_819      1    UNK   H0J      1     0.1013     1.0080 
    21   opls_820      1    UNK   H0K      1     0.1013     1.0080 
    22   opls_821      1    UNK   H0M      1     0.1262     1.0080 
    23   opls_822      1    UNK   H0N      1     0.1018     1.0080 
    24   opls_823      1    UNK   H0O      1     0.1018     1.0080 
    25   opls_824      1    UNK   H0P      1     0.1018     1.0080 
    26   opls_825      1    UNK   H0Q      1      0.114     1.0080 
    27   opls_826      1    UNK   H0R      1      0.114     1.0080 
    28   opls_827      1    UNK   H0S      1       0.09     1.0080 
    29   opls_828      1    UNK   H0T      1       0.09     1.0080 
    30   opls_829      1    UNK   H0U      1     0.1625     1.0080 
    31   opls_830      1    UNK   H0V      1      0.131     1.0080 
    32   opls_831      1    UNK   H0W      1     0.1088     1.0080 
    33   opls_832      1    UNK   H0X      2     0.1088     1.0080 
    34   opls_833      1    UNK   H0Y      2     0.0826     1.0080 
    35   opls_834      1    UNK   H0Z      2     0.0826     1.0080 
    36   opls_835      1    UNK   H10      2      0.084     1.0080 
    37   opls_836      1    UNK   H11      2      0.084     1.0080 
    38   opls_837      1    UNK   H12      2      0.084     1.0080 
    39   opls_838      1    UNK   H13      2     0.0834     1.0080 
    40   opls_839      1    UNK   H14      2     0.0834     1.0080 
    41   opls_840      1    UNK   H15      2     0.0834     1.0080 
[ bonds ]
    2     1     1      0.1529 224262.400
    3     2     1      0.1529 224262.400
    4     2     1      0.1410 267776.000
    5     4     1      0.1327 179075.200
    6     5     1      0.1229 476976.000
    7     5     1      0.1327 179075.200
    8     7     1      0.1380 267776.000
    9     8     1      0.1380 267776.000
   10     9     1      0.1410 267776.000
   11    10     1      0.1529 224262.400
   12    11     1      0.1522 265265.600
   13    12     1      0.1229 476976.000
   14    11     1      0.1529 224262.400
   15    14     1      0.1529 224262.400
   16    15     1      0.1448 319657.600
   17    16     1      0.1448 319657.600
   18    16     1      0.1448 319657.600
   19     1     1      0.1090 284512.000
   20     1     1      0.1090 284512.000
   21     1     1      0.1090 284512.000
   22     2     1      0.1090 284512.000
   23     3     1      0.1090 284512.000
   24     3     1      0.1090 284512.000
   25     3     1      0.1090 284512.000
   26     8     1      0.1090 284512.000
   27     8     1      0.1090 284512.000
   28    10     1      0.1090 284512.000
   29    10     1      0.1090 284512.000
   30    11     1      0.1090 284512.000
   31    12     1      0.1090 284512.000
   32    14     1      0.1090 284512.000
   33    14     1      0.1090 284512.000
   34    15     1      0.1090 284512.000
   35    15     1      0.1090 284512.000
   36    17     1      0.1090 284512.000
   37    17     1      0.1090 284512.000
   38    17     1      0.1090 284512.000
   39    18     1      0.1090 284512.000
   40    18     1      0.1090 284512.000
   41    18     1      0.1090 284512.000

[ angles ]
;  ai    aj    ak funct            c0            c1            c2            c3 
    1     2     3     1    112.700    488.273
    1     2     4     1    109.500    418.400
    2     4     5     1    116.900    694.544
    4     5     6     1    123.400    694.544
    4     5     7     1    118.180    584.923
    5     7     8     1    116.900    694.544
    7     8     9     1    111.550    774.877
    8     9    10     1    109.500    502.080
    9    10    11     1    109.500    418.400
   10    11    12     1    111.100    527.184
   11    12    13     1    120.400    669.440
   10    11    14     1    112.700    488.273
   11    14    15     1    112.700    488.273
   14    15    16     1    109.470    470.282
   15    16    17     1    107.200    433.462
   15    16    18     1    107.200    433.462
    2     1    19     1    110.700    313.800
    2     1    20     1    110.700    313.800
    2     1    21     1    110.700    313.800
    1     2    22     1    110.700    313.800
    2     3    23     1    110.700    313.800
    2     3    24     1    110.700    313.800
    2     3    25     1    110.700    313.800
    7     8    26     1    109.500    292.880
    7     8    27     1    109.500    292.880
    9    10    28     1    109.500    292.880
    9    10    29     1    109.500    292.880
   10    11    30     1    110.700    313.800
   11    12    31     1    115.000    292.880
   11    14    32     1    110.700    313.800
   11    14    33     1    110.700    313.800
   14    15    34     1    110.700    313.800
   14    15    35     1    110.700    313.800
   16    17    36     1    109.500    292.880
   16    17    37     1    109.500    292.880
   16    17    38     1    109.500    292.880
   16    18    39     1    109.500    292.880
   16    18    40     1    109.500    292.880
   16    18    41     1    109.500    292.880
   15    14    33     1    110.700    313.800
   36    17    38     1    107.800    276.144
   39    18    40     1    107.800    276.144
   20     1    21     1    107.800    276.144
   24     3    25     1    107.800    276.144
   16    15    35     1    109.500    292.880
    4     2    22     1    109.500    292.880
   11    10    29     1    110.700    313.800
   13    12    31     1    123.000    292.880
   28    10    29     1    107.800    276.144
   23     3    24     1    107.800    276.144
    3     2    22     1    110.700    313.800
   12    11    30     1    109.500    292.880
   39    18    41     1    107.800    276.144
   32    14    33     1    107.800    276.144
   16    15    34     1    109.500    292.880
    9     8    27     1    109.500    292.880
   37    17    38     1    107.800    276.144
   14    11    30     1    110.700    313.800
   19     1    21     1    107.800    276.144
   12    11    14     1    111.100    527.184
    6     5     7     1    123.400    694.544
    3     2     4     1    109.500    418.400
   11    10    28     1    110.700    313.800
   15    14    32     1    110.700    313.800
   36    17    37     1    107.800    276.144
   17    16    18     1    107.200    433.462
   40    18    41     1    107.800    276.144
    9     8    26     1    109.500    292.880
   19     1    20     1    107.800    276.144
   23     3    25     1    107.800    276.144
   34    15    35     1    107.800    276.144
   26     8    27     1    109.500    276.144

[ dihedrals ]
; IMPROPER DIHEDRAL ANGLES 
;  ai    aj    ak    al funct            c0            c1            c2            c3            c4            c5
    31    12    11    13    4        180.000     43.932     2  
     7     5     4     6    4        180.000     43.932     2  

[ dihedrals ]
; PROPER DIHEDRAL ANGLES
;  ai    aj    ak    al funct            c0            c1            c2            c3            c4            c5
   12   11   10    9        3      -12.929  12.929   0.000  -0.000  -0.000   0.000
    5    4    2    1        3      -2.197   5.201   0.527  -3.531  -0.000   0.000
    5    4    2    3        3      -2.197   5.201   0.527  -3.531  -0.000   0.000
    8    7    5    6        3      21.439   0.000  -21.439  -0.000  -0.000   0.000
    8    7    5    4        3      31.206  -9.768  -21.439  -0.000  -0.000   0.000
   14   11   12   13        3       0.000   0.000   0.000  -0.000  -0.000   0.000
   15   14   11   12        3      -4.960   6.286   1.310  -2.636  -0.000   0.000
   15   14   11   10        3       2.301  -1.464   0.837  -1.674  -0.000   0.000
   14   11   10    9        3       2.874   0.582   2.092  -5.548  -0.000   0.000
   11   10    9    8        3       1.715   2.845   1.046  -5.607  -0.000   0.000
   17   16   15   14        3       1.789   3.492   0.536  -5.816  -0.000   0.000
   18   16   15   14        3       1.789   3.492   0.536  -5.816  -0.000   0.000
   10    9    8    7        3      -6.458   0.810   5.682  -0.033  -0.000   0.000
   31   12   11   10        3       0.000   0.000   0.000  -0.000  -0.000   0.000
   31   12   11   14        3       0.000   0.000   0.000  -0.000  -0.000   0.000
   31   12   11   30        3       0.753   2.259   0.000  -3.012  -0.000   0.000
   26    8    7    5        3       1.590   4.770   0.000  -6.360  -0.000   0.000
   27    8    7    5        3       1.590   4.770   0.000  -6.360  -0.000   0.000
   27    8    9   10        3       1.590   4.770   0.000  -6.360  -0.000   0.000
   26    8    9   10        3       1.590   4.770   0.000  -6.360  -0.000   0.000
   30   11   12   13        3       0.000   0.000   0.000  -0.000  -0.000   0.000
   33   14   11   12        3      -0.209  -0.628   0.000   0.837  -0.000   0.000
   32   14   11   12        3      -0.209  -0.628   0.000   0.837  -0.000   0.000
   29   10   11   12        3      -0.209  -0.628   0.000   0.837  -0.000   0.000
   28   10   11   12        3      -0.209  -0.628   0.000   0.837  -0.000   0.000
   24    3    2    1        3       0.628   1.883   0.000  -2.510  -0.000   0.000
   29   10   11   14        3       0.628   1.883   0.000  -2.510  -0.000   0.000
   20    1    2    3        3       0.628   1.883   0.000  -2.510  -0.000   0.000
   33   14   11   10        3       0.628   1.883   0.000  -2.510  -0.000   0.000
   32   14   11   10        3       0.628   1.883   0.000  -2.510  -0.000   0.000
   28   10   11   14        3       0.628   1.883   0.000  -2.510  -0.000   0.000
   35   15   14   11        3       0.628   1.883   0.000  -2.510  -0.000   0.000
   25    3    2    1        3       0.628   1.883   0.000  -2.510  -0.000   0.000
   30   11   14   15        3       0.628   1.883   0.000  -2.510  -0.000   0.000
   21    1    2    3        3       0.628   1.883   0.000  -2.510  -0.000   0.000
   23    3    2    1        3       0.628   1.883   0.000  -2.510  -0.000   0.000
   19    1    2    3        3       0.628   1.883   0.000  -2.510  -0.000   0.000
   34   15   14   11        3       0.628   1.883   0.000  -2.510  -0.000   0.000
   32   14   11   30        3       0.628   1.883   0.000  -2.510  -0.000   0.000
   35   15   14   32        3       0.628   1.883   0.000  -2.510  -0.000   0.000
   34   15   14   33        3       0.628   1.883   0.000  -2.510  -0.000   0.000
   22    2    1   21        3       0.628   1.883   0.000  -2.510  -0.000   0.000
   24    3    2   22        3       0.628   1.883   0.000  -2.510  -0.000   0.000
   30   11   10   29        3       0.628   1.883   0.000  -2.510  -0.000   0.000
   34   15   14   32        3       0.628   1.883   0.000  -2.510  -0.000   0.000
   30   11   10   28        3       0.628   1.883   0.000  -2.510  -0.000   0.000
   35   15   14   33        3       0.628   1.883   0.000  -2.510  -0.000   0.000
   22    2    1   20        3       0.628   1.883   0.000  -2.510  -0.000   0.000
   22    2    1   19        3       0.628   1.883   0.000  -2.510  -0.000   0.000
   33   14   11   30        3       0.628   1.883   0.000  -2.510  -0.000   0.000
   25    3    2   22        3       0.628   1.883   0.000  -2.510  -0.000   0.000
   23    3    2   22        3       0.628   1.883   0.000  -2.510  -0.000   0.000
   33   14   15   16        3      -4.096   5.088   2.966  -3.958  -0.000   0.000
   32   14   15   16        3      -4.096   5.088   2.966  -3.958  -0.000   0.000
   19    1    2    4        3       0.979   2.937   0.000  -3.916  -0.000   0.000
   21    1    2    4        3       0.979   2.937   0.000  -3.916  -0.000   0.000
   20    1    2    4        3       0.979   2.937   0.000  -3.916  -0.000   0.000
   25    3    2    4        3       0.979   2.937   0.000  -3.916  -0.000   0.000
   23    3    2    4        3       0.979   2.937   0.000  -3.916  -0.000   0.000
   24    3    2    4        3       0.979   2.937   0.000  -3.916  -0.000   0.000
   30   11   10    9        3       0.979   2.937   0.000  -3.916  -0.000   0.000
   37   17   16   15        3       1.172   3.515   0.000  -4.686  -0.000   0.000
   41   18   16   15        3       1.172   3.515   0.000  -4.686  -0.000   0.000
   41   18   16   17        3       1.172   3.515   0.000  -4.686  -0.000   0.000
   34   15   16   17        3       1.172   3.515   0.000  -4.686  -0.000   0.000
   39   18   16   17        3       1.172   3.515   0.000  -4.686  -0.000   0.000
   35   15   16   18        3       1.172   3.515   0.000  -4.686  -0.000   0.000
   34   15   16   18        3       1.172   3.515   0.000  -4.686  -0.000   0.000
   37   17   16   18        3       1.172   3.515   0.000  -4.686  -0.000   0.000
   35   15   16   17        3       1.172   3.515   0.000  -4.686  -0.000   0.000
   39   18   16   15        3       1.172   3.515   0.000  -4.686  -0.000   0.000
   38   17   16   18        3       1.172   3.515   0.000  -4.686  -0.000   0.000
   40   18   16   15        3       1.172   3.515   0.000  -4.686  -0.000   0.000
   40   18   16   17        3       1.172   3.515   0.000  -4.686  -0.000   0.000
   36   17   16   18        3       1.172   3.515   0.000  -4.686  -0.000   0.000
   36   17   16   15        3       1.172   3.515   0.000  -4.686  -0.000   0.000
   38   17   16   15        3       1.172   3.515   0.000  -4.686  -0.000   0.000
   22    2    4    5        3       0.414   1.243   0.000  -1.657  -0.000   0.000
   28   10    9    8        3       1.590   4.770   0.000  -6.360  -0.000   0.000
   29   10    9    8        3       1.590   4.770   0.000  -6.360  -0.000   0.000
   16   15   14   11        3       3.335  -1.552   2.820  -4.602  -0.000   0.000
   13   12   11   10        3       0.000   0.000   0.000  -0.000  -0.000   0.000
    6    5    4    2        3      21.439   0.000  -21.439  -0.000  -0.000   0.000
    7    5    4    2        3      31.206  -9.768  -21.439  -0.000  -0.000   0.000
    9    8    7    5        3      -6.458   0.810   5.682  -0.033  -0.000   0.000

[ pairs ]
     1     5    1
     3     5    1
     2     6    1
     2     7    1
     4     8    1
     6     8    1
     5     9    1
     7    10    1
     8    11    1
     9    12    1
     3    19    1
    10    13    1
     9    14    1
     4    19    1
     3    20    1
     4    20    1
     3    21    1
     1    23    1
    10    15    1
     4    21    1
     1    24    1
     1    25    1
    13    14    1
    12    15    1
    11    16    1
     5    22    1
     4    23    1
     4    24    1
     4    25    1
    14    17    1
     5    26    1
    14    18    1
     5    27    1
    10    26    1
     8    28    1
    10    27    1
     8    29    1
     9    30    1
    12    28    1
    19    22    1
    12    29    1
    10    31    1
    20    22    1
    14    28    1
    10    32    1
    21    22    1
    14    29    1
    13    30    1
    10    33    1
    12    32    1
    22    23    1
    15    30    1
    14    31    1
    12    33    1
    11    34    1
    22    24    1
    11    35    1
    22    25    1
    16    32    1
    16    33    1
    17    34    1
    15    36    1
    18    34    1
    17    35    1
    15    37    1
    18    35    1
    15    38    1
    18    36    1
    15    39    1
    18    37    1
    15    40    1
    18    38    1
    17    39    1
    15    41    1
    17    40    1
    28    30    1
    17    41    1
    29    30    1
    30    31    1
    30    32    1
    30    33    1
    32    34    1
    33    34    1
    32    35    1
    33    35    1

