LIGPARGEN GENERATED GRO FILE
   41
    1UNK    C00    1   0.100   0.100   0.000
    1UNK    C01    2  -0.053   0.100   0.000
    1UNK    C02    3  -0.106   0.100   0.143
    1UNK    O03    4  -0.101   0.219  -0.064
    1UNK    C04    5  -0.102   0.217  -0.200
    1UNK    O05    6  -0.066   0.123  -0.269
    1UNK    O06    7  -0.150   0.335  -0.244
    1UNK    C07    8  -0.155   0.344  -0.385
    1UNK    O08    9  -0.273   0.281  -0.434
    1UNK    C09   10  -0.277   0.284  -0.577
    1UNK    C0A   11  -0.401   0.210  -0.628
    1UNK    C0B   12  -0.524   0.276  -0.567
    1UNK    O0C   13  -0.614   0.327  -0.632
    1UNK    C0D   14  -0.410   0.212  -0.781
    1UNK    C0E   15  -0.294   0.141  -0.854
    1UNK    N0F   16  -0.276   0.001  -0.814
    1UNK    C0G   17  -0.392  -0.082  -0.851
    1UNK    C0H   18  -0.155  -0.054  -0.877
    1UNK    H0I   19   0.139   0.012   0.051
    1UNK    H0J   20   0.139   0.190   0.050
    1UNK    H0K   21   0.139   0.101  -0.102
    1UNK    H0M   22  -0.091   0.011  -0.051
    1UNK    H0N   23  -0.075   0.190   0.196
    1UNK    H0O   24  -0.071   0.012   0.198
    1UNK    H0P   25  -0.216   0.100   0.142
    1UNK    H0Q   26  -0.065   0.302  -0.432
    1UNK    H0R   27  -0.159   0.451  -0.411
    1UNK    H0S   28  -0.186   0.235  -0.615
    1UNK    H0T   29  -0.278   0.388  -0.610
    1UNK    H0U   30  -0.401   0.107  -0.590
    1UNK    H0V   31  -0.528   0.274  -0.457
    1UNK    H0W   32  -0.412   0.316  -0.816
    1UNK    H0X   33  -0.505   0.169  -0.813
    1UNK    H0Y   34  -0.202   0.196  -0.833
    1UNK    H0Z   35  -0.310   0.149  -0.962
    1UNK    H10   36  -0.480  -0.053  -0.794
    1UNK    H11   37  -0.374  -0.187  -0.828
    1UNK    H12   38  -0.415  -0.074  -0.958
    1UNK    H13   39  -0.067   0.002  -0.845
    1UNK    H14   40  -0.161  -0.050  -0.987
    1UNK    H15   41  -0.140  -0.158  -0.847
   1.00000   1.00000   1.00000

