LIGPARGEN GENERATED GRO FILE
   21
    1UNK    C00    1   0.100   0.100   0.000
    1UNK    C01    2  -0.052   0.100   0.000
    1UNK    C02    3  -0.121   0.100   0.138
    1UNK    C03    4  -0.227   0.197   0.079
    1UNK    C04    5  -0.355   0.131   0.027
    1UNK    C05    6  -0.452   0.228  -0.035
    1UNK    O06    7  -0.433   0.349  -0.044
    1UNK    C07    8  -0.574   0.169  -0.087
    1UNK    N08    9  -0.671   0.117  -0.126
    1UNK    C09   10  -0.121   0.236  -0.027
    1UNK    H0A   11   0.138   0.002   0.032
    1UNK    H0B   12   0.141   0.176   0.068
    1UNK    H0C   13   0.138   0.120  -0.101
    1UNK    H0D   14  -0.090   0.020  -0.065
    1UNK    H0E   15  -0.061   0.146   0.219
    1UNK    H0F   16  -0.157   0.003   0.173
    1UNK    H0G   17  -0.252   0.278   0.149
    1UNK    H0H   18  -0.406   0.081   0.110
    1UNK    H0I   19  -0.331   0.055  -0.048
    1UNK    H0J   20  -0.061   0.323   0.002
    1UNK    H0K   21  -0.157   0.251  -0.129
   1.00000   1.00000   1.00000

