
;
; GENERATED BY LigParGen Server
; Jorgensen Lab @ Yale University 
;
[ atomtypes ]
  opls_810  H810     1.0080     0.000    A    2.50000E-01   1.25520E-01
  opls_805  C805    12.0110     0.000    A    3.55000E-01   2.92880E-01
  opls_809  C809    12.0110     0.000    A    3.45000E-01   3.47272E-01
  opls_818  H818     1.0080     0.000    A    2.50000E-01   1.25520E-01
  opls_815  H815     1.0080     0.000    A    2.50000E-01   1.25520E-01
  opls_800  C800    12.0110     0.000    A    3.50000E-01   2.76144E-01
  opls_816  H816     1.0080     0.000    A    2.50000E-01   1.25520E-01
  opls_806  O806    15.9990     0.000    A    2.96000E-01   8.78640E-01
  opls_817  H817     1.0080     0.000    A    2.50000E-01   1.25520E-01
  opls_801  C801    12.0110     0.000    A    3.45000E-01   3.47272E-01
  opls_820  H820     1.0080     0.000    A    2.50000E-01   1.25520E-01
  opls_812  H812     1.0080     0.000    A    2.50000E-01   1.25520E-01
  opls_819  H819     1.0080     0.000    A    2.50000E-01   1.25520E-01
  opls_807  C807    12.0110     0.000    A    3.30000E-01   2.76144E-01
  opls_814  H814     1.0080     0.000    A    2.50000E-01   1.25520E-01
  opls_802  C802    12.0110     0.000    A    3.45000E-01   3.47272E-01
  opls_808  N808    14.0070     0.000    A    3.20000E-01   7.11280E-01
  opls_813  H813     1.0080     0.000    A    2.50000E-01   1.25520E-01
  opls_811  H811     1.0080     0.000    A    2.50000E-01   1.25520E-01
  opls_804  C804    12.0110     0.000    A    3.50000E-01   2.76144E-01
  opls_803  C803    12.0110     0.000    A    3.45000E-01   3.47272E-01
[ moleculetype ]
; Name               nrexcl
UNK                   3
[ atoms ]
;   nr       type  resnr residue  atom   cgnr     charge       mass  
     1   opls_800      1    UNK   C00      1    -0.2286    12.0110 
     2   opls_801      1    UNK   C01      1    -0.1417    12.0110 
     3   opls_802      1    UNK   C02      1    -0.1902    12.0110 
     4   opls_803      1    UNK   C03      1    -0.1374    12.0110 
     5   opls_804      1    UNK   C04      1    -0.2005    12.0110 
     6   opls_805      1    UNK   C05      1      0.484    12.0110 
     7   opls_806      1    UNK   O06      1    -0.3799    15.9990 
     8   opls_807      1    UNK   C07      1     0.0812    12.0110 
     9   opls_808      1    UNK   N08      1    -0.2922    14.0070 
    10   opls_809      1    UNK   C09      1    -0.1831    12.0110 
    11   opls_810      1    UNK   H0A      1     0.0853     1.0080 
    12   opls_811      1    UNK   H0B      1     0.0853     1.0080 
    13   opls_812      1    UNK   H0C      1     0.0853     1.0080 
    14   opls_813      1    UNK   H0D      1     0.1113     1.0080 
    15   opls_814      1    UNK   H0E      1     0.1054     1.0080 
    16   opls_815      1    UNK   H0F      1     0.1054     1.0080 
    17   opls_816      1    UNK   H0G      1     0.1214     1.0080 
    18   opls_817      1    UNK   H0H      1     0.1351     1.0080 
    19   opls_818      1    UNK   H0I      1     0.1351     1.0080 
    20   opls_819      1    UNK   H0J      1     0.1094     1.0080 
    21   opls_820      1    UNK   H0K      1     0.1094     1.0080 
[ bonds ]
    2     1     1      0.1510 234304.000
    3     2     1      0.1520 217568.000
    4     3     1      0.1520 217568.000
    5     4     1      0.1510 234304.000
    6     5     1      0.1522 265265.600
    7     6     1      0.1229 476976.000
    8     6     1      0.1444 334720.000
    9     8     1      0.1157 543920.000
   10     2     1      0.1520 217568.000
   11     1     1      0.1090 284512.000
   12     1     1      0.1090 284512.000
   13     1     1      0.1090 284512.000
   14     2     1      0.1088 284512.000
   15     3     1      0.1088 284512.000
   16     3     1      0.1088 284512.000
   17     4     1      0.1088 284512.000
   18     5     1      0.1090 284512.000
   19     5     1      0.1090 284512.000
   20    10     1      0.1088 284512.000
   21    10     1      0.1088 284512.000
   10     4     1      0.1520 217568.000

[ angles ]
;  ai    aj    ak funct            c0            c1            c2            c3 
    1     2     3     1    117.200    313.800
    2     3     4     1     83.000    251.040
    3     4     5     1    117.200    313.800
    4     5     6     1    111.100    527.184
    5     6     7     1    120.400    669.440
    5     6     8     1    118.180    584.923
    6     8     9     1    156.000    924.413
    1     2    10     1    117.200    313.800
    2     1    11     1    110.700    313.800
    2     1    12     1    110.700    313.800
    2     1    13     1    110.700    313.800
    1     2    14     1    114.300    292.880
    2     3    15     1    117.200    313.800
    2     3    16     1    117.200    313.800
    3     4    17     1    117.200    313.800
    4     5    18     1    110.700    313.800
    4     5    19     1    110.700    313.800
    2    10    20     1    117.200    313.800
    2    10    21     1    117.200    313.800
   10     2    14     1    117.200    313.800
    3     2    14     1    117.200    313.800
   11     1    13     1    107.800    276.144
    6     5    19     1    109.500    292.880
    3     4    10     1     83.000    251.040
    5     4    10     1    117.200    313.800
    4    10    20     1    117.200    313.800
   15     3    16     1    114.300    292.880
    6     5    18     1    109.500    292.880
   10     4    17     1    117.200    313.800
   11     1    12     1    107.800    276.144
   12     1    13     1    107.800    276.144
    7     6     8     1    118.180    584.923
    2    10     4     1     83.000    251.040
   18     5    19     1    107.800    276.144
    4    10    21     1    117.200    313.800
    4     3    16     1    117.200    313.800
   20    10    21     1    114.300    292.880
    4     3    15     1    117.200    313.800
    5     4    17     1    114.300    292.880
    3     2    10     1     83.000    251.040

[ dihedrals ]
; IMPROPER DIHEDRAL ANGLES 
;  ai    aj    ak    al funct            c0            c1            c2            c3            c4            c5
     8     6     5     7    4        180.000     43.932     2  

[ dihedrals ]
; PROPER DIHEDRAL ANGLES
;  ai    aj    ak    al funct            c0            c1            c2            c3            c4            c5
    6    5    4    3        3      -4.960   6.286   1.310  -2.636  -0.000   0.000
    5    4   10    2        3       0.000   0.000   0.000  -0.000  -0.000   0.000
    5    4    3    2        3       0.000   0.000   0.000  -0.000  -0.000   0.000
   10    4    5    6        3      -4.960   6.286   1.310  -2.636  -0.000   0.000
    4   10    2    1        3       0.000   0.000   0.000  -0.000  -0.000   0.000
    4    3    2    1        3       0.000   0.000   0.000  -0.000  -0.000   0.000
    8    6    5    4        3       0.000   0.000   0.000  -0.000  -0.000   0.000
   19    5    6    8        3       0.575   1.726   0.000  -2.301  -0.000   0.000
   18    5    6    8        3       0.575   1.726   0.000  -2.301  -0.000   0.000
   19    5    6    7        3       0.000   0.000   0.000  -0.000  -0.000   0.000
   18    5    6    7        3       0.000   0.000   0.000  -0.000  -0.000   0.000
   13    1    2   10        3       0.628   1.883   0.000  -2.510  -0.000   0.000
   19    5    4    3        3       0.628   1.883   0.000  -2.510  -0.000   0.000
   13    1    2    3        3       0.628   1.883   0.000  -2.510  -0.000   0.000
   18    5    4   10        3       0.628   1.883   0.000  -2.510  -0.000   0.000
   12    1    2    3        3       0.628   1.883   0.000  -2.510  -0.000   0.000
   19    5    4   10        3       0.628   1.883   0.000  -2.510  -0.000   0.000
   12    1    2   10        3       0.628   1.883   0.000  -2.510  -0.000   0.000
   18    5    4    3        3       0.628   1.883   0.000  -2.510  -0.000   0.000
   11    1    2   10        3       0.628   1.883   0.000  -2.510  -0.000   0.000
   11    1    2    3        3       0.628   1.883   0.000  -2.510  -0.000   0.000
   18    5    4   17        3       0.628   1.883   0.000  -2.510  -0.000   0.000
   19    5    4   17        3       0.628   1.883   0.000  -2.510  -0.000   0.000
   17    4    5    6        3      -0.209  -0.628   0.000   0.837  -0.000   0.000
   14    2    1   13        3       0.628   1.883   0.000  -2.510  -0.000   0.000
   14    2    1   11        3       0.628   1.883   0.000  -2.510  -0.000   0.000
   14    2    1   12        3       0.628   1.883   0.000  -2.510  -0.000   0.000
   21   10    2    1        3       0.000   0.000   0.000  -0.000  -0.000   0.000
   16    3    4    5        3       0.000   0.000   0.000  -0.000  -0.000   0.000
   20   10    2    1        3       0.000   0.000   0.000  -0.000  -0.000   0.000
   16    3    2    1        3       0.000   0.000   0.000  -0.000  -0.000   0.000
   20   10    4    5        3       0.000   0.000   0.000  -0.000  -0.000   0.000
   15    3    2    1        3       0.000   0.000   0.000  -0.000  -0.000   0.000
   15    3    4    5        3       0.000   0.000   0.000  -0.000  -0.000   0.000
   21   10    4    5        3       0.000   0.000   0.000  -0.000  -0.000   0.000
   21   10    2    3        3       0.000   0.000   0.000  -0.000  -0.000   0.000
   15    3    4   10        3       0.000   0.000   0.000  -0.000  -0.000   0.000
   16    3    4   10        3       0.000   0.000   0.000  -0.000  -0.000   0.000
   20   10    4    3        3       0.000   0.000   0.000  -0.000  -0.000   0.000
   20   10    2    3        3       0.000   0.000   0.000  -0.000  -0.000   0.000
   14    2   10    4        3       0.000   0.000   0.000  -0.000  -0.000   0.000
   17    4    3    2        3       0.000   0.000   0.000  -0.000  -0.000   0.000
   16    3    2   10        3       0.000   0.000   0.000  -0.000  -0.000   0.000
   21   10    4    3        3       0.000   0.000   0.000  -0.000  -0.000   0.000
   15    3    2   10        3       0.000   0.000   0.000  -0.000  -0.000   0.000
   17    4   10    2        3       0.000   0.000   0.000  -0.000  -0.000   0.000
   14    2    3    4        3       0.000   0.000   0.000  -0.000  -0.000   0.000
   20   10    2   14        3       0.000   0.000   0.000  -0.000  -0.000   0.000
   17    4    3   15        3       0.000   0.000   0.000  -0.000  -0.000   0.000
   21   10    2   14        3       0.000   0.000   0.000  -0.000  -0.000   0.000
   15    3    2   14        3       0.000   0.000   0.000  -0.000  -0.000   0.000
   20   10    4   17        3       0.000   0.000   0.000  -0.000  -0.000   0.000
   21   10    4   17        3       0.000   0.000   0.000  -0.000  -0.000   0.000
   16    3    2   14        3       0.000   0.000   0.000  -0.000  -0.000   0.000
   17    4    3   16        3       0.000   0.000   0.000  -0.000  -0.000   0.000
    9    8    6    5        3      -0.209   1.046  -0.837  -0.000  -0.000   0.000
    9    8    6    7        3       0.000   0.000   0.000  -0.000  -0.000   0.000
    7    6    5    4        3       0.000   0.000   0.000  -0.000  -0.000   0.000

[ pairs ]
     1     4    1
     2     5    1
     3     6    1
     4     7    1
     4     8    1
     5     9    1
     3    11    1
     3    12    1
     7     9    1
     6    10    1
     3    13    1
     1    15    1
     1    16    1
     4    14    1
     2    17    1
     5    15    1
    10    11    1
     5    16    1
     3    18    1
     1    20    1
    10    12    1
     3    19    1
     1    21    1
    10    13    1
     6    17    1
     3    20    1
     3    21    1
    11    14    1
    10    15    1
     7    18    1
     5    20    1
    12    14    1
    10    16    1
     8    18    1
     7    19    1
     5    21    1
    13    14    1
     8    19    1
    10    18    1
    14    15    1
    10    19    1
    14    16    1
    15    17    1
    16    17    1
    14    20    1
    17    18    1
    14    21    1
    17    19    1
    17    20    1
    17    21    1

