LIGPARGEN GENERATED GRO FILE
   28
    1UNK    C00    1   0.100   0.100   0.000
    1UNK    C01    2  -0.053   0.100   0.000
    1UNK    C02    3  -0.113   0.100   0.140
    1UNK    C03    4  -0.188   0.228   0.174
    1UNK    C04    5  -0.112   0.348   0.222
    1UNK    C05    6  -0.137   0.468   0.134
    1UNK    C06    7   0.002   0.444   0.182
    1UNK    C07    8   0.110   0.446   0.079
    1UNK    C08    9   0.198   0.323   0.070
    1UNK    C09   10   0.159   0.232  -0.045
    1UNK    H0A   11   0.133   0.024  -0.072
    1UNK    H0B   12   0.141   0.069   0.097
    1UNK    H0C   13  -0.084   0.006  -0.049
    1UNK    H0D   14  -0.094   0.180  -0.062
    1UNK    H0E   15  -0.041   0.074   0.218
    1UNK    H0F   16  -0.188   0.020   0.141
    1UNK    H0G   17  -0.254   0.201   0.257
    1UNK    H0H   18  -0.257   0.253   0.092
    1UNK    H0I   19  -0.135   0.358   0.329
    1UNK    H0J   20  -0.194   0.550   0.175
    1UNK    H0K   21  -0.157   0.450   0.028
    1UNK    H0M   22   0.034   0.508   0.264
    1UNK    H0N   23   0.177   0.529   0.109
    1UNK    H0O   24   0.073   0.478  -0.019
    1UNK    H0P   25   0.203   0.270   0.167
    1UNK    H0Q   26   0.300   0.357   0.051
    1UNK    H0R   27   0.251   0.210  -0.101
    1UNK    H0S   28   0.093   0.284  -0.116
   1.00000   1.00000   1.00000

