
;
; GENERATED BY LigParGen Server
; Jorgensen Lab @ Yale University 
;
[ atomtypes ]
  opls_818  H818     1.0080     0.000    A    2.50000E-01   1.25520E-01
  opls_804  C804    12.0110     0.000    A    3.45000E-01   3.47272E-01
  opls_824  H824     1.0080     0.000    A    2.50000E-01   1.25520E-01
  opls_805  C805    12.0110     0.000    A    3.45000E-01   3.47272E-01
  opls_813  H813     1.0080     0.000    A    2.50000E-01   1.25520E-01
  opls_802  C802    12.0110     0.000    A    3.50000E-01   2.76144E-01
  opls_815  H815     1.0080     0.000    A    2.50000E-01   1.25520E-01
  opls_801  C801    12.0110     0.000    A    3.50000E-01   2.76144E-01
  opls_822  H822     1.0080     0.000    A    2.50000E-01   1.25520E-01
  opls_803  C803    12.0110     0.000    A    3.50000E-01   2.76144E-01
  opls_825  H825     1.0080     0.000    A    2.50000E-01   1.25520E-01
  opls_826  H826     1.0080     0.000    A    2.50000E-01   1.25520E-01
  opls_814  H814     1.0080     0.000    A    2.50000E-01   1.25520E-01
  opls_821  H821     1.0080     0.000    A    2.50000E-01   1.25520E-01
  opls_820  H820     1.0080     0.000    A    2.50000E-01   1.25520E-01
  opls_811  H811     1.0080     0.000    A    2.50000E-01   1.25520E-01
  opls_810  H810     1.0080     0.000    A    2.50000E-01   1.25520E-01
  opls_816  H816     1.0080     0.000    A    2.50000E-01   1.25520E-01
  opls_800  C800    12.0110     0.000    A    3.50000E-01   2.76144E-01
  opls_823  H823     1.0080     0.000    A    2.50000E-01   1.25520E-01
  opls_806  C806    12.0110     0.000    A    3.45000E-01   3.47272E-01
  opls_819  H819     1.0080     0.000    A    2.50000E-01   1.25520E-01
  opls_827  H827     1.0080     0.000    A    2.50000E-01   1.25520E-01
  opls_809  C809    12.0110     0.000    A    3.50000E-01   2.76144E-01
  opls_808  C808    12.0110     0.000    A    3.50000E-01   2.76144E-01
  opls_817  H817     1.0080     0.000    A    2.50000E-01   1.25520E-01
  opls_812  H812     1.0080     0.000    A    2.50000E-01   1.25520E-01
  opls_807  C807    12.0110     0.000    A    3.50000E-01   2.76144E-01
[ moleculetype ]
; Name               nrexcl
UNK                   3
[ atoms ]
;   nr       type  resnr residue  atom   cgnr     charge       mass  
     1   opls_800      1    UNK   C00      1      -0.17    12.0110 
     2   opls_801      1    UNK   C01      1    -0.1705    12.0110 
     3   opls_802      1    UNK   C02      1    -0.1687    12.0110 
     4   opls_803      1    UNK   C03      1    -0.1288    12.0110 
     5   opls_804      1    UNK   C04      1     -0.161    12.0110 
     6   opls_805      1    UNK   C05      1    -0.2688    12.0110 
     7   opls_806      1    UNK   C06      1    -0.1378    12.0110 
     8   opls_807      1    UNK   C07      1    -0.1409    12.0110 
     9   opls_808      1    UNK   C08      1    -0.1675    12.0110 
    10   opls_809      1    UNK   C09      1    -0.1716    12.0110 
    11   opls_810      1    UNK   H0A      1     0.0863     1.0080 
    12   opls_811      1    UNK   H0B      1     0.0863     1.0080 
    13   opls_812      1    UNK   H0C      1     0.0856     1.0080 
    14   opls_813      1    UNK   H0D      1     0.0856     1.0080 
    15   opls_814      1    UNK   H0E      1      0.087     1.0080 
    16   opls_815      1    UNK   H0F      1      0.087     1.0080 
    17   opls_816      1    UNK   H0G      1      0.085     1.0080 
    18   opls_817      1    UNK   H0H      1      0.085     1.0080 
    19   opls_818      1    UNK   H0I      1     0.1168     1.0080 
    20   opls_819      1    UNK   H0J      1      0.119     1.0080 
    21   opls_820      1    UNK   H0K      1      0.119     1.0080 
    22   opls_821      1    UNK   H0M      1     0.1203     1.0080 
    23   opls_822      1    UNK   H0N      1     0.0865     1.0080 
    24   opls_823      1    UNK   H0O      1     0.0865     1.0080 
    25   opls_824      1    UNK   H0P      1     0.0894     1.0080 
    26   opls_825      1    UNK   H0Q      1     0.0894     1.0080 
    27   opls_826      1    UNK   H0R      1     0.0853     1.0080 
    28   opls_827      1    UNK   H0S      1     0.0853     1.0080 
[ bonds ]
    2     1     1      0.1529 224262.400
    3     2     1      0.1529 224262.400
    4     3     1      0.1529 224262.400
    5     4     1      0.1510 234304.000
    6     5     1      0.1520 217568.000
    7     5     1      0.1520 217568.000
    8     7     1      0.1510 234304.000
    9     8     1      0.1529 224262.400
   10     1     1      0.1529 224262.400
   11     1     1      0.1090 284512.000
   12     1     1      0.1090 284512.000
   13     2     1      0.1090 284512.000
   14     2     1      0.1090 284512.000
   15     3     1      0.1090 284512.000
   16     3     1      0.1090 284512.000
   17     4     1      0.1090 284512.000
   18     4     1      0.1090 284512.000
   19     5     1      0.1088 284512.000
   20     6     1      0.1088 284512.000
   21     6     1      0.1088 284512.000
   22     7     1      0.1088 284512.000
   23     8     1      0.1090 284512.000
   24     8     1      0.1090 284512.000
   25     9     1      0.1090 284512.000
   26     9     1      0.1090 284512.000
   27    10     1      0.1090 284512.000
   28    10     1      0.1090 284512.000
    7     6     1      0.1520 217568.000
   10     9     1      0.1529 224262.400

[ angles ]
;  ai    aj    ak funct            c0            c1            c2            c3 
    1     2     3     1    112.700    488.273
    2     3     4     1    112.700    488.273
    3     4     5     1    112.700    488.273
    4     5     6     1    117.200    313.800
    4     5     7     1    117.200    313.800
    5     7     8     1    117.200    313.800
    7     8     9     1    112.700    488.273
    2     1    10     1    112.700    488.273
    2     1    11     1    110.700    313.800
    2     1    12     1    110.700    313.800
    1     2    13     1    110.700    313.800
    1     2    14     1    110.700    313.800
    2     3    15     1    110.700    313.800
    2     3    16     1    110.700    313.800
    3     4    17     1    110.700    313.800
    3     4    18     1    110.700    313.800
    4     5    19     1    114.300    292.880
    5     6    20     1    117.200    313.800
    5     6    21     1    117.200    313.800
    5     7    22     1    117.200    313.800
    7     8    23     1    110.700    313.800
    7     8    24     1    110.700    313.800
    8     9    25     1    110.700    313.800
    8     9    26     1    110.700    313.800
    1    10    27     1    110.700    313.800
    1    10    28     1    110.700    313.800
   27    10    28     1    107.800    276.144
   25     9    26     1    107.800    276.144
    3     2    14     1    110.700    313.800
   13     2    14     1    107.800    276.144
   20     6    21     1    114.300    292.880
    1    10     9     1    112.700    488.273
    9     8    24     1    110.700    313.800
    6     5    19     1    117.200    313.800
    5     7     6     1     83.000    251.040
    5     6     7     1     83.000    251.040
   17     4    18     1    107.800    276.144
   15     3    16     1    107.800    276.144
    6     7     8     1    117.200    313.800
   11     1    12     1    107.800    276.144
    6     5     7     1     83.000    251.040
    9     8    23     1    110.700    313.800
    9    10    28     1    110.700    313.800
    7     5    19     1    117.200    313.800
   10     9    25     1    110.700    313.800
    8     7    22     1    114.300    292.880
   10     1    11     1    110.700    313.800
    3     2    13     1    110.700    313.800
   10     9    26     1    110.700    313.800
   23     8    24     1    107.800    276.144
    4     3    16     1    110.700    313.800
    9    10    27     1    110.700    313.800
    8     9    10     1    112.700    488.273
    5     4    18     1    110.700    313.800
   10     1    12     1    110.700    313.800
    7     6    21     1    117.200    313.800
    4     3    15     1    110.700    313.800
    7     6    20     1    117.200    313.800
    6     7    22     1    117.200    313.800
    5     4    17     1    110.700    313.800

[ dihedrals ]
; IMPROPER DIHEDRAL ANGLES 
;  ai    aj    ak    al funct            c0            c1            c2            c3            c4            c5

[ dihedrals ]
; PROPER DIHEDRAL ANGLES
;  ai    aj    ak    al funct            c0            c1            c2            c3            c4            c5
    4    3    2    1        3       2.301  -1.464   0.837  -1.674  -0.000   0.000
    8    9   10    1        3       2.301  -1.464   0.837  -1.674  -0.000   0.000
    9   10    1    2        3       2.301  -1.464   0.837  -1.674  -0.000   0.000
   10    1    2    3        3       2.301  -1.464   0.837  -1.674  -0.000   0.000
   10    9    8    7        3       2.301  -1.464   0.837  -1.674  -0.000   0.000
    9    8    7    5        3       0.000   0.000   0.000  -0.000  -0.000   0.000
    9    8    7    6        3       0.000   0.000   0.000  -0.000  -0.000   0.000
    8    7    5    4        3       0.000   0.000   0.000  -0.000  -0.000   0.000
    8    7    5    6        3       0.000   0.000   0.000  -0.000  -0.000   0.000
    8    7    6    5        3       0.000   0.000   0.000  -0.000  -0.000   0.000
    5    4    3    2        3       2.301  -1.464   0.837  -1.674  -0.000   0.000
    7    5    4    3        3       0.000   0.000   0.000  -0.000  -0.000   0.000
    6    5    4    3        3       0.000   0.000   0.000  -0.000  -0.000   0.000
    7    5    4    6        3       0.000   0.000   0.000  -0.000  -0.000   0.000
   16    3    2    1        3       0.628   1.883   0.000  -2.510  -0.000   0.000
   23    8    9   10        3       0.628   1.883   0.000  -2.510  -0.000   0.000
   24    8    9   10        3       0.628   1.883   0.000  -2.510  -0.000   0.000
   17    4    3    2        3       0.628   1.883   0.000  -2.510  -0.000   0.000
   15    3    2    1        3       0.628   1.883   0.000  -2.510  -0.000   0.000
   14    2    1   10        3       0.628   1.883   0.000  -2.510  -0.000   0.000
   27   10    1    2        3       0.628   1.883   0.000  -2.510  -0.000   0.000
   12    1    2    3        3       0.628   1.883   0.000  -2.510  -0.000   0.000
   27   10    9    8        3       0.628   1.883   0.000  -2.510  -0.000   0.000
   12    1   10    9        3       0.628   1.883   0.000  -2.510  -0.000   0.000
   26    9   10    1        3       0.628   1.883   0.000  -2.510  -0.000   0.000
   28   10    1    2        3       0.628   1.883   0.000  -2.510  -0.000   0.000
   13    2    3    4        3       0.628   1.883   0.000  -2.510  -0.000   0.000
   14    2    3    4        3       0.628   1.883   0.000  -2.510  -0.000   0.000
   13    2    1   10        3       0.628   1.883   0.000  -2.510  -0.000   0.000
   11    1    2    3        3       0.628   1.883   0.000  -2.510  -0.000   0.000
   28   10    9    8        3       0.628   1.883   0.000  -2.510  -0.000   0.000
   11    1   10    9        3       0.628   1.883   0.000  -2.510  -0.000   0.000
   25    9   10    1        3       0.628   1.883   0.000  -2.510  -0.000   0.000
   18    4    3    2        3       0.628   1.883   0.000  -2.510  -0.000   0.000
   15    3    4    5        3       0.628   1.883   0.000  -2.510  -0.000   0.000
   25    9    8    7        3       0.628   1.883   0.000  -2.510  -0.000   0.000
   16    3    4    5        3       0.628   1.883   0.000  -2.510  -0.000   0.000
   26    9    8    7        3       0.628   1.883   0.000  -2.510  -0.000   0.000
   15    3    2   14        3       0.628   1.883   0.000  -2.510  -0.000   0.000
   18    4    3   16        3       0.628   1.883   0.000  -2.510  -0.000   0.000
   27   10    9   25        3       0.628   1.883   0.000  -2.510  -0.000   0.000
   25    9    8   23        3       0.628   1.883   0.000  -2.510  -0.000   0.000
   26    9    8   24        3       0.628   1.883   0.000  -2.510  -0.000   0.000
   27   10    1   11        3       0.628   1.883   0.000  -2.510  -0.000   0.000
   17    4    3   16        3       0.628   1.883   0.000  -2.510  -0.000   0.000
   27   10    1   12        3       0.628   1.883   0.000  -2.510  -0.000   0.000
   25    9    8   24        3       0.628   1.883   0.000  -2.510  -0.000   0.000
   18    4    3   15        3       0.628   1.883   0.000  -2.510  -0.000   0.000
   14    2    1   11        3       0.628   1.883   0.000  -2.510  -0.000   0.000
   16    3    2   13        3       0.628   1.883   0.000  -2.510  -0.000   0.000
   26    9    8   23        3       0.628   1.883   0.000  -2.510  -0.000   0.000
   28   10    1   11        3       0.628   1.883   0.000  -2.510  -0.000   0.000
   13    2    1   12        3       0.628   1.883   0.000  -2.510  -0.000   0.000
   14    2    1   12        3       0.628   1.883   0.000  -2.510  -0.000   0.000
   17    4    3   15        3       0.628   1.883   0.000  -2.510  -0.000   0.000
   16    3    2   14        3       0.628   1.883   0.000  -2.510  -0.000   0.000
   15    3    2   13        3       0.628   1.883   0.000  -2.510  -0.000   0.000
   28   10    9   26        3       0.628   1.883   0.000  -2.510  -0.000   0.000
   13    2    1   11        3       0.628   1.883   0.000  -2.510  -0.000   0.000
   28   10    9   25        3       0.628   1.883   0.000  -2.510  -0.000   0.000
   27   10    9   26        3       0.628   1.883   0.000  -2.510  -0.000   0.000
   28   10    1   12        3       0.628   1.883   0.000  -2.510  -0.000   0.000
   24    8    7    5        3       0.628   1.883   0.000  -2.510  -0.000   0.000
   17    4    5    6        3       0.628   1.883   0.000  -2.510  -0.000   0.000
   18    4    5    7        3       0.628   1.883   0.000  -2.510  -0.000   0.000
   23    8    7    5        3       0.628   1.883   0.000  -2.510  -0.000   0.000
   18    4    5    6        3       0.628   1.883   0.000  -2.510  -0.000   0.000
   17    4    5    7        3       0.628   1.883   0.000  -2.510  -0.000   0.000
   23    8    7    6        3       0.628   1.883   0.000  -2.510  -0.000   0.000
   24    8    7    6        3       0.628   1.883   0.000  -2.510  -0.000   0.000
   24    8    7   22        3       0.628   1.883   0.000  -2.510  -0.000   0.000
   23    8    7   22        3       0.628   1.883   0.000  -2.510  -0.000   0.000
   19    5    4    3        3       0.628   1.883   0.000  -2.510  -0.000   0.000
   22    7    8    9        3       0.628   1.883   0.000  -2.510  -0.000   0.000
   19    5    4   18        3       0.628   1.883   0.000  -2.510  -0.000   0.000
   19    5    4   17        3       0.628   1.883   0.000  -2.510  -0.000   0.000
   21    6    5    4        3       0.000   0.000   0.000  -0.000  -0.000   0.000
   19    5    7    8        3       0.000   0.000   0.000  -0.000  -0.000   0.000
   20    6    7    8        3       0.000   0.000   0.000  -0.000  -0.000   0.000
   20    6    5    4        3       0.000   0.000   0.000  -0.000  -0.000   0.000
   21    6    7    8        3       0.000   0.000   0.000  -0.000  -0.000   0.000
   22    7    5    4        3       0.000   0.000   0.000  -0.000  -0.000   0.000
   22    7    6    5        3       0.000   0.000   0.000  -0.000  -0.000   0.000
   19    5    6    7        3       0.000   0.000   0.000  -0.000  -0.000   0.000
   21    6    5    7        3       0.000   0.000   0.000  -0.000  -0.000   0.000
   22    7    5    6        3       0.000   0.000   0.000  -0.000  -0.000   0.000
   20    6    5    7        3       0.000   0.000   0.000  -0.000  -0.000   0.000
   19    5    7    6        3       0.000   0.000   0.000  -0.000  -0.000   0.000
   21    6    7    5        3       0.000   0.000   0.000  -0.000  -0.000   0.000
   20    6    7    5        3       0.000   0.000   0.000  -0.000  -0.000   0.000
   20    6    5   19        3       0.000   0.000   0.000  -0.000  -0.000   0.000
   22    7    5   19        3       0.000   0.000   0.000  -0.000  -0.000   0.000
   22    7    6   20        3       0.000   0.000   0.000  -0.000  -0.000   0.000
   22    7    6   21        3       0.000   0.000   0.000  -0.000  -0.000   0.000
   21    6    5   19        3       0.000   0.000   0.000  -0.000  -0.000   0.000

[ pairs ]
     1     4    1
     2     5    1
     3     6    1
     1     8    1
     3     7    1
     2     9    1
     4     8    1
     3    10    1
     5     9    1
     3    11    1
     6     9    1
     3    12    1
     1    15    1
     7    10    1
     4    13    1
     1    16    1
     4    14    1
     2    17    1
     9    11    1
     5    15    1
     2    18    1
     9    12    1
     5    16    1
     3    19    1
    10    13    1
     6    17    1
    11    13    1
    10    14    1
     7    17    1
     6    18    1
     4    20    1
    12    13    1
    11    14    1
     7    18    1
     4    21    1
    12    14    1
     4    22    1
     1    25    1
     8    19    1
     1    26    1
    13    15    1
     8    20    1
     5    23    1
    14    15    1
    13    16    1
     8    21    1
     6    23    1
     5    24    1
     2    27    1
    14    16    1
     6    24    1
     2    28    1
     9    22    1
    15    17    1
     7    25    1
    16    17    1
    15    18    1
    10    23    1
     7    26    1
    16    18    1
    10    24    1
     8    27    1
    17    19    1
     8    28    1
    18    19    1
    11    27    1
    19    20    1
    12    27    1
    11    28    1
    19    21    1
    12    28    1
    19    22    1
    20    22    1
    21    22    1
    22    23    1
    22    24    1
    23    25    1
    24    25    1
    23    26    1
    24    26    1
    25    27    1
    26    27    1
    25    28    1
    26    28    1

