LIGPARGEN GENERATED GRO FILE
   31
    1UNK    C00    1   0.100   0.100   0.000
    1UNK    C01    2  -0.051   0.100   0.000
    1UNK    O02    3  -0.097   0.100   0.136
    1UNK    C03    4  -0.131   0.221   0.186
    1UNK    O04    5  -0.120   0.329   0.130
    1UNK    O05    6  -0.193   0.200   0.305
    1UNK    C06    7  -0.310   0.282   0.326
    1UNK    C07    8  -0.424   0.209   0.252
    1UNK    C08    9  -0.335   0.305   0.478
    1UNK    C09   10  -0.461   0.392   0.498
    1UNK    C0A   11  -0.356   0.176   0.546
    1UNK    N0B   12  -0.373   0.074   0.599
    1UNK    C0C   13  -0.211   0.377   0.540
    1UNK    C0D   14  -0.224   0.412   0.689
    1UNK    H0E   15   0.139   0.095  -0.102
    1UNK    H0F   16   0.138   0.014   0.057
    1UNK    H0G   17   0.138   0.190   0.049
    1UNK    H0H   18  -0.089   0.009  -0.047
    1UNK    H0I   19  -0.091   0.185  -0.057
    1UNK    H0J   20  -0.296   0.380   0.279
    1UNK    H0K   21  -0.438   0.108   0.292
    1UNK    H0M   22  -0.399   0.197   0.146
    1UNK    H0N   23  -0.518   0.263   0.258
    1UNK    H0O   24  -0.550   0.346   0.454
    1UNK    H0P   25  -0.448   0.491   0.452
    1UNK    H0Q   26  -0.485   0.406   0.604
    1UNK    H0R   27  -0.192   0.470   0.485
    1UNK    H0S   28  -0.122   0.314   0.529
    1UNK    H0T   29  -0.304   0.484   0.707
    1UNK    H0U   30  -0.131   0.459   0.724
    1UNK    H0V   31  -0.242   0.323   0.750
   1.00000   1.00000   1.00000

