LIGPARGEN GENERATED GRO FILE
   23
    1UNK    C00    1   0.100   0.100   0.000
    1UNK    C01    2  -0.020   0.100   0.000
    1UNK    C02    3  -0.163   0.100   0.000
    1UNK    S03    4  -0.248   0.081   0.148
    1UNK    C04    5  -0.399   0.091   0.071
    1UNK    C05    6  -0.385   0.108  -0.064
    1UNK    C06    7  -0.248   0.114  -0.110
    1UNK    C07    8  -0.206   0.133  -0.257
    1UNK    C08    9  -0.329   0.145  -0.351
    1UNK    C09   10  -0.124   0.263  -0.275
    1UNK    C0A   11  -0.124   0.013  -0.308
    1UNK    H0B   12   0.207   0.100   0.000
    1UNK    H0C   13  -0.490   0.084   0.129
    1UNK    H0D   14  -0.472   0.117  -0.129
    1UNK    H0E   15  -0.391   0.232  -0.325
    1UNK    H0F   16  -0.392   0.056  -0.346
    1UNK    H0G   17  -0.298   0.157  -0.456
    1UNK    H0H   18  -0.181   0.350  -0.241
    1UNK    H0I   19  -0.098   0.279  -0.380
    1UNK    H0J   20  -0.031   0.261  -0.218
    1UNK    H0K   21  -0.180  -0.081  -0.296
    1UNK    H0M   22  -0.029   0.001  -0.254
    1UNK    H0N   23  -0.099   0.024  -0.414
   1.00000   1.00000   1.00000

