
;
; GENERATED BY LigParGen Server
; Jorgensen Lab @ Yale University 
;
[ atomtypes ]
  opls_818  H818     1.0080     0.000    A    2.50000E-01   1.25520E-01
  opls_805  C805    12.0110     0.000    A    3.55000E-01   2.92880E-01
  opls_800  C800    12.0110     0.000    A    3.30000E-01   2.76144E-01
  opls_815  H815     1.0080     0.000    A    2.50000E-01   1.25520E-01
  opls_809  C809    12.0110     0.000    A    3.50000E-01   2.76144E-01
  opls_822  H822     1.0080     0.000    A    2.50000E-01   1.25520E-01
  opls_807  C807    12.0110     0.000    A    3.50000E-01   2.76144E-01
  opls_814  H814     1.0080     0.000    A    2.50000E-01   1.25520E-01
  opls_821  H821     1.0080     0.000    A    2.50000E-01   1.25520E-01
  opls_812  H812     1.0080     0.000    A    2.42000E-01   1.25520E-01
  opls_820  H820     1.0080     0.000    A    2.50000E-01   1.25520E-01
  opls_811  H811     1.0080     0.000    A    2.50000E-01   1.25520E-01
  opls_804  C804    12.0110     0.000    A    3.55000E-01   2.92880E-01
  opls_803  S803    32.0600     0.000    A    3.60000E-01   1.48532E+00
  opls_816  H816     1.0080     0.000    A    2.50000E-01   1.25520E-01
  opls_802  C802    12.0110     0.000    A    3.55000E-01   2.92880E-01
  opls_806  C806    12.0110     0.000    A    3.55000E-01   2.92880E-01
  opls_819  H819     1.0080     0.000    A    2.50000E-01   1.25520E-01
  opls_810  C810    12.0110     0.000    A    3.50000E-01   2.76144E-01
  opls_813  H813     1.0080     0.000    A    2.42000E-01   1.25520E-01
  opls_808  C808    12.0110     0.000    A    3.50000E-01   2.76144E-01
  opls_817  H817     1.0080     0.000    A    2.50000E-01   1.25520E-01
  opls_801  C801    12.0110     0.000    A    3.30000E-01   2.76144E-01
[ moleculetype ]
; Name               nrexcl
UNK                   3
[ atoms ]
;   nr       type  resnr residue  atom   cgnr     charge       mass  
     1   opls_800      1    UNK   C00      1    -0.2228    12.0110 
     2   opls_801      1    UNK   C01      1    -0.1141    12.0110 
     3   opls_802      1    UNK   C02      1    -0.0674    12.0110 
     4   opls_803      1    UNK   S03      1     0.1087    32.0600 
     5   opls_804      1    UNK   C04      1    -0.2481    12.0110 
     6   opls_805      1    UNK   C05      1    -0.1546    12.0110 
     7   opls_806      1    UNK   C06      1    -0.0401    12.0110 
     8   opls_807      1    UNK   C07      1     0.0261    12.0110 
     9   opls_808      1    UNK   C08      1    -0.2336    12.0110 
    10   opls_809      1    UNK   C09      1     -0.229    12.0110 
    11   opls_810      1    UNK   C0A      1    -0.2287    12.0110 
    12   opls_811      1    UNK   H0B      1     0.2599     1.0080 
    13   opls_812      1    UNK   H0C      1     0.1957     1.0080 
    14   opls_813      1    UNK   H0D      1     0.1765     1.0080 
    15   opls_814      1    UNK   H0E      1     0.0842     1.0080 
    16   opls_815      1    UNK   H0F      1     0.0842     1.0080 
    17   opls_816      1    UNK   H0G      1     0.0842     1.0080 
    18   opls_817      1    UNK   H0H      1     0.0866     1.0080 
    19   opls_818      1    UNK   H0I      1     0.0866     1.0080 
    20   opls_819      1    UNK   H0J      1     0.0866     1.0080 
    21   opls_820      1    UNK   H0K      1     0.0865     1.0080 
    22   opls_821      1    UNK   H0M      1     0.0865     1.0080 
    23   opls_822      1    UNK   H0N      1     0.0865     1.0080 
[ bonds ]
    2     1     1      0.1210 962320.000
    3     2     1      0.1310 280771.504
    4     3     1      0.1740 209200.000
    5     4     1      0.1740 209200.000
    6     5     1      0.1367 456892.800
    7     3     1      0.1367 456892.800
    8     7     1      0.1495 265265.600
    9     8     1      0.1529 224262.400
   10     8     1      0.1529 224262.400
   11     8     1      0.1529 224262.400
   12     1     1      0.1080 351456.000
   13     5     1      0.1080 307105.600
   14     6     1      0.1080 307105.600
   15     9     1      0.1090 284512.000
   16     9     1      0.1090 284512.000
   17     9     1      0.1090 284512.000
   18    10     1      0.1090 284512.000
   19    10     1      0.1090 284512.000
   20    10     1      0.1090 284512.000
   21    11     1      0.1090 284512.000
   22    11     1      0.1090 284512.000
   23    11     1      0.1090 284512.000
    7     6     1      0.1424 392459.200

[ angles ]
;  ai    aj    ak funct            c0            c1            c2            c3 
    1     2     3     1    156.000    924.413
    2     3     4     1    111.170    585.760
    3     4     5     1     97.000    619.232
    4     5     6     1    111.170    585.760
    2     3     7     1    111.170    585.760
    3     7     8     1    125.000    585.760
    7     8     9     1    115.600    527.184
    7     8    10     1    115.600    527.184
    7     8    11     1    115.600    527.184
    2     1    12     1    180.000    937.216
    4     5    13     1    125.000    292.880
    5     6    14     1    125.700    292.880
    8     9    15     1    110.700    313.800
    8     9    16     1    110.700    313.800
    8     9    17     1    110.700    313.800
    8    10    18     1    110.700    313.800
    8    10    19     1    110.700    313.800
    8    10    20     1    110.700    313.800
    8    11    21     1    110.700    313.800
    8    11    22     1    110.700    313.800
    8    11    23     1    110.700    313.800
   18    10    20     1    107.800    276.144
    7     6    14     1    127.500    292.880
   10     8    11     1    112.700    488.273
    4     3     7     1    111.170    585.760
   15     9    16     1    107.800    276.144
   21    11    23     1    107.800    276.144
    5     6     7     1    107.300    585.760
    3     7     6     1    107.300    585.760
    6     7     8     1    120.000    585.760
    6     5    13     1    132.100    292.880
   21    11    22     1    107.800    276.144
   18    10    19     1    107.800    276.144
   19    10    20     1    107.800    276.144
    9     8    11     1    112.700    488.273
   15     9    17     1    107.800    276.144
   16     9    17     1    107.800    276.144
   22    11    23     1    107.800    276.144
    9     8    10     1    112.700    488.273

[ dihedrals ]
; IMPROPER DIHEDRAL ANGLES 
;  ai    aj    ak    al funct            c0            c1            c2            c3            c4            c5
     7     3     2     4    4        180.000     10.460     2  
     8     7     3     6    4        180.000     10.460     2  
    13     5     4     6    4        180.000     10.460     2  
    14     6     5     7    4        180.000     10.460     2  

[ dihedrals ]
; PROPER DIHEDRAL ANGLES
;  ai    aj    ak    al funct            c0            c1            c2            c3            c4            c5
    5    6    7    3        3       9.079   0.000  -9.079  -0.000  -0.000   0.000
    5    4    3    2        3       0.000   0.000   0.000  -0.000  -0.000   0.000
    7    3    2    1        3       0.000   0.000   0.000  -0.000  -0.000   0.000
    6    5    4    3        3       0.000   0.000   0.000  -0.000  -0.000   0.000
    7    3    4    5        3       0.000   0.000   0.000  -0.000  -0.000   0.000
    6    7    3    2        3       9.079   0.000  -9.079  -0.000  -0.000   0.000
    7    6    5    4        3       8.786   0.000  -8.786  -0.000  -0.000   0.000
    6    7    3    4        3       8.786   0.000  -8.786  -0.000  -0.000   0.000
    8    7    3    2        3      30.334   0.000  -30.334  -0.000  -0.000   0.000
    8    7    3    4        3       8.786   0.000  -8.786  -0.000  -0.000   0.000
    8    7    6    5        3       9.079   0.000  -9.079  -0.000  -0.000   0.000
   11    8    7    3        3       0.000   0.000   0.000  -0.000  -0.000   0.000
    9    8    7    3        3       0.000   0.000   0.000  -0.000  -0.000   0.000
   10    8    7    3        3       0.000   0.000   0.000  -0.000  -0.000   0.000
    9    8    7    6        3       0.000   0.000   0.000  -0.000  -0.000   0.000
   11    8    7    6        3       0.000   0.000   0.000  -0.000  -0.000   0.000
   10    8    7    6        3       0.000   0.000   0.000  -0.000  -0.000   0.000
   13    5    6    7        3      30.334   0.000  -30.334  -0.000  -0.000   0.000
   13    5    4    3        3      30.334   0.000  -30.334  -0.000  -0.000   0.000
   14    6    5   13        3      30.334   0.000  -30.334  -0.000  -0.000   0.000
   14    6    5    4        3      30.334   0.000  -30.334  -0.000  -0.000   0.000
   14    6    7    3        3      30.334   0.000  -30.334  -0.000  -0.000   0.000
   14    6    7    8        3      30.334   0.000  -30.334  -0.000  -0.000   0.000
   19   10    8    7        3       0.967   2.900   0.000  -3.866  -0.000   0.000
   15    9    8    7        3       0.967   2.900   0.000  -3.866  -0.000   0.000
   17    9    8    7        3       0.967   2.900   0.000  -3.866  -0.000   0.000
   21   11    8    7        3       0.967   2.900   0.000  -3.866  -0.000   0.000
   20   10    8    7        3       0.967   2.900   0.000  -3.866  -0.000   0.000
   16    9    8    7        3       0.967   2.900   0.000  -3.866  -0.000   0.000
   18   10    8    7        3       0.967   2.900   0.000  -3.866  -0.000   0.000
   22   11    8    7        3       0.967   2.900   0.000  -3.866  -0.000   0.000
   23   11    8    7        3       0.967   2.900   0.000  -3.866  -0.000   0.000
   18   10    8   11        3       0.628   1.883   0.000  -2.510  -0.000   0.000
   18   10    8    9        3       0.628   1.883   0.000  -2.510  -0.000   0.000
   22   11    8   10        3       0.628   1.883   0.000  -2.510  -0.000   0.000
   15    9    8   11        3       0.628   1.883   0.000  -2.510  -0.000   0.000
   23   11    8    9        3       0.628   1.883   0.000  -2.510  -0.000   0.000
   22   11    8    9        3       0.628   1.883   0.000  -2.510  -0.000   0.000
   21   11    8    9        3       0.628   1.883   0.000  -2.510  -0.000   0.000
   23   11    8   10        3       0.628   1.883   0.000  -2.510  -0.000   0.000
   20   10    8    9        3       0.628   1.883   0.000  -2.510  -0.000   0.000
   16    9    8   11        3       0.628   1.883   0.000  -2.510  -0.000   0.000
   19   10    8   11        3       0.628   1.883   0.000  -2.510  -0.000   0.000
   20   10    8   11        3       0.628   1.883   0.000  -2.510  -0.000   0.000
   19   10    8    9        3       0.628   1.883   0.000  -2.510  -0.000   0.000
   16    9    8   10        3       0.628   1.883   0.000  -2.510  -0.000   0.000
   17    9    8   11        3       0.628   1.883   0.000  -2.510  -0.000   0.000
   17    9    8   10        3       0.628   1.883   0.000  -2.510  -0.000   0.000
   21   11    8   10        3       0.628   1.883   0.000  -2.510  -0.000   0.000
   15    9    8   10        3       0.628   1.883   0.000  -2.510  -0.000   0.000
   12    1    2    3        3       0.000   0.000   0.000  -0.000  -0.000   0.000
    4    3    2    1        3       0.000   0.000   0.000  -0.000  -0.000   0.000

[ pairs ]
     1     4    1
     2     5    1
     2     6    1
     1     7    1
     2     8    1
     4     8    1
     3     9    1
     5     8    1
     3    10    1
     3    11    1
     6     9    1
     3    12    1
     6    10    1
     3    13    1
     6    11    1
     3    14    1
     4    14    1
     7    13    1
     8    14    1
     7    15    1
     7    16    1
     7    17    1
    10    15    1
     7    18    1
    11    15    1
    10    16    1
     7    19    1
    13    14    1
    11    16    1
    10    17    1
     9    18    1
     7    20    1
    11    17    1
     9    19    1
     7    21    1
    11    18    1
     9    20    1
     7    22    1
    11    19    1
     9    21    1
     7    23    1
    11    20    1
    10    21    1
     9    22    1
    10    22    1
     9    23    1
    10    23    1

