LIGPARGEN GENERATED GRO FILE
   49
    1UNK    C00    1   0.100   0.100   0.000
    1UNK    C01    2  -0.052   0.100   0.000
    1UNK    C02    3  -0.106   0.100   0.143
    1UNK    C03    4  -0.259   0.100   0.148
    1UNK    C04    5  -0.316   0.100   0.292
    1UNK    C05    6  -0.264   0.218   0.378
    1UNK    C06    7  -0.310   0.355   0.333
    1UNK    C07    8  -0.470   0.092   0.287
    1UNK    C08    9  -0.535   0.085   0.425
    1UNK    C09   10  -0.687   0.078   0.418
    1UNK    C0A   11  -0.750   0.077   0.557
    1UNK    O0B   12  -0.680   0.082   0.658
    1UNK    C0C   13  -0.904   0.069   0.567
    1UNK    C0D   14  -0.946   0.070   0.716
    1UNK    C0E   15  -0.965   0.194   0.501
    1UNK    C0F   16  -0.958  -0.057   0.497
    1UNK    C0G   17  -0.903  -0.189   0.551
    1UNK    H0H   18   0.138   0.105  -0.102
    1UNK    H0I   19   0.139   0.009   0.047
    1UNK    H0J   20   0.139   0.186   0.055
    1UNK    H0K   21  -0.089   0.012  -0.054
    1UNK    H0M   22  -0.088   0.189  -0.053
    1UNK    H0N   23  -0.067   0.189   0.193
    1UNK    H0O   24  -0.068   0.012   0.197
    1UNK    H0P   25  -0.296   0.011   0.095
    1UNK    H0Q   26  -0.298   0.186   0.092
    1UNK    H0R   27  -0.280   0.008   0.340
    1UNK    H0S   28  -0.154   0.216   0.380
    1UNK    H0T   29  -0.293   0.203   0.483
    1UNK    H0U   30  -0.302   0.369   0.225
    1UNK    H0V   31  -0.250   0.433   0.381
    1UNK    H0W   32  -0.414   0.373   0.362
    1UNK    H0X   33  -0.499   0.003   0.230
    1UNK    H0Y   34  -0.510   0.178   0.232
    1UNK    H0Z   35  -0.508   0.174   0.484
    1UNK    H10   36  -0.496  -0.002   0.480
    1UNK    H11   37  -0.716  -0.014   0.365
    1UNK    H12   38  -0.725   0.164   0.363
    1UNK    H13   39  -0.914   0.163   0.765
    1UNK    H14   40  -0.900  -0.012   0.772
    1UNK    H15   41  -1.054   0.062   0.727
    1UNK    H16   42  -0.925   0.286   0.546
    1UNK    H17   43  -1.074   0.196   0.513
    1UNK    H18   44  -0.944   0.199   0.394
    1UNK    H19   45  -0.937  -0.053   0.390
    1UNK    H1A   46  -1.068  -0.060   0.506
    1UNK    H1B   47  -0.794  -0.193   0.545
    1UNK    H1C   48  -0.943  -0.273   0.493
    1UNK    H1D   49  -0.932  -0.205   0.656
   1.00000   1.00000   1.00000

