LIGPARGEN GENERATED GRO FILE
   40
    1UNK    C00    1   0.100   0.100   0.000
    1UNK    C01    2  -0.052   0.100   0.000
    1UNK    C02    3  -0.109   0.100   0.142
    1UNK    C03    4  -0.262   0.100   0.140
    1UNK    C04    5  -0.320   0.100   0.282
    1UNK    C05    6  -0.474   0.111   0.287
    1UNK    C06    7  -0.542  -0.008   0.214
    1UNK    C07    8  -0.695   0.003   0.219
    1UNK    C08    9  -0.761   0.122   0.145
    1UNK    C09   10  -0.878   0.027   0.113
    1UNK    C0A   11  -0.775  -0.088   0.122
    1UNK    C0B   12  -0.520   0.117   0.432
    1UNK    C0C   13  -0.484   0.233   0.521
    1UNK    C0D   14  -0.624   0.219   0.472
    1UNK    H0E   15   0.138   0.100  -0.103
    1UNK    H0F   16   0.139   0.011   0.051
    1UNK    H0G   17   0.139   0.189   0.051
    1UNK    H0H   18  -0.088   0.012  -0.054
    1UNK    H0I   19  -0.088   0.188  -0.054
    1UNK    H0J   20  -0.072   0.188   0.196
    1UNK    H0K   21  -0.073   0.012   0.196
    1UNK    H0M   22  -0.296   0.011   0.085
    1UNK    H0N   23  -0.298   0.188   0.086
    1UNK    H0O   24  -0.277   0.184   0.337
    1UNK    H0P   25  -0.287   0.009   0.335
    1UNK    H0Q   26  -0.503   0.204   0.236
    1UNK    H0R   27  -0.511  -0.103   0.260
    1UNK    H0S   28  -0.510  -0.011   0.110
    1UNK    H0T   29  -0.732  -0.009   0.322
    1UNK    H0U   30  -0.706   0.156   0.056
    1UNK    H0V   31  -0.786   0.209   0.206
    1UNK    H0W   32  -0.926   0.041   0.017
    1UNK    H0X   33  -0.954   0.023   0.192
    1UNK    H0Y   34  -0.725  -0.109   0.026
    1UNK    H0Z   35  -0.812  -0.182   0.163
    1UNK    H10   36  -0.522   0.019   0.479
    1UNK    H11   37  -0.424   0.314   0.481
    1UNK    H12   38  -0.465   0.212   0.626
    1UNK    H13   39  -0.659   0.291   0.399
    1UNK    H14   40  -0.701   0.187   0.542
   1.00000   1.00000   1.00000

