
;
; GENERATED BY LigParGen Server
; Jorgensen Lab @ Yale University 
;
[ atomtypes ]
  opls_818  H818     1.0080     0.000    A    2.50000E-01   1.25520E-01
  opls_812  C812    12.0110     0.000    A    3.45000E-01   3.47272E-01
  opls_804  C804    12.0110     0.000    A    3.50000E-01   2.76144E-01
  opls_814  C814    12.0110     0.000    A    3.50000E-01   2.76144E-01
  opls_824  H824     1.0080     0.000    A    2.50000E-01   1.25520E-01
  opls_805  O805    15.9990     0.000    A    2.96000E-01   8.78640E-01
  opls_833  H833     1.0080     0.000    A    2.50000E-01   1.25520E-01
  opls_836  H836     1.0080     0.000    A    2.50000E-01   1.25520E-01
  opls_834  H834     1.0080     0.000    A    2.50000E-01   1.25520E-01
  opls_828  H828     1.0080     0.000    A    2.50000E-01   1.25520E-01
  opls_803  P803    30.9738     0.000    A    3.74000E-01   8.36800E-01
  opls_807  C807    12.0110     0.000    A    3.45000E-01   3.47272E-01
  opls_806  O806    15.9990     0.000    A    2.90000E-01   5.85760E-01
  opls_802  C802    12.0110     0.000    A    3.50000E-01   2.76144E-01
  opls_815  H815     1.0080     0.000    A    2.50000E-01   1.25520E-01
  opls_801  C801    12.0110     0.000    A    3.50000E-01   2.76144E-01
  opls_838  H838     1.0080     0.000    A    2.50000E-01   1.25520E-01
  opls_822  H822     1.0080     0.000    A    2.50000E-01   1.25520E-01
  opls_808  C808    12.0110     0.000    A    3.45000E-01   3.47272E-01
  opls_825  H825     1.0080     0.000    A    2.50000E-01   1.25520E-01
  opls_830  H830     1.0080     0.000    A    2.50000E-01   1.25520E-01
  opls_821  H821     1.0080     0.000    A    2.50000E-01   1.25520E-01
  opls_820  H820     1.0080     0.000    A    2.50000E-01   1.25520E-01
  opls_837  H837     1.0080     0.000    A    2.50000E-01   1.25520E-01
  opls_829  H829     1.0080     0.000    A    2.50000E-01   1.25520E-01
  opls_831  H831     1.0080     0.000    A    2.50000E-01   1.25520E-01
  opls_832  H832     1.0080     0.000    A    2.50000E-01   1.25520E-01
  opls_816  H816     1.0080     0.000    A    2.50000E-01   1.25520E-01
  opls_800  C800    12.0110     0.000    A    3.50000E-01   2.76144E-01
  opls_811  C811    12.0110     0.000    A    3.50000E-01   2.76144E-01
  opls_823  H823     1.0080     0.000    A    2.50000E-01   1.25520E-01
  opls_813  C813    12.0110     0.000    A    3.50000E-01   2.76144E-01
  opls_826  H826     1.0080     0.000    A    2.50000E-01   1.25520E-01
  opls_835  H835     1.0080     0.000    A    2.50000E-01   1.25520E-01
  opls_819  H819     1.0080     0.000    A    2.50000E-01   1.25520E-01
  opls_810  C810    12.0110     0.000    A    3.50000E-01   2.76144E-01
  opls_827  H827     1.0080     0.000    A    2.50000E-01   1.25520E-01
  opls_839  H839     1.0080     0.000    A    2.50000E-01   1.25520E-01
  opls_817  H817     1.0080     0.000    A    2.50000E-01   1.25520E-01
  opls_809  C809    12.0110     0.000    A    3.45000E-01   3.47272E-01
[ moleculetype ]
; Name               nrexcl
UNK                   3
[ atoms ]
;   nr       type  resnr residue  atom   cgnr     charge       mass  
     1   opls_800      1    UNK   C00      1    -0.2425    12.0110 
     2   opls_801      1    UNK   C01      1    -0.1979    12.0110 
     3   opls_802      1    UNK   C02      1    -0.6602    12.0110 
     4   opls_803      1    UNK   P03      1     2.4656    30.9738 
     5   opls_804      1    UNK   C04      1    -0.8163    12.0110 
     6   opls_805      1    UNK   O05      1    -1.1172    15.9990 
     7   opls_806      1    UNK   O06      1    -0.7938    15.9990 
     8   opls_807      1    UNK   C07      1     0.1216    12.0110 
     9   opls_808      1    UNK   C08      1    -0.1906    12.0110 
    10   opls_809      1    UNK   C09      1    -0.1479    12.0110 
    11   opls_810      1    UNK   C0A      1    -0.1595    12.0110 
    12   opls_811      1    UNK   C0B      1    -0.2396    12.0110 
    13   opls_812      1    UNK   C0C      1    -0.0443    12.0110 
    14   opls_813      1    UNK   C0D      1    -0.2132    12.0110 
    15   opls_814      1    UNK   C0E      1    -0.2006    12.0110 
    16   opls_815      1    UNK   H0F      1      0.088     1.0080 
    17   opls_816      1    UNK   H0G      1      0.088     1.0080 
    18   opls_817      1    UNK   H0H      1      0.088     1.0080 
    19   opls_818      1    UNK   H0I      1     0.0868     1.0080 
    20   opls_819      1    UNK   H0J      1     0.0868     1.0080 
    21   opls_820      1    UNK   H0K      1     0.1506     1.0080 
    22   opls_821      1    UNK   H0M      1     0.1506     1.0080 
    23   opls_822      1    UNK   H0N      1     0.1156     1.0080 
    24   opls_823      1    UNK   H0O      1     0.1156     1.0080 
    25   opls_824      1    UNK   H0P      1     0.1156     1.0080 
    26   opls_825      1    UNK   H0Q      1     0.1133     1.0080 
    27   opls_826      1    UNK   H0R      1     0.1032     1.0080 
    28   opls_827      1    UNK   H0S      1     0.1032     1.0080 
    29   opls_828      1    UNK   H0T      1     0.1067     1.0080 
    30   opls_829      1    UNK   H0U      1     0.0941     1.0080 
    31   opls_830      1    UNK   H0V      1     0.0941     1.0080 
    32   opls_831      1    UNK   H0W      1     0.0791     1.0080 
    33   opls_832      1    UNK   H0X      2     0.0791     1.0080 
    34   opls_833      1    UNK   H0Y      2     0.0791     1.0080 
    35   opls_834      1    UNK   H0Z      2     0.0824     1.0080 
    36   opls_835      1    UNK   H10      2     0.0824     1.0080 
    37   opls_836      1    UNK   H11      2     0.0824     1.0080 
    38   opls_837      1    UNK   H12      2     0.0839     1.0080 
    39   opls_838      1    UNK   H13      2     0.0839     1.0080 
    40   opls_839      1    UNK   H14      2     0.0839     1.0080 
[ bonds ]
    2     1     1      0.1529 224262.400
    3     2     1      0.1529 224262.400
    4     3     1      0.1843 177401.600
    5     4     1      0.1843 177401.600
    6     4     1      0.1480 439320.000
    7     4     1      0.1610 192464.000
    8     7     1      0.1410 267776.000
    9     8     1      0.1520 217568.000
   10     9     1      0.1520 217568.000
   11    10     1      0.1510 234304.000
   12    11     1      0.1529 224262.400
   13     8     1      0.1520 217568.000
   14    13     1      0.1510 234304.000
   15    13     1      0.1510 234304.000
   16     1     1      0.1090 284512.000
   17     1     1      0.1090 284512.000
   18     1     1      0.1090 284512.000
   19     2     1      0.1090 284512.000
   20     2     1      0.1090 284512.000
   21     3     1      0.1090 284512.000
   22     3     1      0.1090 284512.000
   23     5     1      0.1090 284512.000
   24     5     1      0.1090 284512.000
   25     5     1      0.1090 284512.000
   26     8     1      0.1088 284512.000
   27     9     1      0.1088 284512.000
   28     9     1      0.1088 284512.000
   29    10     1      0.1088 284512.000
   30    11     1      0.1090 284512.000
   31    11     1      0.1090 284512.000
   32    12     1      0.1090 284512.000
   33    12     1      0.1090 284512.000
   34    12     1      0.1090 284512.000
   35    14     1      0.1090 284512.000
   36    14     1      0.1090 284512.000
   37    14     1      0.1090 284512.000
   38    15     1      0.1090 284512.000
   39    15     1      0.1090 284512.000
   40    15     1      0.1090 284512.000
   13    10     1      0.1520 217568.000

[ angles ]
;  ai    aj    ak funct            c0            c1            c2            c3 
    1     2     3     1    112.700    488.273
    2     3     4     1    109.500    359.824
    3     4     5     1     98.900    518.816
    3     4     6     1    109.500    376.560
    3     4     7     1    109.500    376.560
    4     7     8     1    120.500    836.800
    7     8     9     1    109.500    418.400
    8     9    10     1     83.000    251.040
    9    10    11     1    117.200    313.800
   10    11    12     1    112.700    488.273
    7     8    13     1    109.500    418.400
    8    13    14     1    117.200    313.800
    8    13    15     1    117.200    313.800
    2     1    16     1    110.700    313.800
    2     1    17     1    110.700    313.800
    2     1    18     1    110.700    313.800
    1     2    19     1    110.700    313.800
    1     2    20     1    110.700    313.800
    2     3    21     1    110.700    313.800
    2     3    22     1    110.700    313.800
    4     5    23     1    109.500    343.088
    4     5    24     1    109.500    343.088
    4     5    25     1    109.500    343.088
    7     8    26     1    109.500    292.880
    8     9    27     1    117.200    313.800
    8     9    28     1    117.200    313.800
    9    10    29     1    117.200    313.800
   10    11    30     1    110.700    313.800
   10    11    31     1    110.700    313.800
   11    12    32     1    110.700    313.800
   11    12    33     1    110.700    313.800
   11    12    34     1    110.700    313.800
   13    14    35     1    110.700    313.800
   13    14    36     1    110.700    313.800
   13    14    37     1    110.700    313.800
   13    15    38     1    110.700    313.800
   13    15    39     1    110.700    313.800
   13    15    40     1    110.700    313.800
   13    10    29     1    117.200    313.800
   12    11    31     1    110.700    313.800
    5     4     6     1    109.500    376.560
    3     2    20     1    110.700    313.800
    8    13    10     1     83.000    251.040
   38    15    39     1    107.800    276.144
   10     9    28     1    117.200    313.800
    5     4     7     1    109.500    376.560
   16     1    18     1    107.800    276.144
   10    13    15     1    117.200    313.800
    6     4     7     1    108.230    836.800
   14    13    15     1    114.300    292.880
   11    10    29     1    114.300    292.880
    4     3    22     1    109.500    343.088
   21     3    22     1    107.800    276.144
   27     9    28     1    114.300    292.880
   23     5    24     1    107.800    276.144
   36    14    37     1    107.800    276.144
    9     8    13     1     83.000    251.040
   32    12    33     1    107.800    276.144
   33    12    34     1    107.800    276.144
   24     5    25     1    107.800    276.144
   11    10    13     1    117.200    313.800
   39    15    40     1    107.800    276.144
   23     5    25     1    107.800    276.144
   12    11    30     1    110.700    313.800
   10    13    14     1    117.200    313.800
   35    14    36     1    107.800    276.144
    3     2    19     1    110.700    313.800
    4     3    21     1    109.500    343.088
   19     2    20     1    107.800    276.144
   30    11    31     1    107.800    276.144
   16     1    17     1    107.800    276.144
   17     1    18     1    107.800    276.144
   32    12    34     1    107.800    276.144
    9     8    26     1    117.200    313.800
   35    14    37     1    107.800    276.144
    9    10    13     1     83.000    251.040
   38    15    40     1    107.800    276.144
   10     9    27     1    117.200    313.800
   13     8    26     1    117.200    313.800

[ dihedrals ]
; IMPROPER DIHEDRAL ANGLES 
;  ai    aj    ak    al funct            c0            c1            c2            c3            c4            c5

[ dihedrals ]
; PROPER DIHEDRAL ANGLES
;  ai    aj    ak    al funct            c0            c1            c2            c3            c4            c5
   12   11   10    9        3       0.000   0.000   0.000  -0.000  -0.000   0.000
   14   13   10   11        3       0.000   0.000   0.000  -0.000  -0.000   0.000
   15   13   10   11        3       0.000   0.000   0.000  -0.000  -0.000   0.000
   15   13    8    9        3       0.000   0.000   0.000  -0.000  -0.000   0.000
   14   13    8    9        3       0.000   0.000   0.000  -0.000  -0.000   0.000
   15   13   10    9        3       0.000   0.000   0.000  -0.000  -0.000   0.000
   11   10   13    8        3       0.000   0.000   0.000  -0.000  -0.000   0.000
   14   13   10    9        3       0.000   0.000   0.000  -0.000  -0.000   0.000
   11   10    9    8        3       0.000   0.000   0.000  -0.000  -0.000   0.000
   15   13    8    7        3       0.000   0.000   0.000  -0.000  -0.000   0.000
   14   13    8    7        3       0.000   0.000   0.000  -0.000  -0.000   0.000
    5    4    3    2        3       1.046   1.046   2.092  -4.184  -0.000   0.000
   13   10   11   12        3       0.000   0.000   0.000  -0.000  -0.000   0.000
   10    9    8    7        3       0.000   0.000   0.000  -0.000  -0.000   0.000
   10   13    8    7        3       0.000   0.000   0.000  -0.000  -0.000   0.000
    9    8    7    4        3      12.510   0.000  -12.510  -0.000  -0.000   0.000
   13    8    7    4        3      12.510   0.000  -12.510  -0.000  -0.000   0.000
    8    7    4    5        3      -3.347   2.092  13.807  -12.552  -0.000   0.000
    8    7    4    3        3      -3.347   2.092  13.807  -12.552  -0.000   0.000
    8    7    4    6        3       0.000   0.000   0.000  -0.000  -0.000   0.000
   17    1    2    3        3       0.628   1.883   0.000  -2.510  -0.000   0.000
   22    3    2    1        3       0.628   1.883   0.000  -2.510  -0.000   0.000
   18    1    2    3        3       0.628   1.883   0.000  -2.510  -0.000   0.000
   21    3    2    1        3       0.628   1.883   0.000  -2.510  -0.000   0.000
   16    1    2    3        3       0.628   1.883   0.000  -2.510  -0.000   0.000
   33   12   11   10        3       0.628   1.883   0.000  -2.510  -0.000   0.000
   32   12   11   10        3       0.628   1.883   0.000  -2.510  -0.000   0.000
   34   12   11   10        3       0.628   1.883   0.000  -2.510  -0.000   0.000
   22    3    2   20        3       0.628   1.883   0.000  -2.510  -0.000   0.000
   19    2    1   18        3       0.628   1.883   0.000  -2.510  -0.000   0.000
   22    3    2   19        3       0.628   1.883   0.000  -2.510  -0.000   0.000
   20    2    1   17        3       0.628   1.883   0.000  -2.510  -0.000   0.000
   21    3    2   19        3       0.628   1.883   0.000  -2.510  -0.000   0.000
   34   12   11   31        3       0.628   1.883   0.000  -2.510  -0.000   0.000
   19    2    1   16        3       0.628   1.883   0.000  -2.510  -0.000   0.000
   33   12   11   30        3       0.628   1.883   0.000  -2.510  -0.000   0.000
   19    2    1   17        3       0.628   1.883   0.000  -2.510  -0.000   0.000
   32   12   11   31        3       0.628   1.883   0.000  -2.510  -0.000   0.000
   34   12   11   30        3       0.628   1.883   0.000  -2.510  -0.000   0.000
   33   12   11   31        3       0.628   1.883   0.000  -2.510  -0.000   0.000
   20    2    1   18        3       0.628   1.883   0.000  -2.510  -0.000   0.000
   20    2    1   16        3       0.628   1.883   0.000  -2.510  -0.000   0.000
   32   12   11   30        3       0.628   1.883   0.000  -2.510  -0.000   0.000
   21    3    2   20        3       0.628   1.883   0.000  -2.510  -0.000   0.000
   20    2    3    4        3       0.628   1.883   0.000  -2.510  -0.000   0.000
   19    2    3    4        3       0.628   1.883   0.000  -2.510  -0.000   0.000
   35   14   13   15        3       0.628   1.883   0.000  -2.510  -0.000   0.000
   37   14   13   15        3       0.628   1.883   0.000  -2.510  -0.000   0.000
   39   15   13   14        3       0.628   1.883   0.000  -2.510  -0.000   0.000
   40   15   13   14        3       0.628   1.883   0.000  -2.510  -0.000   0.000
   38   15   13   14        3       0.628   1.883   0.000  -2.510  -0.000   0.000
   36   14   13   15        3       0.628   1.883   0.000  -2.510  -0.000   0.000
   37   14   13    8        3       0.628   1.883   0.000  -2.510  -0.000   0.000
   37   14   13   10        3       0.628   1.883   0.000  -2.510  -0.000   0.000
   39   15   13   10        3       0.628   1.883   0.000  -2.510  -0.000   0.000
   31   11   10    9        3       0.628   1.883   0.000  -2.510  -0.000   0.000
   39   15   13    8        3       0.628   1.883   0.000  -2.510  -0.000   0.000
   35   14   13   10        3       0.628   1.883   0.000  -2.510  -0.000   0.000
   40   15   13   10        3       0.628   1.883   0.000  -2.510  -0.000   0.000
   30   11   10    9        3       0.628   1.883   0.000  -2.510  -0.000   0.000
   35   14   13    8        3       0.628   1.883   0.000  -2.510  -0.000   0.000
   36   14   13   10        3       0.628   1.883   0.000  -2.510  -0.000   0.000
   38   15   13    8        3       0.628   1.883   0.000  -2.510  -0.000   0.000
   36   14   13    8        3       0.628   1.883   0.000  -2.510  -0.000   0.000
   38   15   13   10        3       0.628   1.883   0.000  -2.510  -0.000   0.000
   30   11   10   13        3       0.628   1.883   0.000  -2.510  -0.000   0.000
   31   11   10   13        3       0.628   1.883   0.000  -2.510  -0.000   0.000
   40   15   13    8        3       0.628   1.883   0.000  -2.510  -0.000   0.000
   31   11   10   29        3       0.628   1.883   0.000  -2.510  -0.000   0.000
   30   11   10   29        3       0.628   1.883   0.000  -2.510  -0.000   0.000
   25    5    4    3        3       0.628   1.883   0.000  -2.510  -0.000   0.000
   22    3    4    5        3       0.628   1.883   0.000  -2.510  -0.000   0.000
   21    3    4    5        3       0.628   1.883   0.000  -2.510  -0.000   0.000
   24    5    4    3        3       0.628   1.883   0.000  -2.510  -0.000   0.000
   23    5    4    3        3       0.628   1.883   0.000  -2.510  -0.000   0.000
   25    5    4    6        3       0.523   1.569   0.000  -2.092  -0.000   0.000
   23    5    4    6        3       0.523   1.569   0.000  -2.092  -0.000   0.000
   22    3    4    6        3       0.523   1.569   0.000  -2.092  -0.000   0.000
   21    3    4    6        3       0.523   1.569   0.000  -2.092  -0.000   0.000
   24    5    4    6        3       0.523   1.569   0.000  -2.092  -0.000   0.000
   25    5    4    7        3       0.523   1.569   0.000  -2.092  -0.000   0.000
   24    5    4    7        3       0.523   1.569   0.000  -2.092  -0.000   0.000
   23    5    4    7        3       0.523   1.569   0.000  -2.092  -0.000   0.000
   21    3    4    7        3       0.523   1.569   0.000  -2.092  -0.000   0.000
   22    3    4    7        3       0.523   1.569   0.000  -2.092  -0.000   0.000
   29   10   11   12        3       0.628   1.883   0.000  -2.510  -0.000   0.000
   26    8   13   15        3       0.000   0.000   0.000  -0.000  -0.000   0.000
   29   10   13   14        3       0.000   0.000   0.000  -0.000  -0.000   0.000
   29   10   13   15        3       0.000   0.000   0.000  -0.000  -0.000   0.000
   28    9   10   11        3       0.000   0.000   0.000  -0.000  -0.000   0.000
   27    9   10   11        3       0.000   0.000   0.000  -0.000  -0.000   0.000
   26    8   13   14        3       0.000   0.000   0.000  -0.000  -0.000   0.000
   29   10    9    8        3       0.000   0.000   0.000  -0.000  -0.000   0.000
   28    9   10   13        3       0.000   0.000   0.000  -0.000  -0.000   0.000
   26    8   13   10        3       0.000   0.000   0.000  -0.000  -0.000   0.000
   26    8    9   10        3       0.000   0.000   0.000  -0.000  -0.000   0.000
   27    9    8   13        3       0.000   0.000   0.000  -0.000  -0.000   0.000
   27    9   10   13        3       0.000   0.000   0.000  -0.000  -0.000   0.000
   29   10   13    8        3       0.000   0.000   0.000  -0.000  -0.000   0.000
   28    9    8   13        3       0.000   0.000   0.000  -0.000  -0.000   0.000
   29   10    9   28        3       0.000   0.000   0.000  -0.000  -0.000   0.000
   29   10    9   27        3       0.000   0.000   0.000  -0.000  -0.000   0.000
   27    9    8   26        3       0.000   0.000   0.000  -0.000  -0.000   0.000
   28    9    8   26        3       0.000   0.000   0.000  -0.000  -0.000   0.000
   28    9    8    7        3       0.000   0.000   0.000  -0.000  -0.000   0.000
   27    9    8    7        3       0.000   0.000   0.000  -0.000  -0.000   0.000
   26    8    7    4        3       0.628   1.883   0.000  -2.510  -0.000   0.000
    6    4    3    2        3       4.707  -4.707   0.000  -0.000  -0.000   0.000
    7    4    3    2        3       4.707  -4.707   0.000  -0.000  -0.000   0.000
    4    3    2    1        3      -0.766   2.707   4.025  -5.966  -0.000   0.000

[ pairs ]
     1     4    1
     2     5    1
     2     6    1
     2     7    1
     3     8    1
     5     8    1
     4     9    1
     6     8    1
     7    10    1
     4    13    1
     8    11    1
     3    16    1
     3    17    1
     9    12    1
     7    14    1
     3    18    1
     7    15    1
     1    21    1
     9    14    1
     4    19    1
     1    22    1
     9    15    1
     4    20    1
    12    13    1
    11    14    1
    11    15    1
     5    21    1
     3    23    1
     6    21    1
     5    22    1
     3    24    1
     7    21    1
     6    22    1
     3    25    1
     7    22    1
     6    23    1
     7    23    1
     6    24    1
     4    26    1
     7    24    1
     6    25    1
     7    25    1
     7    27    1
    16    19    1
     7    28    1
    17    19    1
    16    20    1
    10    26    1
    18    19    1
    17    20    1
     8    29    1
    18    20    1
    11    27    1
    11    28    1
     9    30    1
    19    21    1
    14    26    1
    13    27    1
     9    31    1
    20    21    1
    19    22    1
    15    26    1
    13    28    1
    12    29    1
    20    22    1
    10    32    1
    14    29    1
    13    30    1
    10    33    1
     8    35    1
    15    29    1
    13    31    1
    10    34    1
     8    36    1
    10    35    1
     8    37    1
    10    36    1
     8    38    1
    10    37    1
     8    39    1
    10    38    1
     8    40    1
    10    39    1
    15    35    1
    10    40    1
    15    36    1
    15    37    1
    14    38    1
    26    27    1
    14    39    1
    26    28    1
    14    40    1
    27    29    1
    28    29    1
    29    30    1
    29    31    1
    30    32    1
    31    32    1
    30    33    1
    31    33    1
    30    34    1
    31    34    1

