LIGPARGEN GENERATED GRO FILE
   40
    1UNK    C00    1   0.100   0.100   0.000
    1UNK    C01    2  -0.052   0.100   0.000
    1UNK    C02    3  -0.113   0.100   0.141
    1UNK    P03    4  -0.061   0.249   0.234
    1UNK    C04    5  -0.227   0.253   0.322
    1UNK    O05    6   0.030   0.152   0.311
    1UNK    O06    7  -0.012   0.389   0.322
    1UNK    C07    8   0.107   0.368   0.407
    1UNK    C08    9   0.161   0.490   0.484
    1UNK    C09   10   0.213   0.393   0.594
    1UNK    C0A   11   0.357   0.339   0.578
    1UNK    C0B   12   0.461   0.447   0.599
    1UNK    C0C   13   0.097   0.295   0.551
    1UNK    C0D   14  -0.034   0.317   0.630
    1UNK    C0E   15   0.137   0.147   0.567
    1UNK    H0F   16   0.137   0.100  -0.103
    1UNK    H0G   17   0.139   0.011   0.051
    1UNK    H0H   18   0.141   0.189   0.049
    1UNK    H0I   19  -0.088   0.013  -0.055
    1UNK    H0J   20  -0.087   0.189  -0.054
    1UNK    H0K   21  -0.091   0.005   0.192
    1UNK    H0M   22  -0.222   0.102   0.126
    1UNK    H0N   23  -0.261   0.151   0.344
    1UNK    H0O   24  -0.298   0.302   0.255
    1UNK    H0P   25  -0.222   0.309   0.414
    1UNK    H0Q   26   0.188   0.327   0.343
    1UNK    H0R   27   0.084   0.559   0.519
    1UNK    H0S   28   0.237   0.549   0.432
    1UNK    H0T   29   0.201   0.432   0.696
    1UNK    H0U   30   0.372   0.295   0.479
    1UNK    H0V   31   0.375   0.260   0.652
    1UNK    H0W   32   0.447   0.530   0.530
    1UNK    H0X   33   0.561   0.405   0.582
    1UNK    H0Y   34   0.458   0.486   0.701
    1UNK    H0Z   35  -0.068   0.421   0.626
    1UNK    H10   36  -0.020   0.290   0.735
    1UNK    H11   37  -0.113   0.254   0.591
    1UNK    H12   38   0.220   0.119   0.502
    1UNK    H13   39   0.053   0.080   0.546
    1UNK    H14   40   0.167   0.127   0.671
   1.00000   1.00000   1.00000

