LIGPARGEN GENERATED GRO FILE
   34
    1UNK    C00    1   0.100   0.100   0.000
    1UNK    C01    2  -0.052   0.100   0.000
    1UNK    C02    3  -0.106   0.100   0.143
    1UNK    C03    4  -0.259   0.100   0.148
    1UNK    C04    5  -0.314   0.091   0.292
    1UNK    C05    6  -0.266   0.206   0.383
    1UNK    C06    7  -0.307   0.347   0.339
    1UNK    C07    8  -0.467   0.083   0.289
    1UNK    C08    9  -0.531  -0.037   0.213
    1UNK    C09   10  -0.613  -0.056   0.343
    1UNK    O0A   11  -0.716  -0.109   0.375
    1UNK    N0B   12  -0.523   0.021   0.412
    1UNK    C0C   13  -0.553   0.086   0.536
    1UNK    H0D   14   0.138   0.105  -0.102
    1UNK    H0E   15   0.139   0.009   0.047
    1UNK    H0F   16   0.139   0.186   0.055
    1UNK    H0G   17  -0.088   0.012  -0.054
    1UNK    H0H   18  -0.089   0.188  -0.054
    1UNK    H0I   19  -0.067   0.189   0.194
    1UNK    H0J   20  -0.068   0.012   0.196
    1UNK    H0K   21  -0.295   0.014   0.090
    1UNK    H0M   22  -0.299   0.188   0.097
    1UNK    H0N   23  -0.275  -0.002   0.336
    1UNK    H0O   24  -0.157   0.203   0.391
    1UNK    H0P   25  -0.302   0.191   0.485
    1UNK    H0Q   26  -0.296   0.362   0.232
    1UNK    H0R   27  -0.245   0.421   0.390
    1UNK    H0S   28  -0.411   0.367   0.366
    1UNK    H0T   29  -0.516   0.178   0.265
    1UNK    H0U   30  -0.466  -0.123   0.192
    1UNK    H0V   31  -0.590  -0.011   0.125
    1UNK    H0W   32  -0.650   0.052   0.575
    1UNK    H0X   33  -0.556   0.194   0.521
    1UNK    H0Y   34  -0.475   0.060   0.607
   1.00000   1.00000   1.00000

