LIGPARGEN GENERATED GRO FILE
   47
    1UNK    C00    1   0.100   0.100   0.000
    1UNK    C01    2  -0.053   0.100   0.000
    1UNK    C02    3  -0.112   0.100   0.143
    1UNK    O03    4  -0.063  -0.009   0.223
    1UNK    C04    5   0.028   0.026   0.319
    1UNK    O05    6   0.074   0.138   0.335
    1UNK    O06    7   0.057  -0.084   0.392
    1UNK    C07    8   0.173  -0.068   0.476
    1UNK    C08    9   0.143   0.014   0.603
    1UNK    N09   10   0.262   0.040   0.688
    1UNK    C0A   11   0.364   0.118   0.616
    1UNK    C0B   12   0.222   0.113   0.808
    1UNK    C0C   13  -0.111   0.223  -0.074
    1UNK    C0D   14  -0.076   0.242  -0.223
    1UNK    C0E   15  -0.121   0.120  -0.305
    1UNK    C0F   16  -0.134   0.373  -0.283
    1UNK    C0G   17  -0.287   0.382  -0.277
    1UNK    C0H   18  -0.072   0.499  -0.219
    1UNK    H0I   19   0.139   0.012   0.052
    1UNK    H0J   20   0.140   0.189   0.050
    1UNK    H0K   21   0.139   0.097  -0.102
    1UNK    H0M   22  -0.086   0.008  -0.050
    1UNK    H0N   23  -0.220   0.087   0.137
    1UNK    H0O   24  -0.095   0.197   0.191
    1UNK    H0P   25   0.253  -0.025   0.416
    1UNK    H0Q   26   0.205  -0.169   0.505
    1UNK    H0R   27   0.069  -0.042   0.661
    1UNK    H0S   28   0.094   0.109   0.577
    1UNK    H0T   29   0.407   0.060   0.534
    1UNK    H0U   30   0.448   0.141   0.683
    1UNK    H0V   31   0.324   0.212   0.577
    1UNK    H0W   32   0.148   0.056   0.865
    1UNK    H0X   33   0.178   0.211   0.784
    1UNK    H0Y   34   0.308   0.129   0.874
    1UNK    H0Z   35  -0.078   0.312  -0.018
    1UNK    H10   36  -0.220   0.220  -0.063
    1UNK    H11   37   0.034   0.249  -0.233
    1UNK    H12   38  -0.224   0.093  -0.283
    1UNK    H13   39  -0.057   0.034  -0.285
    1UNK    H14   40  -0.113   0.141  -0.413
    1UNK    H15   41  -0.106   0.376  -0.389
    1UNK    H16   42  -0.324   0.381  -0.174
    1UNK    H17   43  -0.333   0.300  -0.332
    1UNK    H18   44  -0.322   0.476  -0.323
    1UNK    H19   45  -0.093   0.505  -0.112
    1UNK    H1A   46  -0.113   0.589  -0.265
    1UNK    H1B   47   0.036   0.500  -0.233
   1.00000   1.00000   1.00000

