LIGPARGEN GENERATED GRO FILE
   35
    1UNK    C00    1   0.100   0.100   0.000
    1UNK    C01    2  -0.052   0.100   0.000
    1UNK    C02    3  -0.114   0.100   0.142
    1UNK    C03    4  -0.227   0.186   0.085
    1UNK    C04    5  -0.127   0.236  -0.023
    1UNK    C05    6  -0.180   0.265  -0.164
    1UNK    C06    7  -0.274   0.387  -0.150
    1UNK    C07    8  -0.203   0.503  -0.098
    1UNK    N08    9  -0.146   0.596  -0.057
    1UNK    C09   10  -0.357   0.421  -0.280
    1UNK    C0A   11  -0.483   0.443  -0.191
    1UNK    C0B   12  -0.611   0.379  -0.245
    1UNK    C0C   13  -0.512   0.587  -0.146
    1UNK    C0D   14  -0.413   0.358  -0.083
    1UNK    H0E   15   0.138   0.006   0.041
    1UNK    H0F   16   0.140   0.181   0.061
    1UNK    H0G   17   0.139   0.111  -0.101
    1UNK    H0H   18  -0.091   0.018  -0.062
    1UNK    H0I   19  -0.054   0.152   0.218
    1UNK    H0J   20  -0.144   0.003   0.181
    1UNK    H0K   21  -0.265   0.263   0.152
    1UNK    H0M   22  -0.310   0.126   0.047
    1UNK    H0N   23  -0.064   0.319   0.014
    1UNK    H0O   24  -0.235   0.178  -0.204
    1UNK    H0P   25  -0.098   0.287  -0.233
    1UNK    H0Q   26  -0.365   0.338  -0.350
    1UNK    H0R   27  -0.323   0.509  -0.337
    1UNK    H0S   28  -0.653   0.437  -0.328
    1UNK    H0T   29  -0.687   0.373  -0.167
    1UNK    H0U   30  -0.593   0.277  -0.282
    1UNK    H0V   31  -0.559   0.644  -0.227
    1UNK    H0W   32  -0.423   0.642  -0.117
    1UNK    H0X   33  -0.581   0.587  -0.060
    1UNK    H0Y   34  -0.442   0.252  -0.088
    1UNK    H0Z   35  -0.426   0.391   0.020
   1.00000   1.00000   1.00000

