LIGPARGEN GENERATED GRO FILE
   36
    1UNK    C00    1   0.100   0.100   0.000
    1UNK    C01    2  -0.053   0.100   0.000
    1UNK    C02    3  -0.112   0.100   0.142
    1UNK    C03    4  -0.184   0.227   0.187
    1UNK    C04    5  -0.094   0.336   0.242
    1UNK    C05    6  -0.017   0.417   0.139
    1UNK    C06    7  -0.083   0.436   0.002
    1UNK    C07    8  -0.183   0.328  -0.047
    1UNK    C08    9  -0.276   0.386  -0.161
    1UNK    C09   10  -0.359   0.509  -0.122
    1UNK    C0A   11  -0.198   0.420  -0.290
    1UNK    C0B   12  -0.111   0.202  -0.100
    1UNK    C0C   13  -0.265   0.280   0.071
    1UNK    O0D   14  -0.388   0.274   0.073
    1UNK    H0E   15   0.139   0.020   0.064
    1UNK    H0F   16   0.141   0.195   0.036
    1UNK    H0G   17   0.138   0.082  -0.101
    1UNK    H0H   18  -0.078   0.001  -0.041
    1UNK    H0I   19  -0.037   0.071   0.216
    1UNK    H0J   20  -0.187   0.020   0.144
    1UNK    H0K   21  -0.253   0.199   0.268
    1UNK    H0M   22  -0.023   0.294   0.314
    1UNK    H0N   23  -0.157   0.406   0.300
    1UNK    H0O   24   0.083   0.375   0.126
    1UNK    H0P   25   0.001   0.517   0.181
    1UNK    H0Q   26  -0.003   0.448  -0.072
    1UNK    H0R   27  -0.133   0.533   0.007
    1UNK    H0S   28  -0.348   0.307  -0.188
    1UNK    H0T   29  -0.297   0.598  -0.108
    1UNK    H0U   30  -0.418   0.493  -0.031
    1UNK    H0V   31  -0.430   0.533  -0.202
    1UNK    H0W   32  -0.123   0.497  -0.272
    1UNK    H0X   33  -0.266   0.459  -0.367
    1UNK    H0Y   34  -0.149   0.333  -0.332
    1UNK    H0Z   35  -0.033   0.231  -0.171
    1UNK    H10   36  -0.185   0.146  -0.160
   1.00000   1.00000   1.00000

