LIGPARGEN GENERATED GRO FILE
   61
    1UNK    C00    1   0.100   0.100   0.000
    1UNK    C01    2  -0.052   0.100   0.000
    1UNK    C02    3  -0.112   0.100   0.141
    1UNK    C03    4  -0.264   0.085   0.129
    1UNK    C04    5  -0.346   0.083   0.260
    1UNK    C05    6  -0.315   0.203   0.353
    1UNK    C06    7  -0.337   0.344   0.299
    1UNK    C07    8  -0.502   0.057   0.237
    1UNK    C08    9  -0.571   0.166   0.151
    1UNK    C09   10  -0.724   0.154   0.137
    1UNK    C0A   11  -0.805   0.166   0.267
    1UNK    C0B   12  -0.783   0.300   0.336
    1UNK    C0C   13  -0.872   0.317   0.460
    1UNK    C0D   14  -0.843   0.450   0.536
    1UNK    C0E   15  -0.873   0.572   0.448
    1UNK    C0F   16  -0.924   0.452   0.667
    1UNK    C0G   17  -0.899   0.576   0.752
    1UNK    N0H   18  -0.541  -0.078   0.188
    1UNK    C0I   19  -0.523  -0.111   0.047
    1UNK    C0J   20  -0.502  -0.187   0.276
    1UNK    H0K   21   0.137   0.107  -0.102
    1UNK    H0M   22   0.138   0.007   0.044
    1UNK    H0N   23   0.139   0.185   0.057
    1UNK    H0O   24  -0.087   0.012  -0.056
    1UNK    H0P   25  -0.088   0.188  -0.054
    1UNK    H0Q   26  -0.085   0.193   0.192
    1UNK    H0R   27  -0.071   0.016   0.199
    1UNK    H0S   28  -0.277  -0.011   0.080
    1UNK    H0T   29  -0.302   0.163   0.062
    1UNK    H0U   30  -0.309  -0.003   0.317
    1UNK    H0V   31  -0.209   0.196   0.382
    1UNK    H0W   32  -0.370   0.192   0.447
    1UNK    H0X   33  -0.329   0.349   0.190
    1UNK    H0Y   34  -0.264   0.413   0.341
    1UNK    H0Z   35  -0.436   0.381   0.329
    1UNK    H10   36  -0.546   0.066   0.337
    1UNK    H11   37  -0.528   0.167   0.050
    1UNK    H12   38  -0.551   0.265   0.192
    1UNK    H13   39  -0.751   0.059   0.088
    1UNK    H14   40  -0.758   0.233   0.068
    1UNK    H15   41  -0.780   0.083   0.335
    1UNK    H16   42  -0.911   0.155   0.242
    1UNK    H17   43  -0.805   0.379   0.264
    1UNK    H18   44  -0.679   0.310   0.367
    1UNK    H19   45  -0.853   0.233   0.528
    1UNK    H1A   46  -0.977   0.313   0.432
    1UNK    H1B   47  -0.737   0.452   0.561
    1UNK    H1C   48  -0.978   0.574   0.418
    1UNK    H1D   49  -0.811   0.573   0.358
    1UNK    H1E   50  -0.850   0.665   0.501
    1UNK    H1F   51  -0.898   0.364   0.726
    1UNK    H1G   52  -1.031   0.445   0.645
    1UNK    H1H   53  -0.792   0.591   0.769
    1UNK    H1I   54  -0.948   0.565   0.850
    1UNK    H1J   55  -0.939   0.666   0.705
    1UNK    H1K   56  -0.583  -0.046  -0.017
    1UNK    H1M   57  -0.557  -0.212   0.026
    1UNK    H1N   58  -0.420  -0.106   0.012
    1UNK    H1O   59  -0.545  -0.173   0.376
    1UNK    H1P   60  -0.393  -0.198   0.286
    1UNK    H1Q   61  -0.541  -0.283   0.240
   1.00000   1.00000   1.00000

