
;
; GENERATED BY LigParGen Server
; Jorgensen Lab @ Yale University 
;
[ atomtypes ]
  opls_814  C814    12.0110     0.000    A    3.50000E-01   2.76144E-01
  opls_855  H855     1.0080     0.000    A    2.50000E-01   1.25520E-01
  opls_824  H824     1.0080     0.000    A    2.50000E-01   1.25520E-01
  opls_815  C815    12.0110     0.000    A    3.50000E-01   2.76144E-01
  opls_804  C804    12.0110     0.000    A    3.50000E-01   2.76144E-01
  opls_818  C818    12.0110     0.000    A    3.50000E-01   2.76144E-01
  opls_848  H848     1.0080     0.000    A    2.50000E-01   1.25520E-01
  opls_843  H843     1.0080     0.000    A    2.50000E-01   1.25520E-01
  opls_836  H836     1.0080     0.000    A    2.50000E-01   1.25520E-01
  opls_834  H834     1.0080     0.000    A    2.50000E-01   1.25520E-01
  opls_810  C810    12.0110     0.000    A    3.50000E-01   2.76144E-01
  opls_828  H828     1.0080     0.000    A    2.50000E-01   1.25520E-01
  opls_860  H860     1.0080     0.000    A    2.50000E-01   1.25520E-01
  opls_851  H851     1.0080     0.000    A    2.50000E-01   1.25520E-01
  opls_812  C812    12.0110     0.000    A    3.50000E-01   2.76144E-01
  opls_802  C802    12.0110     0.000    A    3.50000E-01   2.76144E-01
  opls_827  H827     1.0080     0.000    A    2.50000E-01   1.25520E-01
  opls_809  C809    12.0110     0.000    A    3.50000E-01   2.76144E-01
  opls_806  C806    12.0110     0.000    A    3.50000E-01   2.76144E-01
  opls_822  H822     1.0080     0.000    A    2.50000E-01   1.25520E-01
  opls_803  C803    12.0110     0.000    A    3.50000E-01   2.76144E-01
  opls_838  H838     1.0080     0.000    A    2.50000E-01   1.25520E-01
  opls_830  H830     1.0080     0.000    A    2.50000E-01   1.25520E-01
  opls_821  H821     1.0080     0.000    A    2.50000E-01   1.25520E-01
  opls_842  H842     1.0080     0.000    A    2.50000E-01   1.25520E-01
  opls_820  H820     1.0080     0.000    A    2.50000E-01   1.25520E-01
  opls_817  N817    14.0070     0.000    A    3.30000E-01   7.11280E-01
  opls_837  H837     1.0080     0.000    A    2.50000E-01   1.25520E-01
  opls_829  H829     1.0080     0.000    A    2.50000E-01   1.25520E-01
  opls_831  H831     1.0080     0.000    A    2.50000E-01   1.25520E-01
  opls_853  H853     1.0080     0.000    A    2.50000E-01   1.25520E-01
  opls_856  H856     1.0080     0.000    A    2.50000E-01   1.25520E-01
  opls_832  H832     1.0080     0.000    A    2.50000E-01   1.25520E-01
  opls_800  C800    12.0110     0.000    A    3.50000E-01   2.76144E-01
  opls_858  H858     1.0080     0.000    A    2.50000E-01   1.25520E-01
  opls_805  C805    12.0110     0.000    A    3.50000E-01   2.76144E-01
  opls_846  H846     1.0080     0.000    A    2.50000E-01   1.25520E-01
  opls_811  C811    12.0110     0.000    A    3.50000E-01   2.76144E-01
  opls_823  H823     1.0080     0.000    A    2.50000E-01   1.25520E-01
  opls_819  C819    12.0110     0.000    A    3.50000E-01   2.76144E-01
  opls_826  H826     1.0080     0.000    A    2.50000E-01   1.25520E-01
  opls_835  H835     1.0080     0.000    A    2.50000E-01   1.25520E-01
  opls_841  H841     1.0080     0.000    A    2.50000E-01   1.25520E-01
  opls_825  H825     1.0080     0.000    A    2.50000E-01   1.25520E-01
  opls_816  C816    12.0110     0.000    A    3.50000E-01   2.76144E-01
  opls_833  H833     1.0080     0.000    A    2.50000E-01   1.25520E-01
  opls_839  H839     1.0080     0.000    A    2.50000E-01   1.25520E-01
  opls_857  H857     1.0080     0.000    A    2.50000E-01   1.25520E-01
  opls_852  H852     1.0080     0.000    A    2.50000E-01   1.25520E-01
  opls_801  C801    12.0110     0.000    A    3.50000E-01   2.76144E-01
  opls_808  C808    12.0110     0.000    A    3.50000E-01   2.76144E-01
  opls_850  H850     1.0080     0.000    A    2.50000E-01   1.25520E-01
  opls_840  H840     1.0080     0.000    A    2.50000E-01   1.25520E-01
  opls_849  H849     1.0080     0.000    A    2.50000E-01   1.25520E-01
  opls_813  C813    12.0110     0.000    A    3.50000E-01   2.76144E-01
  opls_859  H859     1.0080     0.000    A    2.50000E-01   1.25520E-01
  opls_847  H847     1.0080     0.000    A    2.50000E-01   1.25520E-01
  opls_844  H844     1.0080     0.000    A    2.50000E-01   1.25520E-01
  opls_845  H845     1.0080     0.000    A    2.50000E-01   1.25520E-01
  opls_854  H854     1.0080     0.000    A    2.50000E-01   1.25520E-01
  opls_807  C807    12.0110     0.000    A    3.50000E-01   2.76144E-01
[ moleculetype ]
; Name               nrexcl
UNK                   3
[ atoms ]
;   nr       type  resnr residue  atom   cgnr     charge       mass  
     1   opls_800      1    UNK   C00      1    -0.2373    12.0110 
     2   opls_801      1    UNK   C01      1    -0.1825    12.0110 
     3   opls_802      1    UNK   C02      1    -0.1757    12.0110 
     4   opls_803      1    UNK   C03      1    -0.1771    12.0110 
     5   opls_804      1    UNK   C04      1    -0.1322    12.0110 
     6   opls_805      1    UNK   C05      1    -0.1667    12.0110 
     7   opls_806      1    UNK   C06      1    -0.2367    12.0110 
     8   opls_807      1    UNK   C07      1     0.1463    12.0110 
     9   opls_808      1    UNK   C08      1     -0.169    12.0110 
    10   opls_809      1    UNK   C09      1    -0.1663    12.0110 
    11   opls_810      1    UNK   C0A      1    -0.1737    12.0110 
    12   opls_811      1    UNK   C0B      1    -0.1811    12.0110 
    13   opls_812      1    UNK   C0C      1    -0.1746    12.0110 
    14   opls_813      1    UNK   C0D      1    -0.1131    12.0110 
    15   opls_814      1    UNK   C0E      1     -0.233    12.0110 
    16   opls_815      1    UNK   C0F      1    -0.1745    12.0110 
    17   opls_816      1    UNK   C0G      1    -0.2372    12.0110 
    18   opls_817      1    UNK   N0H      1    -0.7191    14.0070 
    19   opls_818      1    UNK   C0I      1     0.0083    12.0110 
    20   opls_819      1    UNK   C0J      1      0.006    12.0110 
    21   opls_820      1    UNK   H0K      1     0.0812     1.0080 
    22   opls_821      1    UNK   H0M      1     0.0812     1.0080 
    23   opls_822      1    UNK   H0N      1     0.0812     1.0080 
    24   opls_823      1    UNK   H0O      1     0.0865     1.0080 
    25   opls_824      1    UNK   H0P      1     0.0865     1.0080 
    26   opls_825      1    UNK   H0Q      1      0.091     1.0080 
    27   opls_826      1    UNK   H0R      1      0.091     1.0080 
    28   opls_827      1    UNK   H0S      1     0.0888     1.0080 
    29   opls_828      1    UNK   H0T      1     0.0888     1.0080 
    30   opls_829      1    UNK   H0U      1     0.0897     1.0080 
    31   opls_830      1    UNK   H0V      1     0.0847     1.0080 
    32   opls_831      1    UNK   H0W      1     0.0847     1.0080 
    33   opls_832      1    UNK   H0X      2     0.0814     1.0080 
    34   opls_833      1    UNK   H0Y      2     0.0814     1.0080 
    35   opls_834      1    UNK   H0Z      2     0.0814     1.0080 
    36   opls_835      1    UNK   H10      2      0.106     1.0080 
    37   opls_836      1    UNK   H11      2     0.0907     1.0080 
    38   opls_837      1    UNK   H12      2     0.0907     1.0080 
    39   opls_838      1    UNK   H13      2     0.0881     1.0080 
    40   opls_839      1    UNK   H14      2     0.0881     1.0080 
    41   opls_840      1    UNK   H15      2      0.091     1.0080 
    42   opls_841      1    UNK   H16      2      0.091     1.0080 
    43   opls_842      1    UNK   H17      2     0.0882     1.0080 
    44   opls_843      1    UNK   H18      2     0.0882     1.0080 
    45   opls_844      1    UNK   H19      2     0.0881     1.0080 
    46   opls_845      1    UNK   H1A      2     0.0881     1.0080 
    47   opls_846      1    UNK   H1B      2     0.0946     1.0080 
    48   opls_847      1    UNK   H1C      2     0.0807     1.0080 
    49   opls_848      1    UNK   H1D      2     0.0807     1.0080 
    50   opls_849      1    UNK   H1E      2     0.0807     1.0080 
    51   opls_850      1    UNK   H1F      2     0.0872     1.0080 
    52   opls_851      1    UNK   H1G      2     0.0872     1.0080 
    53   opls_852      1    UNK   H1H      2     0.0805     1.0080 
    54   opls_853      1    UNK   H1I      2     0.0805     1.0080 
    55   opls_854      1    UNK   H1J      2     0.0805     1.0080 
    56   opls_855      1    UNK   H1K      2     0.0763     1.0080 
    57   opls_856      1    UNK   H1M      2     0.0763     1.0080 
    58   opls_857      1    UNK   H1N      2     0.0763     1.0080 
    59   opls_858      1    UNK   H1O      2     0.0767     1.0080 
    60   opls_859      1    UNK   H1P      2     0.0767     1.0080 
    61   opls_860      1    UNK   H1Q      2     0.0767     1.0080 
[ bonds ]
    2     1     1      0.1529 224262.400
    3     2     1      0.1529 224262.400
    4     3     1      0.1529 224262.400
    5     4     1      0.1529 224262.400
    6     5     1      0.1529 224262.400
    7     6     1      0.1529 224262.400
    8     5     1      0.1529 224262.400
    9     8     1      0.1529 224262.400
   10     9     1      0.1529 224262.400
   11    10     1      0.1529 224262.400
   12    11     1      0.1529 224262.400
   13    12     1      0.1529 224262.400
   14    13     1      0.1529 224262.400
   15    14     1      0.1529 224262.400
   16    14     1      0.1529 224262.400
   17    16     1      0.1529 224262.400
   18     8     1      0.1448 319657.600
   19    18     1      0.1448 319657.600
   20    18     1      0.1448 319657.600
   21     1     1      0.1090 284512.000
   22     1     1      0.1090 284512.000
   23     1     1      0.1090 284512.000
   24     2     1      0.1090 284512.000
   25     2     1      0.1090 284512.000
   26     3     1      0.1090 284512.000
   27     3     1      0.1090 284512.000
   28     4     1      0.1090 284512.000
   29     4     1      0.1090 284512.000
   30     5     1      0.1090 284512.000
   31     6     1      0.1090 284512.000
   32     6     1      0.1090 284512.000
   33     7     1      0.1090 284512.000
   34     7     1      0.1090 284512.000
   35     7     1      0.1090 284512.000
   36     8     1      0.1090 284512.000
   37     9     1      0.1090 284512.000
   38     9     1      0.1090 284512.000
   39    10     1      0.1090 284512.000
   40    10     1      0.1090 284512.000
   41    11     1      0.1090 284512.000
   42    11     1      0.1090 284512.000
   43    12     1      0.1090 284512.000
   44    12     1      0.1090 284512.000
   45    13     1      0.1090 284512.000
   46    13     1      0.1090 284512.000
   47    14     1      0.1090 284512.000
   48    15     1      0.1090 284512.000
   49    15     1      0.1090 284512.000
   50    15     1      0.1090 284512.000
   51    16     1      0.1090 284512.000
   52    16     1      0.1090 284512.000
   53    17     1      0.1090 284512.000
   54    17     1      0.1090 284512.000
   55    17     1      0.1090 284512.000
   56    19     1      0.1090 284512.000
   57    19     1      0.1090 284512.000
   58    19     1      0.1090 284512.000
   59    20     1      0.1090 284512.000
   60    20     1      0.1090 284512.000
   61    20     1      0.1090 284512.000

[ angles ]
;  ai    aj    ak funct            c0            c1            c2            c3 
    1     2     3     1    112.700    488.273
    2     3     4     1    112.700    488.273
    3     4     5     1    112.700    488.273
    4     5     6     1    112.700    488.273
    5     6     7     1    112.700    488.273
    4     5     8     1    112.700    488.273
    5     8     9     1    112.700    488.273
    8     9    10     1    112.700    488.273
    9    10    11     1    112.700    488.273
   10    11    12     1    112.700    488.273
   11    12    13     1    112.700    488.273
   12    13    14     1    112.700    488.273
   13    14    15     1    112.700    488.273
   13    14    16     1    112.700    488.273
   14    16    17     1    112.700    488.273
    5     8    18     1    109.470    470.282
    8    18    19     1    107.200    433.462
    8    18    20     1    107.200    433.462
    2     1    21     1    110.700    313.800
    2     1    22     1    110.700    313.800
    2     1    23     1    110.700    313.800
    1     2    24     1    110.700    313.800
    1     2    25     1    110.700    313.800
    2     3    26     1    110.700    313.800
    2     3    27     1    110.700    313.800
    3     4    28     1    110.700    313.800
    3     4    29     1    110.700    313.800
    4     5    30     1    110.700    313.800
    5     6    31     1    110.700    313.800
    5     6    32     1    110.700    313.800
    6     7    33     1    110.700    313.800
    6     7    34     1    110.700    313.800
    6     7    35     1    110.700    313.800
    5     8    36     1    110.700    313.800
    8     9    37     1    110.700    313.800
    8     9    38     1    110.700    313.800
    9    10    39     1    110.700    313.800
    9    10    40     1    110.700    313.800
   10    11    41     1    110.700    313.800
   10    11    42     1    110.700    313.800
   11    12    43     1    110.700    313.800
   11    12    44     1    110.700    313.800
   12    13    45     1    110.700    313.800
   12    13    46     1    110.700    313.800
   13    14    47     1    110.700    313.800
   14    15    48     1    110.700    313.800
   14    15    49     1    110.700    313.800
   14    15    50     1    110.700    313.800
   14    16    51     1    110.700    313.800
   14    16    52     1    110.700    313.800
   16    17    53     1    110.700    313.800
   16    17    54     1    110.700    313.800
   16    17    55     1    110.700    313.800
   18    19    56     1    109.500    292.880
   18    19    57     1    109.500    292.880
   18    19    58     1    109.500    292.880
   18    20    59     1    109.500    292.880
   18    20    60     1    109.500    292.880
   18    20    61     1    109.500    292.880
   59    20    61     1    107.800    276.144
   15    14    47     1    110.700    313.800
   12    11    42     1    110.700    313.800
   33     7    34     1    107.800    276.144
   56    19    57     1    107.800    276.144
   33     7    35     1    107.800    276.144
   51    16    52     1    107.800    276.144
   59    20    60     1    107.800    276.144
   45    13    46     1    107.800    276.144
    7     6    32     1    110.700    313.800
   53    17    55     1    107.800    276.144
    7     6    31     1    110.700    313.800
    6     5    30     1    110.700    313.800
   49    15    50     1    107.800    276.144
    3     2    25     1    110.700    313.800
   14    13    45     1    110.700    313.800
   15    14    16     1    112.700    488.273
    5     4    28     1    110.700    313.800
   41    11    42     1    107.800    276.144
   16    14    47     1    110.700    313.800
   48    15    50     1    107.800    276.144
   56    19    58     1    107.800    276.144
    9     8    36     1    110.700    313.800
   39    10    40     1    107.800    276.144
   48    15    49     1    107.800    276.144
   11    10    40     1    110.700    313.800
   17    16    52     1    110.700    313.800
    9     8    18     1    109.470    470.282
    8     5    30     1    110.700    313.800
    4     3    27     1    110.700    313.800
   43    12    44     1    107.800    276.144
   21     1    23     1    107.800    276.144
   54    17    55     1    107.800    276.144
   24     2    25     1    107.800    276.144
   57    19    58     1    107.800    276.144
   19    18    20     1    107.200    433.462
   14    13    46     1    110.700    313.800
   13    12    43     1    110.700    313.800
    4     3    26     1    110.700    313.800
   34     7    35     1    107.800    276.144
    5     4    29     1    110.700    313.800
   18     8    36     1    109.500    292.880
   60    20    61     1    107.800    276.144
   31     6    32     1    107.800    276.144
   28     4    29     1    107.800    276.144
   26     3    27     1    107.800    276.144
   11    10    39     1    110.700    313.800
   53    17    54     1    107.800    276.144
   10     9    38     1    110.700    313.800
   22     1    23     1    107.800    276.144
   10     9    37     1    110.700    313.800
   37     9    38     1    107.800    276.144
    6     5     8     1    112.700    488.273
   13    12    44     1    110.700    313.800
   21     1    22     1    107.800    276.144
    3     2    24     1    110.700    313.800
   17    16    51     1    110.700    313.800
   12    11    41     1    110.700    313.800

[ dihedrals ]
; IMPROPER DIHEDRAL ANGLES 
;  ai    aj    ak    al funct            c0            c1            c2            c3            c4            c5

[ dihedrals ]
; PROPER DIHEDRAL ANGLES
;  ai    aj    ak    al funct            c0            c1            c2            c3            c4            c5
    4    3    2    1        3       2.301  -1.464   0.837  -1.674  -0.000   0.000
    9    8    5    6        3       2.301  -1.464   0.837  -1.674  -0.000   0.000
    8    5    6    7        3       2.301  -1.464   0.837  -1.674  -0.000   0.000
    8    5    4    3        3       2.301  -1.464   0.837  -1.674  -0.000   0.000
   17   16   14   15        3       2.301  -1.464   0.837  -1.674  -0.000   0.000
   17   16   14   13        3       2.301  -1.464   0.837  -1.674  -0.000   0.000
   15   14   13   12        3       2.301  -1.464   0.837  -1.674  -0.000   0.000
   14   13   12   11        3       2.301  -1.464   0.837  -1.674  -0.000   0.000
   16   14   13   12        3       2.301  -1.464   0.837  -1.674  -0.000   0.000
   12   11   10    9        3       2.301  -1.464   0.837  -1.674  -0.000   0.000
   13   12   11   10        3       2.301  -1.464   0.837  -1.674  -0.000   0.000
    6    5    4    3        3       2.301  -1.464   0.837  -1.674  -0.000   0.000
    5    4    3    2        3       2.301  -1.464   0.837  -1.674  -0.000   0.000
    7    6    5    4        3       2.301  -1.464   0.837  -1.674  -0.000   0.000
    9    8    5    4        3       2.301  -1.464   0.837  -1.674  -0.000   0.000
   10    9    8    5        3       2.301  -1.464   0.837  -1.674  -0.000   0.000
   11   10    9    8        3       2.301  -1.464   0.837  -1.674  -0.000   0.000
   20   18    8    5        3       1.789   3.492   0.536  -5.816  -0.000   0.000
   19   18    8    5        3       1.789   3.492   0.536  -5.816  -0.000   0.000
   20   18    8    9        3       1.789   3.492   0.536  -5.816  -0.000   0.000
   19   18    8    9        3       1.789   3.492   0.536  -5.816  -0.000   0.000
   37    9    8    5        3       0.628   1.883   0.000  -2.510  -0.000   0.000
   36    8    9   10        3       0.628   1.883   0.000  -2.510  -0.000   0.000
   49   15   14   16        3       0.628   1.883   0.000  -2.510  -0.000   0.000
   40   10   11   12        3       0.628   1.883   0.000  -2.510  -0.000   0.000
   38    9    8    5        3       0.628   1.883   0.000  -2.510  -0.000   0.000
   45   13   12   11        3       0.628   1.883   0.000  -2.510  -0.000   0.000
   37    9   10   11        3       0.628   1.883   0.000  -2.510  -0.000   0.000
   40   10    9    8        3       0.628   1.883   0.000  -2.510  -0.000   0.000
   43   12   13   14        3       0.628   1.883   0.000  -2.510  -0.000   0.000
   23    1    2    3        3       0.628   1.883   0.000  -2.510  -0.000   0.000
   44   12   13   14        3       0.628   1.883   0.000  -2.510  -0.000   0.000
   52   16   14   13        3       0.628   1.883   0.000  -2.510  -0.000   0.000
   26    3    2    1        3       0.628   1.883   0.000  -2.510  -0.000   0.000
   38    9   10   11        3       0.628   1.883   0.000  -2.510  -0.000   0.000
   46   13   12   11        3       0.628   1.883   0.000  -2.510  -0.000   0.000
   39   10   11   12        3       0.628   1.883   0.000  -2.510  -0.000   0.000
   34    7    6    5        3       0.628   1.883   0.000  -2.510  -0.000   0.000
   35    7    6    5        3       0.628   1.883   0.000  -2.510  -0.000   0.000
   30    5    4    3        3       0.628   1.883   0.000  -2.510  -0.000   0.000
   41   11   12   13        3       0.628   1.883   0.000  -2.510  -0.000   0.000
   27    3    2    1        3       0.628   1.883   0.000  -2.510  -0.000   0.000
   28    4    5    6        3       0.628   1.883   0.000  -2.510  -0.000   0.000
   47   14   16   17        3       0.628   1.883   0.000  -2.510  -0.000   0.000
   30    5    6    7        3       0.628   1.883   0.000  -2.510  -0.000   0.000
   36    8    5    4        3       0.628   1.883   0.000  -2.510  -0.000   0.000
   32    6    5    4        3       0.628   1.883   0.000  -2.510  -0.000   0.000
   49   15   14   13        3       0.628   1.883   0.000  -2.510  -0.000   0.000
   51   16   14   13        3       0.628   1.883   0.000  -2.510  -0.000   0.000
   31    6    5    8        3       0.628   1.883   0.000  -2.510  -0.000   0.000
   29    4    5    8        3       0.628   1.883   0.000  -2.510  -0.000   0.000
   29    4    5    6        3       0.628   1.883   0.000  -2.510  -0.000   0.000
   26    3    4    5        3       0.628   1.883   0.000  -2.510  -0.000   0.000
   47   14   13   12        3       0.628   1.883   0.000  -2.510  -0.000   0.000
   46   13   14   15        3       0.628   1.883   0.000  -2.510  -0.000   0.000
   29    4    3    2        3       0.628   1.883   0.000  -2.510  -0.000   0.000
   36    8    5    6        3       0.628   1.883   0.000  -2.510  -0.000   0.000
   39   10    9    8        3       0.628   1.883   0.000  -2.510  -0.000   0.000
   43   12   11   10        3       0.628   1.883   0.000  -2.510  -0.000   0.000
   22    1    2    3        3       0.628   1.883   0.000  -2.510  -0.000   0.000
   54   17   16   14        3       0.628   1.883   0.000  -2.510  -0.000   0.000
   24    2    3    4        3       0.628   1.883   0.000  -2.510  -0.000   0.000
   51   16   14   15        3       0.628   1.883   0.000  -2.510  -0.000   0.000
   52   16   14   15        3       0.628   1.883   0.000  -2.510  -0.000   0.000
   45   13   14   15        3       0.628   1.883   0.000  -2.510  -0.000   0.000
   42   11   10    9        3       0.628   1.883   0.000  -2.510  -0.000   0.000
   30    5    8    9        3       0.628   1.883   0.000  -2.510  -0.000   0.000
   32    6    5    8        3       0.628   1.883   0.000  -2.510  -0.000   0.000
   33    7    6    5        3       0.628   1.883   0.000  -2.510  -0.000   0.000
   41   11   10    9        3       0.628   1.883   0.000  -2.510  -0.000   0.000
   21    1    2    3        3       0.628   1.883   0.000  -2.510  -0.000   0.000
   44   12   11   10        3       0.628   1.883   0.000  -2.510  -0.000   0.000
   48   15   14   16        3       0.628   1.883   0.000  -2.510  -0.000   0.000
   45   13   14   16        3       0.628   1.883   0.000  -2.510  -0.000   0.000
   48   15   14   13        3       0.628   1.883   0.000  -2.510  -0.000   0.000
   27    3    4    5        3       0.628   1.883   0.000  -2.510  -0.000   0.000
   50   15   14   16        3       0.628   1.883   0.000  -2.510  -0.000   0.000
   28    4    3    2        3       0.628   1.883   0.000  -2.510  -0.000   0.000
   50   15   14   13        3       0.628   1.883   0.000  -2.510  -0.000   0.000
   42   11   12   13        3       0.628   1.883   0.000  -2.510  -0.000   0.000
   53   17   16   14        3       0.628   1.883   0.000  -2.510  -0.000   0.000
   25    2    3    4        3       0.628   1.883   0.000  -2.510  -0.000   0.000
   31    6    5    4        3       0.628   1.883   0.000  -2.510  -0.000   0.000
   46   13   14   16        3       0.628   1.883   0.000  -2.510  -0.000   0.000
   28    4    5    8        3       0.628   1.883   0.000  -2.510  -0.000   0.000
   55   17   16   14        3       0.628   1.883   0.000  -2.510  -0.000   0.000
   30    5    4   28        3       0.628   1.883   0.000  -2.510  -0.000   0.000
   34    7    6   32        3       0.628   1.883   0.000  -2.510  -0.000   0.000
   37    9    8   36        3       0.628   1.883   0.000  -2.510  -0.000   0.000
   31    6    5   30        3       0.628   1.883   0.000  -2.510  -0.000   0.000
   41   11   10   39        3       0.628   1.883   0.000  -2.510  -0.000   0.000
   24    2    1   21        3       0.628   1.883   0.000  -2.510  -0.000   0.000
   44   12   11   41        3       0.628   1.883   0.000  -2.510  -0.000   0.000
   35    7    6   32        3       0.628   1.883   0.000  -2.510  -0.000   0.000
   43   12   11   42        3       0.628   1.883   0.000  -2.510  -0.000   0.000
   33    7    6   32        3       0.628   1.883   0.000  -2.510  -0.000   0.000
   47   14   13   46        3       0.628   1.883   0.000  -2.510  -0.000   0.000
   28    4    3   26        3       0.628   1.883   0.000  -2.510  -0.000   0.000
   49   15   14   47        3       0.628   1.883   0.000  -2.510  -0.000   0.000
   43   12   11   41        3       0.628   1.883   0.000  -2.510  -0.000   0.000
   38    9    8   36        3       0.628   1.883   0.000  -2.510  -0.000   0.000
   27    3    2   25        3       0.628   1.883   0.000  -2.510  -0.000   0.000
   39   10    9   38        3       0.628   1.883   0.000  -2.510  -0.000   0.000
   25    2    1   22        3       0.628   1.883   0.000  -2.510  -0.000   0.000
   26    3    2   24        3       0.628   1.883   0.000  -2.510  -0.000   0.000
   24    2    1   23        3       0.628   1.883   0.000  -2.510  -0.000   0.000
   39   10    9   37        3       0.628   1.883   0.000  -2.510  -0.000   0.000
   34    7    6   31        3       0.628   1.883   0.000  -2.510  -0.000   0.000
   29    4    3   27        3       0.628   1.883   0.000  -2.510  -0.000   0.000
   27    3    2   24        3       0.628   1.883   0.000  -2.510  -0.000   0.000
   33    7    6   31        3       0.628   1.883   0.000  -2.510  -0.000   0.000
   51   16   14   47        3       0.628   1.883   0.000  -2.510  -0.000   0.000
   24    2    1   22        3       0.628   1.883   0.000  -2.510  -0.000   0.000
   40   10    9   37        3       0.628   1.883   0.000  -2.510  -0.000   0.000
   40   10    9   38        3       0.628   1.883   0.000  -2.510  -0.000   0.000
   32    6    5   30        3       0.628   1.883   0.000  -2.510  -0.000   0.000
   46   13   12   44        3       0.628   1.883   0.000  -2.510  -0.000   0.000
   47   14   13   45        3       0.628   1.883   0.000  -2.510  -0.000   0.000
   30    5    4   29        3       0.628   1.883   0.000  -2.510  -0.000   0.000
   45   13   12   44        3       0.628   1.883   0.000  -2.510  -0.000   0.000
   54   17   16   51        3       0.628   1.883   0.000  -2.510  -0.000   0.000
   41   11   10   40        3       0.628   1.883   0.000  -2.510  -0.000   0.000
   42   11   10   39        3       0.628   1.883   0.000  -2.510  -0.000   0.000
   28    4    3   27        3       0.628   1.883   0.000  -2.510  -0.000   0.000
   29    4    3   26        3       0.628   1.883   0.000  -2.510  -0.000   0.000
   48   15   14   47        3       0.628   1.883   0.000  -2.510  -0.000   0.000
   52   16   14   47        3       0.628   1.883   0.000  -2.510  -0.000   0.000
   55   17   16   52        3       0.628   1.883   0.000  -2.510  -0.000   0.000
   53   17   16   52        3       0.628   1.883   0.000  -2.510  -0.000   0.000
   25    2    1   23        3       0.628   1.883   0.000  -2.510  -0.000   0.000
   45   13   12   43        3       0.628   1.883   0.000  -2.510  -0.000   0.000
   50   15   14   47        3       0.628   1.883   0.000  -2.510  -0.000   0.000
   35    7    6   31        3       0.628   1.883   0.000  -2.510  -0.000   0.000
   26    3    2   25        3       0.628   1.883   0.000  -2.510  -0.000   0.000
   55   17   16   51        3       0.628   1.883   0.000  -2.510  -0.000   0.000
   46   13   12   43        3       0.628   1.883   0.000  -2.510  -0.000   0.000
   36    8    5   30        3       0.628   1.883   0.000  -2.510  -0.000   0.000
   42   11   10   40        3       0.628   1.883   0.000  -2.510  -0.000   0.000
   25    2    1   21        3       0.628   1.883   0.000  -2.510  -0.000   0.000
   53   17   16   51        3       0.628   1.883   0.000  -2.510  -0.000   0.000
   54   17   16   52        3       0.628   1.883   0.000  -2.510  -0.000   0.000
   44   12   11   42        3       0.628   1.883   0.000  -2.510  -0.000   0.000
   38    9    8   18        3      -4.096   5.088   2.966  -3.958  -0.000   0.000
   30    5    8   18        3      -4.096   5.088   2.966  -3.958  -0.000   0.000
   37    9    8   18        3      -4.096   5.088   2.966  -3.958  -0.000   0.000
   56   19   18    8        3       1.172   3.515   0.000  -4.686  -0.000   0.000
   36    8   18   19        3       1.172   3.515   0.000  -4.686  -0.000   0.000
   58   19   18   20        3       1.172   3.515   0.000  -4.686  -0.000   0.000
   59   20   18    8        3       1.172   3.515   0.000  -4.686  -0.000   0.000
   57   19   18   20        3       1.172   3.515   0.000  -4.686  -0.000   0.000
   56   19   18   20        3       1.172   3.515   0.000  -4.686  -0.000   0.000
   61   20   18   19        3       1.172   3.515   0.000  -4.686  -0.000   0.000
   60   20   18    8        3       1.172   3.515   0.000  -4.686  -0.000   0.000
   61   20   18    8        3       1.172   3.515   0.000  -4.686  -0.000   0.000
   36    8   18   20        3       1.172   3.515   0.000  -4.686  -0.000   0.000
   58   19   18    8        3       1.172   3.515   0.000  -4.686  -0.000   0.000
   60   20   18   19        3       1.172   3.515   0.000  -4.686  -0.000   0.000
   59   20   18   19        3       1.172   3.515   0.000  -4.686  -0.000   0.000
   57   19   18    8        3       1.172   3.515   0.000  -4.686  -0.000   0.000
   18    8    9   10        3       3.335  -1.552   2.820  -4.602  -0.000   0.000
   18    8    5    6        3       3.335  -1.552   2.820  -4.602  -0.000   0.000
   18    8    5    4        3       3.335  -1.552   2.820  -4.602  -0.000   0.000

[ pairs ]
     1     4    1
     2     5    1
     3     6    1
     4     7    1
     3     8    1
     4     9    1
     7     8    1
     6     9    1
     5    10    1
     8    11    1
     9    12    1
     4    18    1
    10    13    1
     6    18    1
     5    19    1
     3    21    1
    11    14    1
     5    20    1
     3    22    1
     3    23    1
    12    15    1
     1    26    1
    12    16    1
    10    18    1
     9    19    1
     4    24    1
     1    27    1
     9    20    1
     4    25    1
    13    17    1
     2    28    1
     5    26    1
     2    29    1
    15    17    1
     5    27    1
     3    30    1
     6    28    1
     6    29    1
     4    31    1
     8    28    1
     4    32    1
     8    29    1
     7    30    1
     5    33    1
     9    30    1
     8    31    1
     5    34    1
     8    32    1
     5    35    1
     4    36    1
     6    36    1
     5    37    1
     5    38    1
    21    24    1
    22    24    1
    21    25    1
    10    36    1
    23    24    1
    22    25    1
     8    39    1
    23    25    1
    18    30    1
    11    37    1
     8    40    1
    11    38    1
    24    26    1
     9    41    1
    25    26    1
    24    27    1
    12    39    1
     9    42    1
    25    27    1
    12    40    1
    10    43    1
    26    28    1
    13    41    1
    10    44    1
    27    28    1
    26    29    1
    19    36    1
    18    37    1
    13    42    1
    27    29    1
    20    36    1
    18    38    1
    11    45    1
    14    43    1
    11    46    1
    28    30    1
    14    44    1
    29    30    1
    12    47    1
    15    45    1
    30    31    1
    16    45    1
    15    46    1
    13    48    1
    30    32    1
    16    46    1
    13    49    1
    13    50    1
    31    33    1
    17    47    1
    16    48    1
    13    51    1
     8    56    1
    32    33    1
    31    34    1
    16    49    1
    13    52    1
     8    57    1
    32    34    1
    31    35    1
    30    36    1
    16    50    1
    15    51    1
     8    58    1
    32    35    1
    15    52    1
    14    53    1
     8    59    1
    14    54    1
     8    60    1
    14    55    1
     8    61    1
    36    37    1
    36    38    1
    37    39    1
    20    56    1
    38    39    1
    37    40    1
    20    57    1
    38    40    1
    20    58    1
    19    59    1
    19    60    1
    39    41    1
    19    61    1
    40    41    1
    39    42    1
    40    42    1
    41    43    1
    42    43    1
    41    44    1
    42    44    1
    43    45    1
    44    45    1
    43    46    1
    44    46    1
    45    47    1
    46    47    1
    47    48    1
    47    49    1
    47    50    1
    47    51    1
    47    52    1
    51    53    1
    52    53    1
    51    54    1
    52    54    1
    51    55    1
    52    55    1

