
;
; GENERATED BY LigParGen Server
; Jorgensen Lab @ Yale University 
;
[ atomtypes ]
  opls_818  H818     1.0080     0.000    A    2.50000E-01   1.25520E-01
  opls_804  C804    12.0110     0.000    A    3.45000E-01   3.47272E-01
  opls_824  H824     1.0080     0.000    A    2.50000E-01   1.25520E-01
  opls_805  C805    12.0110     0.000    A    3.50000E-01   2.76144E-01
  opls_828  H828     1.0080     0.000    A    2.50000E-01   1.25520E-01
  opls_813  H813     1.0080     0.000    A    2.50000E-01   1.25520E-01
  opls_803  C803    12.0110     0.000    A    3.45000E-01   3.47272E-01
  opls_802  C802    12.0110     0.000    A    3.50000E-01   2.76144E-01
  opls_815  H815     1.0080     0.000    A    2.50000E-01   1.25520E-01
  opls_801  C801    12.0110     0.000    A    3.50000E-01   2.76144E-01
  opls_806  C806    12.0110     0.000    A    3.50000E-01   2.76144E-01
  opls_822  H822     1.0080     0.000    A    2.50000E-01   1.25520E-01
  opls_807  C807    12.0110     0.000    A    3.50000E-01   2.76144E-01
  opls_808  C808    12.0110     0.000    A    3.45000E-01   3.47272E-01
  opls_825  H825     1.0080     0.000    A    2.50000E-01   1.25520E-01
  opls_814  H814     1.0080     0.000    A    2.50000E-01   1.25520E-01
  opls_821  H821     1.0080     0.000    A    2.50000E-01   1.25520E-01
  opls_820  H820     1.0080     0.000    A    2.50000E-01   1.25520E-01
  opls_829  H829     1.0080     0.000    A    2.50000E-01   1.25520E-01
  opls_816  H816     1.0080     0.000    A    2.50000E-01   1.25520E-01
  opls_800  C800    12.0110     0.000    A    3.50000E-01   2.76144E-01
  opls_811  C811    12.0110     0.000    A    3.50000E-01   2.76144E-01
  opls_823  H823     1.0080     0.000    A    2.50000E-01   1.25520E-01
  opls_826  H826     1.0080     0.000    A    2.50000E-01   1.25520E-01
  opls_819  H819     1.0080     0.000    A    2.50000E-01   1.25520E-01
  opls_810  C810    12.0110     0.000    A    3.50000E-01   2.76144E-01
  opls_827  H827     1.0080     0.000    A    2.50000E-01   1.25520E-01
  opls_812  C812    12.0110     0.000    A    3.50000E-01   2.76144E-01
  opls_817  H817     1.0080     0.000    A    2.50000E-01   1.25520E-01
  opls_809  C809    12.0110     0.000    A    3.45000E-01   3.47272E-01
  opls_830  H830     1.0080     0.000    A    2.50000E-01   1.25520E-01
[ moleculetype ]
; Name               nrexcl
UNK                   3
[ atoms ]
;   nr       type  resnr residue  atom   cgnr     charge       mass  
     1   opls_800      1    UNK   C00      1    -0.2088    12.0110 
     2   opls_801      1    UNK   C01      1    -0.1432    12.0110 
     3   opls_802      1    UNK   C02      1    -0.2117    12.0110 
     4   opls_803      1    UNK   C03      1    -0.2214    12.0110 
     5   opls_804      1    UNK   C04      1     0.1505    12.0110 
     6   opls_805      1    UNK   C05      1    -0.2793    12.0110 
     7   opls_806      1    UNK   C06      1    -0.0816    12.0110 
     8   opls_807      1    UNK   C07      1    -0.2424    12.0110 
     9   opls_808      1    UNK   C08      1    -0.3548    12.0110 
    10   opls_809      1    UNK   C09      1    -0.1243    12.0110 
    11   opls_810      1    UNK   C0A      1     -0.082    12.0110 
    12   opls_811      1    UNK   C0B      1    -0.1572    12.0110 
    13   opls_812      1    UNK   C0C      1     -0.056    12.0110 
    14   opls_813      1    UNK   H0D      1     0.1008     1.0080 
    15   opls_814      1    UNK   H0E      1     0.1008     1.0080 
    16   opls_815      1    UNK   H0F      1     0.1019     1.0080 
    17   opls_816      1    UNK   H0G      1     0.0917     1.0080 
    18   opls_817      1    UNK   H0H      1     0.0917     1.0080 
    19   opls_818      1    UNK   H0I      1     0.1162     1.0080 
    20   opls_819      1    UNK   H0J      1     0.0869     1.0080 
    21   opls_820      1    UNK   H0K      1     0.1179     1.0080 
    22   opls_821      1    UNK   H0M      1     0.1179     1.0080 
    23   opls_822      1    UNK   H0N      1     0.1052     1.0080 
    24   opls_823      1    UNK   H0O      1     0.0915     1.0080 
    25   opls_824      1    UNK   H0P      1     0.0915     1.0080 
    26   opls_825      1    UNK   H0Q      1     0.2654     1.0080 
    27   opls_826      1    UNK   H0R      1     0.1135     1.0080 
    28   opls_827      1    UNK   H0S      1     0.1154     1.0080 
    29   opls_828      1    UNK   H0T      1     0.0853     1.0080 
    30   opls_829      1    UNK   H0U      1     0.0853     1.0080 
    31   opls_830      1    UNK   H0V      1     0.1333     1.0080 
[ bonds ]
    2     1     1      0.1529 224262.400
    3     2     1      0.1529 224262.400
    4     3     1      0.1510 234304.000
    5     4     1      0.1520 217568.000
    6     5     1      0.1510 234304.000
    7     6     1      0.1529 224262.400
    8     7     1      0.1529 224262.400
    9     5     1      0.1520 217568.000
   10     4     1      0.1520 217568.000
   11     1     1      0.1529 224262.400
   12    11     1      0.1529 224262.400
   13     2     1      0.1529 224262.400
   14     1     1      0.1090 284512.000
   15     1     1      0.1090 284512.000
   16     2     1      0.1090 284512.000
   17     3     1      0.1090 284512.000
   18     3     1      0.1090 284512.000
   19     4     1      0.1088 284512.000
   20     5     1      0.1088 284512.000
   21     6     1      0.1090 284512.000
   22     6     1      0.1090 284512.000
   23     7     1      0.1090 284512.000
   24     8     1      0.1090 284512.000
   25     8     1      0.1090 284512.000
   26     9     1      0.1088 284512.000
   27    10     1      0.1088 284512.000
   28    11     1      0.1090 284512.000
   29    12     1      0.1090 284512.000
   30    12     1      0.1090 284512.000
   31    13     1      0.1090 284512.000
   13     7     1      0.1529 224262.400
    9     8     1      0.1510 234304.000
   10     9     1      0.1520 217568.000
   11    10     1      0.1510 234304.000
   13    12     1      0.1529 224262.400

[ angles ]
;  ai    aj    ak funct            c0            c1            c2            c3 
    1     2     3     1    112.700    488.273
    2     3     4     1    112.700    488.273
    3     4     5     1    117.200    313.800
    4     5     6     1    117.200    313.800
    5     6     7     1    112.700    488.273
    6     7     8     1    112.700    488.273
    4     5     9     1     83.000    251.040
    3     4    10     1    117.200    313.800
    2     1    11     1    112.700    488.273
    1    11    12     1    112.700    488.273
    1     2    13     1    112.700    488.273
    2     1    14     1    110.700    313.800
    2     1    15     1    110.700    313.800
    1     2    16     1    110.700    313.800
    2     3    17     1    110.700    313.800
    2     3    18     1    110.700    313.800
    3     4    19     1    114.300    292.880
    4     5    20     1    117.200    313.800
    5     6    21     1    110.700    313.800
    5     6    22     1    110.700    313.800
    6     7    23     1    110.700    313.800
    7     8    24     1    110.700    313.800
    7     8    25     1    110.700    313.800
    5     9    26     1    117.200    313.800
    4    10    27     1    117.200    313.800
    1    11    28     1    110.700    313.800
   11    12    29     1    110.700    313.800
   11    12    30     1    110.700    313.800
    2    13    31     1    110.700    313.800
    6     7    13     1    112.700    488.273
   21     6    22     1    107.800    276.144
    2    13    12     1    112.700    488.273
    6     5     9     1    117.200    313.800
    9     8    25     1    110.700    313.800
    8     9    26     1    114.300    292.880
   29    12    30     1    107.800    276.144
   13    12    29     1    110.700    313.800
   11    12    13     1    112.700    488.273
    4    10    11     1    117.200    313.800
    1    11    10     1    112.700    488.273
   11     1    14     1    110.700    313.800
    2    13     7     1    112.700    488.273
   13     7    23     1    110.700    313.800
   10    11    12     1    112.700    488.273
   10    11    28     1    110.700    313.800
   11    10    27     1    114.300    292.880
    4    10     9     1     83.000    251.040
    3     2    16     1    110.700    313.800
   13    12    30     1    110.700    313.800
    8     7    13     1    112.700    488.273
    8     7    23     1    110.700    313.800
   14     1    15     1    107.800    276.144
    4     3    18     1    110.700    313.800
   10     4    19     1    117.200    313.800
    5     4    19     1    117.200    313.800
    6     5    20     1    114.300    292.880
    5     9    10     1     83.000    251.040
    7     6    21     1    110.700    313.800
   11     1    15     1    110.700    313.800
   12    13    31     1    110.700    313.800
    3     2    13     1    112.700    488.273
   10     9    26     1    117.200    313.800
    9    10    11     1    117.200    313.800
    9     5    20     1    117.200    313.800
   24     8    25     1    107.800    276.144
    7     8     9     1    112.700    488.273
   17     3    18     1    107.800    276.144
   12    11    28     1    110.700    313.800
    9    10    27     1    117.200    313.800
    8     9    10     1    117.200    313.800
    5     4    10     1     83.000    251.040
    7    13    31     1    110.700    313.800
    5     9     8     1    117.200    313.800
    4     3    17     1    110.700    313.800
    7    13    12     1    112.700    488.273
   13     2    16     1    110.700    313.800
    9     8    24     1    110.700    313.800
    7     6    22     1    110.700    313.800

[ dihedrals ]
; IMPROPER DIHEDRAL ANGLES 
;  ai    aj    ak    al funct            c0            c1            c2            c3            c4            c5

[ dihedrals ]
; PROPER DIHEDRAL ANGLES
;  ai    aj    ak    al funct            c0            c1            c2            c3            c4            c5
    6    7   13    2        3       2.301  -1.464   0.837  -1.674  -0.000   0.000
   12   13    2    3        3       2.301  -1.464   0.837  -1.674  -0.000   0.000
   12   11    1    2        3       2.301  -1.464   0.837  -1.674  -0.000   0.000
   13    2    1   11        3       2.301  -1.464   0.837  -1.674  -0.000   0.000
   12   13    7    6        3       2.301  -1.464   0.837  -1.674  -0.000   0.000
    7   13    2    3        3       2.301  -1.464   0.837  -1.674  -0.000   0.000
   11   12   13    7        3       2.301  -1.464   0.837  -1.674  -0.000   0.000
    7   13    2    1        3       2.301  -1.464   0.837  -1.674  -0.000   0.000
   12   13    2    1        3       2.301  -1.464   0.837  -1.674  -0.000   0.000
   11   12   13    2        3       2.301  -1.464   0.837  -1.674  -0.000   0.000
   12   13    7    8        3       2.301  -1.464   0.837  -1.674  -0.000   0.000
   11    1    2    3        3       2.301  -1.464   0.837  -1.674  -0.000   0.000
   13   12   11    1        3       2.301  -1.464   0.837  -1.674  -0.000   0.000
    8    7   13    2        3       2.301  -1.464   0.837  -1.674  -0.000   0.000
   13    2    3    4        3       2.301  -1.464   0.837  -1.674  -0.000   0.000
   13    7    8    9        3       2.301  -1.464   0.837  -1.674  -0.000   0.000
    8    7    6    5        3       2.301  -1.464   0.837  -1.674  -0.000   0.000
   13   12   11   10        3       2.301  -1.464   0.837  -1.674  -0.000   0.000
   13    7    6    5        3       2.301  -1.464   0.837  -1.674  -0.000   0.000
   12   11   10    9        3       0.000   0.000   0.000  -0.000  -0.000   0.000
    7    6    5    4        3       0.000   0.000   0.000  -0.000  -0.000   0.000
   12   11   10    4        3       0.000   0.000   0.000  -0.000  -0.000   0.000
    7    8    9    5        3       0.000   0.000   0.000  -0.000  -0.000   0.000
   11   10    4    3        3       0.000   0.000   0.000  -0.000  -0.000   0.000
    6    5    4    3        3       0.000   0.000   0.000  -0.000  -0.000   0.000
    8    9    5    6        3       0.000   0.000   0.000  -0.000  -0.000   0.000
   11   10    9    8        3       0.000   0.000   0.000  -0.000  -0.000   0.000
    8    9    5    4        3       0.000   0.000   0.000  -0.000  -0.000   0.000
   11   10    4    5        3       0.000   0.000   0.000  -0.000  -0.000   0.000
   11   10    9    5        3       0.000   0.000   0.000  -0.000  -0.000   0.000
    8    9   10    4        3       0.000   0.000   0.000  -0.000  -0.000   0.000
    9    8    7    6        3       2.301  -1.464   0.837  -1.674  -0.000   0.000
    4    3    2    1        3       2.301  -1.464   0.837  -1.674  -0.000   0.000
   10   11    1    2        3       2.301  -1.464   0.837  -1.674  -0.000   0.000
   10    4    3    2        3       0.000   0.000   0.000  -0.000  -0.000   0.000
    5    4    3    2        3       0.000   0.000   0.000  -0.000  -0.000   0.000
   10    9    8    7        3       0.000   0.000   0.000  -0.000  -0.000   0.000
    4   10   11    1        3       0.000   0.000   0.000  -0.000  -0.000   0.000
    9   10   11    1        3       0.000   0.000   0.000  -0.000  -0.000   0.000
    9    5    6    7        3       0.000   0.000   0.000  -0.000  -0.000   0.000
    9   10    4    3        3       0.000   0.000   0.000  -0.000  -0.000   0.000
   10    4    5    6        3       0.000   0.000   0.000  -0.000  -0.000   0.000
    9    5    4    3        3       0.000   0.000   0.000  -0.000  -0.000   0.000
   10    9    5    6        3       0.000   0.000   0.000  -0.000  -0.000   0.000
   22    6    7    8        3       0.628   1.883   0.000  -2.510  -0.000   0.000
   18    3    2   13        3       0.628   1.883   0.000  -2.510  -0.000   0.000
   15    1    2    3        3       0.628   1.883   0.000  -2.510  -0.000   0.000
   29   12   13    2        3       0.628   1.883   0.000  -2.510  -0.000   0.000
   31   13   12   11        3       0.628   1.883   0.000  -2.510  -0.000   0.000
   18    3    2    1        3       0.628   1.883   0.000  -2.510  -0.000   0.000
   14    1    2   13        3       0.628   1.883   0.000  -2.510  -0.000   0.000
   16    2    1   11        3       0.628   1.883   0.000  -2.510  -0.000   0.000
   23    7   13   12        3       0.628   1.883   0.000  -2.510  -0.000   0.000
   31   13    7    6        3       0.628   1.883   0.000  -2.510  -0.000   0.000
   24    8    7    6        3       0.628   1.883   0.000  -2.510  -0.000   0.000
   30   12   13    7        3       0.628   1.883   0.000  -2.510  -0.000   0.000
   25    8    7   13        3       0.628   1.883   0.000  -2.510  -0.000   0.000
   22    6    7   13        3       0.628   1.883   0.000  -2.510  -0.000   0.000
   30   12   11    1        3       0.628   1.883   0.000  -2.510  -0.000   0.000
   15    1    2   13        3       0.628   1.883   0.000  -2.510  -0.000   0.000
   31   13    7    8        3       0.628   1.883   0.000  -2.510  -0.000   0.000
   29   12   11    1        3       0.628   1.883   0.000  -2.510  -0.000   0.000
   14    1   11   12        3       0.628   1.883   0.000  -2.510  -0.000   0.000
   17    3    2    1        3       0.628   1.883   0.000  -2.510  -0.000   0.000
   17    3    2   13        3       0.628   1.883   0.000  -2.510  -0.000   0.000
   30   12   13    2        3       0.628   1.883   0.000  -2.510  -0.000   0.000
   25    8    7    6        3       0.628   1.883   0.000  -2.510  -0.000   0.000
   24    8    7   13        3       0.628   1.883   0.000  -2.510  -0.000   0.000
   15    1   11   12        3       0.628   1.883   0.000  -2.510  -0.000   0.000
   31   13    2    1        3       0.628   1.883   0.000  -2.510  -0.000   0.000
   23    7   13    2        3       0.628   1.883   0.000  -2.510  -0.000   0.000
   16    2   13    7        3       0.628   1.883   0.000  -2.510  -0.000   0.000
   28   11    1    2        3       0.628   1.883   0.000  -2.510  -0.000   0.000
   14    1    2    3        3       0.628   1.883   0.000  -2.510  -0.000   0.000
   21    6    7   13        3       0.628   1.883   0.000  -2.510  -0.000   0.000
   31   13    2    3        3       0.628   1.883   0.000  -2.510  -0.000   0.000
   21    6    7    8        3       0.628   1.883   0.000  -2.510  -0.000   0.000
   29   12   13    7        3       0.628   1.883   0.000  -2.510  -0.000   0.000
   28   11   12   13        3       0.628   1.883   0.000  -2.510  -0.000   0.000
   16    2   13   12        3       0.628   1.883   0.000  -2.510  -0.000   0.000
   23    7    6    5        3       0.628   1.883   0.000  -2.510  -0.000   0.000
   15    1   11   10        3       0.628   1.883   0.000  -2.510  -0.000   0.000
   30   12   11   10        3       0.628   1.883   0.000  -2.510  -0.000   0.000
   29   12   11   10        3       0.628   1.883   0.000  -2.510  -0.000   0.000
   23    7    8    9        3       0.628   1.883   0.000  -2.510  -0.000   0.000
   14    1   11   10        3       0.628   1.883   0.000  -2.510  -0.000   0.000
   16    2    3    4        3       0.628   1.883   0.000  -2.510  -0.000   0.000
   16    2    1   14        3       0.628   1.883   0.000  -2.510  -0.000   0.000
   18    3    2   16        3       0.628   1.883   0.000  -2.510  -0.000   0.000
   24    8    7   23        3       0.628   1.883   0.000  -2.510  -0.000   0.000
   16    2    1   15        3       0.628   1.883   0.000  -2.510  -0.000   0.000
   28   11    1   15        3       0.628   1.883   0.000  -2.510  -0.000   0.000
   23    7    6   22        3       0.628   1.883   0.000  -2.510  -0.000   0.000
   30   12   11   28        3       0.628   1.883   0.000  -2.510  -0.000   0.000
   29   12   11   28        3       0.628   1.883   0.000  -2.510  -0.000   0.000
   31   13   12   30        3       0.628   1.883   0.000  -2.510  -0.000   0.000
   28   11    1   14        3       0.628   1.883   0.000  -2.510  -0.000   0.000
   31   13    7   23        3       0.628   1.883   0.000  -2.510  -0.000   0.000
   23    7    6   21        3       0.628   1.883   0.000  -2.510  -0.000   0.000
   25    8    7   23        3       0.628   1.883   0.000  -2.510  -0.000   0.000
   31   13   12   29        3       0.628   1.883   0.000  -2.510  -0.000   0.000
   31   13    2   16        3       0.628   1.883   0.000  -2.510  -0.000   0.000
   17    3    2   16        3       0.628   1.883   0.000  -2.510  -0.000   0.000
   18    3    4    5        3       0.628   1.883   0.000  -2.510  -0.000   0.000
   22    6    5    9        3       0.628   1.883   0.000  -2.510  -0.000   0.000
   21    6    5    9        3       0.628   1.883   0.000  -2.510  -0.000   0.000
   28   11   10    4        3       0.628   1.883   0.000  -2.510  -0.000   0.000
   25    8    9    5        3       0.628   1.883   0.000  -2.510  -0.000   0.000
   25    8    9   10        3       0.628   1.883   0.000  -2.510  -0.000   0.000
   28   11   10    9        3       0.628   1.883   0.000  -2.510  -0.000   0.000
   17    3    4    5        3       0.628   1.883   0.000  -2.510  -0.000   0.000
   24    8    9    5        3       0.628   1.883   0.000  -2.510  -0.000   0.000
   18    3    4   10        3       0.628   1.883   0.000  -2.510  -0.000   0.000
   24    8    9   10        3       0.628   1.883   0.000  -2.510  -0.000   0.000
   21    6    5    4        3       0.628   1.883   0.000  -2.510  -0.000   0.000
   22    6    5    4        3       0.628   1.883   0.000  -2.510  -0.000   0.000
   17    3    4   10        3       0.628   1.883   0.000  -2.510  -0.000   0.000
   22    6    5   20        3       0.628   1.883   0.000  -2.510  -0.000   0.000
   21    6    5   20        3       0.628   1.883   0.000  -2.510  -0.000   0.000
   28   11   10   27        3       0.628   1.883   0.000  -2.510  -0.000   0.000
   20    5    6    7        3       0.628   1.883   0.000  -2.510  -0.000   0.000
   27   10   11   12        3       0.628   1.883   0.000  -2.510  -0.000   0.000
   26    9    8    7        3       0.628   1.883   0.000  -2.510  -0.000   0.000
   27   10   11    1        3       0.628   1.883   0.000  -2.510  -0.000   0.000
   19    4    3    2        3       0.628   1.883   0.000  -2.510  -0.000   0.000
   26    9    8   25        3       0.628   1.883   0.000  -2.510  -0.000   0.000
   19    4    3   17        3       0.628   1.883   0.000  -2.510  -0.000   0.000
   26    9    8   24        3       0.628   1.883   0.000  -2.510  -0.000   0.000
   19    4    3   18        3       0.628   1.883   0.000  -2.510  -0.000   0.000
   19    4   10   11        3       0.000   0.000   0.000  -0.000  -0.000   0.000
   20    5    4    3        3       0.000   0.000   0.000  -0.000  -0.000   0.000
   20    5    9    8        3       0.000   0.000   0.000  -0.000  -0.000   0.000
   26    9    5    6        3       0.000   0.000   0.000  -0.000  -0.000   0.000
   27   10    9    8        3       0.000   0.000   0.000  -0.000  -0.000   0.000
   26    9   10   11        3       0.000   0.000   0.000  -0.000  -0.000   0.000
   19    4    5    6        3       0.000   0.000   0.000  -0.000  -0.000   0.000
   27   10    4    3        3       0.000   0.000   0.000  -0.000  -0.000   0.000
   26    9   10    4        3       0.000   0.000   0.000  -0.000  -0.000   0.000
   27   10    9    5        3       0.000   0.000   0.000  -0.000  -0.000   0.000
   19    4    5    9        3       0.000   0.000   0.000  -0.000  -0.000   0.000
   27   10    4    5        3       0.000   0.000   0.000  -0.000  -0.000   0.000
   20    5    9   10        3       0.000   0.000   0.000  -0.000  -0.000   0.000
   26    9    5    4        3       0.000   0.000   0.000  -0.000  -0.000   0.000
   20    5    4   10        3       0.000   0.000   0.000  -0.000  -0.000   0.000
   19    4   10    9        3       0.000   0.000   0.000  -0.000  -0.000   0.000
   27   10    4   19        3       0.000   0.000   0.000  -0.000  -0.000   0.000
   27   10    9   26        3       0.000   0.000   0.000  -0.000  -0.000   0.000
   26    9    5   20        3       0.000   0.000   0.000  -0.000  -0.000   0.000
   20    5    4   19        3       0.000   0.000   0.000  -0.000  -0.000   0.000

[ pairs ]
     1     4    1
     2     5    1
     2     6    1
     1     7    1
     3     6    1
     3     7    1
     2     8    1
     1     9    1
     4     7    1
     4     8    1
     3     9    1
     2    10    1
     3    11    1
     3    12    1
     6    10    1
     5    11    1
     4    12    1
     7    10    1
     4    13    1
     3    14    1
     7    11    1
     6    12    1
     5    13    1
     3    15    1
     1    17    1
     8    11    1
     1    18    1
     8    12    1
     4    16    1
     9    12    1
     2    19    1
     9    13    1
     5    17    1
    10    13    1
     7    16    1
     5    18    1
     3    20    1
    10    14    1
    10    15    1
     6    19    1
     4    21    1
     2    23    1
    12    14    1
     4    22    1
    13    14    1
    12    15    1
    11    16    1
    10    17    1
     7    20    1
    13    15    1
    12    16    1
    10    18    1
     9    19    1
     8    20    1
     5    23    1
     1    27    1
     8    21    1
     5    24    1
    14    16    1
    13    17    1
    11    19    1
    10    20    1
     9    21    1
     8    22    1
     6    24    1
     5    25    1
     4    26    1
     3    27    1
     2    28    1
     1    29    1
    15    16    1
    13    18    1
     9    22    1
     6    25    1
     2    29    1
     1    30    1
     9    23    1
     6    26    1
     5    27    1
     4    28    1
     2    30    1
     1    31    1
    16    17    1
     7    26    1
    16    18    1
    13    21    1
    10    24    1
     3    31    1
    13    22    1
    12    23    1
    10    25    1
     8    27    1
    17    19    1
     7    29    1
    18    19    1
    13    24    1
    11    26    1
     9    28    1
     7    30    1
     6    31    1
    13    25    1
    19    20    1
    12    27    1
    10    29    1
     8    31    1
    10    30    1
    20    21    1
    13    28    1
    20    22    1
    14    28    1
    11    31    1
    15    28    1
    21    23    1
    22    23    1
    20    26    1
    19    27    1
    23    24    1
    16    31    1
    23    25    1
    24    26    1
    25    26    1
    26    27    1
    23    31    1
    27    28    1
    28    29    1
    28    30    1
    29    31    1
    30    31    1

