LIGPARGEN GENERATED GRO FILE
   31
    1UNK    C00    1   0.100   0.100   0.000
    1UNK    C01    2  -0.061   0.100   0.000
    1UNK    C02    3  -0.096   0.100   0.142
    1UNK    C03    4  -0.071   0.251   0.171
    1UNK    C04    5  -0.013   0.419   0.081
    1UNK    C05    6  -0.090   0.496  -0.022
    1UNK    C06    7  -0.197   0.409   0.022
    1UNK    C07    8  -0.157   0.487   0.176
    1UNK    C08    9  -0.004   0.440   0.226
    1UNK    C09   10   0.075   0.281   0.175
    1UNK    C0A   11   0.112   0.246  -0.000
    1UNK    C0B   12  -0.008   0.266  -0.122
    1UNK    C0C   13  -0.142   0.248  -0.053
    1UNK    H0D   14   0.152   0.060  -0.089
    1UNK    H0E   15   0.149   0.057   0.089
    1UNK    H0F   16  -0.089   0.014  -0.063
    1UNK    H0G   17  -0.034   0.030   0.200
    1UNK    H0H   18  -0.199   0.062   0.145
    1UNK    H0I   19  -0.137   0.261   0.258
    1UNK    H0J   20   0.091   0.449   0.052
    1UNK    H0K   21  -0.070   0.485  -0.130
    1UNK    H0M   22  -0.081   0.602  -0.012
    1UNK    H0N   23  -0.294   0.441  -0.016
    1UNK    H0O   24  -0.233   0.482   0.253
    1UNK    H0P   25  -0.143   0.598   0.164
    1UNK    H0Q   26  -0.046   0.415   0.325
    1UNK    H0R   27   0.134   0.228   0.250
    1UNK    H0S   28   0.206   0.292  -0.028
    1UNK    H0T   29  -0.004   0.186  -0.199
    1UNK    H0U   30   0.009   0.352  -0.186
    1UNK    H0V   31  -0.237   0.206  -0.087
   1.00000   1.00000   1.00000

