LIGPARGEN GENERATED GRO FILE
   39
    1UNK    C00    1   0.100   0.100   0.000
    1UNK    C01    2  -0.052   0.100   0.000
    1UNK    C02    3  -0.108   0.100   0.142
    1UNK    C03    4  -0.261   0.100   0.140
    1UNK    C04    5  -0.319   0.100   0.282
    1UNK    C05    6  -0.470   0.100   0.277
    1UNK    O06    7  -0.534   0.205   0.278
    1UNK    C07    8  -0.540  -0.034   0.272
    1UNK    C08    9  -0.571  -0.082   0.412
    1UNK    C09   10  -0.640  -0.216   0.408
    1UNK    O0A   11  -0.586  -0.314   0.357
    1UNK    C0B   12  -0.778  -0.227   0.469
    1UNK    C0C   13  -0.779  -0.328   0.582
    1UNK    O0D   14  -0.910  -0.338   0.640
    1UNK    C0E   15  -0.940  -0.243   0.733
    1UNK    C0F   16  -1.079  -0.263   0.786
    1UNK    O0G   17  -0.866  -0.153   0.768
    1UNK    H0H   18   0.138   0.100  -0.103
    1UNK    H0I   19   0.139   0.011   0.050
    1UNK    H0J   20   0.139   0.189   0.051
    1UNK    H0K   21  -0.088   0.012  -0.054
    1UNK    H0M   22  -0.088   0.188  -0.054
    1UNK    H0N   23  -0.072   0.188   0.196
    1UNK    H0O   24  -0.072   0.012   0.196
    1UNK    H0P   25  -0.298   0.012   0.086
    1UNK    H0Q   26  -0.298   0.188   0.086
    1UNK    H0R   27  -0.286   0.189   0.337
    1UNK    H0S   28  -0.285   0.013   0.339
    1UNK    H0T   29  -0.477  -0.106   0.217
    1UNK    H0U   30  -0.632  -0.023   0.213
    1UNK    H0V   31  -0.633  -0.009   0.465
    1UNK    H0W   32  -0.479  -0.094   0.472
    1UNK    H0X   33  -0.849  -0.256   0.390
    1UNK    H0Y   34  -0.812  -0.129   0.504
    1UNK    H0Z   35  -0.704  -0.303   0.659
    1UNK    H10   36  -0.753  -0.427   0.545
    1UNK    H11   37  -1.125  -0.352   0.743
    1UNK    H12   38  -1.140  -0.176   0.761
    1UNK    H13   39  -1.074  -0.276   0.895
   1.00000   1.00000   1.00000

