
;
; GENERATED BY LigParGen Server
; Jorgensen Lab @ Yale University 
;
[ atomtypes ]
  opls_818  H818     1.0080     0.000    A    2.50000E-01   1.25520E-01
  opls_824  H824     1.0080     0.000    A    2.50000E-01   1.25520E-01
  opls_805  C805    12.0110     0.000    A    3.50000E-01   2.76144E-01
  opls_813  H813     1.0080     0.000    A    2.50000E-01   1.25520E-01
  opls_802  C802    12.0110     0.000    A    3.50000E-01   2.76144E-01
  opls_815  H815     1.0080     0.000    A    2.50000E-01   1.25520E-01
  opls_801  C801    12.0110     0.000    A    3.50000E-01   2.76144E-01
  opls_822  H822     1.0080     0.000    A    2.50000E-01   1.25520E-01
  opls_803  C803    12.0110     0.000    A    3.50000E-01   2.76144E-01
  opls_825  H825     1.0080     0.000    A    2.50000E-01   1.25520E-01
  opls_814  H814     1.0080     0.000    A    2.50000E-01   1.25520E-01
  opls_821  H821     1.0080     0.000    A    2.50000E-01   1.25520E-01
  opls_820  H820     1.0080     0.000    A    2.50000E-01   1.25520E-01
  opls_811  H811     1.0080     0.000    A    2.50000E-01   1.25520E-01
  opls_810  H810     1.0080     0.000    A    2.50000E-01   1.25520E-01
  opls_816  H816     1.0080     0.000    A    2.50000E-01   1.25520E-01
  opls_800  C800    12.0110     0.000    A    3.50000E-01   2.76144E-01
  opls_806  C806    12.0110     0.000    A    3.50000E-01   2.76144E-01
  opls_823  H823     1.0080     0.000    A    2.50000E-01   1.25520E-01
  opls_826  H826     1.0080     0.000    A    2.50000E-01   1.25520E-01
  opls_819  H819     1.0080     0.000    A    2.50000E-01   1.25520E-01
  opls_804  C804    12.0110     0.000    A    3.50000E-01   2.76144E-01
  opls_808  C808    12.0110     0.000    A    3.50000E-01   2.76144E-01
  opls_817  H817     1.0080     0.000    A    2.50000E-01   1.25520E-01
  opls_812  H812     1.0080     0.000    A    2.50000E-01   1.25520E-01
  opls_809  H809     1.0080     0.000    A    2.50000E-01   1.25520E-01
  opls_807  C807    12.0110     0.000    A    3.50000E-01   2.76144E-01
[ moleculetype ]
; Name               nrexcl
UNK                   3
[ atoms ]
;   nr       type  resnr residue  atom   cgnr     charge       mass  
     1   opls_800      1    UNK   C00      1    -0.2372    12.0110 
     2   opls_801      1    UNK   C01      1    -0.1695    12.0110 
     3   opls_802      1    UNK   C02      1     -0.121    12.0110 
     4   opls_803      1    UNK   C03      1     -0.178    12.0110 
     5   opls_804      1    UNK   C04      1    -0.1785    12.0110 
     6   opls_805      1    UNK   C05      1    -0.1202    12.0110 
     7   opls_806      1    UNK   C06      1      -0.17    12.0110 
     8   opls_807      1    UNK   C07      1    -0.2377    12.0110 
     9   opls_808      1    UNK   C08      1    -0.1779    12.0110 
    10   opls_809      1    UNK   H09      1     0.0807     1.0080 
    11   opls_810      1    UNK   H0A      1     0.0807     1.0080 
    12   opls_811      1    UNK   H0B      1     0.0807     1.0080 
    13   opls_812      1    UNK   H0C      1     0.0877     1.0080 
    14   opls_813      1    UNK   H0D      1     0.0877     1.0080 
    15   opls_814      1    UNK   H0E      1     0.0995     1.0080 
    16   opls_815      1    UNK   H0F      1     0.0944     1.0080 
    17   opls_816      1    UNK   H0G      1     0.0944     1.0080 
    18   opls_817      1    UNK   H0H      1     0.0933     1.0080 
    19   opls_818      1    UNK   H0I      1     0.0933     1.0080 
    20   opls_819      1    UNK   H0J      1     0.0976     1.0080 
    21   opls_820      1    UNK   H0K      1     0.0879     1.0080 
    22   opls_821      1    UNK   H0M      1     0.0879     1.0080 
    23   opls_822      1    UNK   H0N      1     0.0807     1.0080 
    24   opls_823      1    UNK   H0O      1     0.0807     1.0080 
    25   opls_824      1    UNK   H0P      1     0.0807     1.0080 
    26   opls_825      1    UNK   H0Q      1     0.0912     1.0080 
    27   opls_826      1    UNK   H0R      1     0.0912     1.0080 
[ bonds ]
    2     1     1      0.1529 224262.400
    3     2     1      0.1529 224262.400
    4     3     1      0.1529 224262.400
    5     4     1      0.1529 224262.400
    6     5     1      0.1529 224262.400
    7     6     1      0.1529 224262.400
    8     7     1      0.1529 224262.400
    9     3     1      0.1529 224262.400
   10     1     1      0.1090 284512.000
   11     1     1      0.1090 284512.000
   12     1     1      0.1090 284512.000
   13     2     1      0.1090 284512.000
   14     2     1      0.1090 284512.000
   15     3     1      0.1090 284512.000
   16     4     1      0.1090 284512.000
   17     4     1      0.1090 284512.000
   18     5     1      0.1090 284512.000
   19     5     1      0.1090 284512.000
   20     6     1      0.1090 284512.000
   21     7     1      0.1090 284512.000
   22     7     1      0.1090 284512.000
   23     8     1      0.1090 284512.000
   24     8     1      0.1090 284512.000
   25     8     1      0.1090 284512.000
   26     9     1      0.1090 284512.000
   27     9     1      0.1090 284512.000
    9     6     1      0.1529 224262.400

[ angles ]
;  ai    aj    ak funct            c0            c1            c2            c3 
    1     2     3     1    112.700    488.273
    2     3     4     1    112.700    488.273
    3     4     5     1    112.700    488.273
    4     5     6     1    112.700    488.273
    5     6     7     1    112.700    488.273
    6     7     8     1    112.700    488.273
    2     3     9     1    112.700    488.273
    2     1    10     1    110.700    313.800
    2     1    11     1    110.700    313.800
    2     1    12     1    110.700    313.800
    1     2    13     1    110.700    313.800
    1     2    14     1    110.700    313.800
    2     3    15     1    110.700    313.800
    3     4    16     1    110.700    313.800
    3     4    17     1    110.700    313.800
    4     5    18     1    110.700    313.800
    4     5    19     1    110.700    313.800
    5     6    20     1    110.700    313.800
    6     7    21     1    110.700    313.800
    6     7    22     1    110.700    313.800
    7     8    23     1    110.700    313.800
    7     8    24     1    110.700    313.800
    7     8    25     1    110.700    313.800
    3     9    26     1    110.700    313.800
    3     9    27     1    110.700    313.800
   26     9    27     1    107.800    276.144
    6     9    27     1    110.700    313.800
    3     2    14     1    110.700    313.800
    7     6     9     1    112.700    488.273
    3     9     6     1    112.700    488.273
   13     2    14     1    107.800    276.144
    6     5    19     1    110.700    313.800
    5     4    16     1    110.700    313.800
    9     6    20     1    110.700    313.800
   16     4    17     1    107.800    276.144
    4     3     9     1    112.700    488.273
   23     8    25     1    107.800    276.144
   11     1    12     1    107.800    276.144
   21     7    22     1    107.800    276.144
    5     6     9     1    112.700    488.273
   10     1    12     1    107.800    276.144
    8     7    22     1    110.700    313.800
   10     1    11     1    107.800    276.144
    3     2    13     1    110.700    313.800
    8     7    21     1    110.700    313.800
   18     5    19     1    107.800    276.144
   24     8    25     1    107.800    276.144
   23     8    24     1    107.800    276.144
    9     3    15     1    110.700    313.800
    6     9    26     1    110.700    313.800
    4     3    15     1    110.700    313.800
    7     6    20     1    110.700    313.800
    6     5    18     1    110.700    313.800
    5     4    17     1    110.700    313.800

[ dihedrals ]
; IMPROPER DIHEDRAL ANGLES 
;  ai    aj    ak    al funct            c0            c1            c2            c3            c4            c5

[ dihedrals ]
; PROPER DIHEDRAL ANGLES
;  ai    aj    ak    al funct            c0            c1            c2            c3            c4            c5
    4    3    2    1        3       2.301  -1.464   0.837  -1.674  -0.000   0.000
    5    6    9    3        3       2.301  -1.464   0.837  -1.674  -0.000   0.000
    9    3    2    1        3       2.301  -1.464   0.837  -1.674  -0.000   0.000
    9    6    5    4        3       2.301  -1.464   0.837  -1.674  -0.000   0.000
    6    9    3    4        3       2.301  -1.464   0.837  -1.674  -0.000   0.000
    6    9    3    2        3       2.301  -1.464   0.837  -1.674  -0.000   0.000
    7    6    9    3        3       2.301  -1.464   0.837  -1.674  -0.000   0.000
    9    6    7    8        3       2.301  -1.464   0.837  -1.674  -0.000   0.000
    5    4    3    2        3       2.301  -1.464   0.837  -1.674  -0.000   0.000
    6    5    4    3        3       2.301  -1.464   0.837  -1.674  -0.000   0.000
    7    6    5    4        3       2.301  -1.464   0.837  -1.674  -0.000   0.000
    8    7    6    5        3       2.301  -1.464   0.837  -1.674  -0.000   0.000
    9    3    4    5        3       2.301  -1.464   0.837  -1.674  -0.000   0.000
   18    5    4    3        3       0.628   1.883   0.000  -2.510  -0.000   0.000
   27    9    3    4        3       0.628   1.883   0.000  -2.510  -0.000   0.000
   26    9    6    5        3       0.628   1.883   0.000  -2.510  -0.000   0.000
   12    1    2    3        3       0.628   1.883   0.000  -2.510  -0.000   0.000
   19    5    6    7        3       0.628   1.883   0.000  -2.510  -0.000   0.000
   19    5    4    3        3       0.628   1.883   0.000  -2.510  -0.000   0.000
   18    5    6    9        3       0.628   1.883   0.000  -2.510  -0.000   0.000
   27    9    3    2        3       0.628   1.883   0.000  -2.510  -0.000   0.000
   16    4    3    2        3       0.628   1.883   0.000  -2.510  -0.000   0.000
   27    9    6    7        3       0.628   1.883   0.000  -2.510  -0.000   0.000
   20    6    9    3        3       0.628   1.883   0.000  -2.510  -0.000   0.000
   22    7    6    5        3       0.628   1.883   0.000  -2.510  -0.000   0.000
   21    7    6    9        3       0.628   1.883   0.000  -2.510  -0.000   0.000
   17    4    5    6        3       0.628   1.883   0.000  -2.510  -0.000   0.000
   20    6    7    8        3       0.628   1.883   0.000  -2.510  -0.000   0.000
   24    8    7    6        3       0.628   1.883   0.000  -2.510  -0.000   0.000
   15    3    9    6        3       0.628   1.883   0.000  -2.510  -0.000   0.000
   21    7    6    5        3       0.628   1.883   0.000  -2.510  -0.000   0.000
   25    8    7    6        3       0.628   1.883   0.000  -2.510  -0.000   0.000
   26    9    3    2        3       0.628   1.883   0.000  -2.510  -0.000   0.000
   14    2    3    9        3       0.628   1.883   0.000  -2.510  -0.000   0.000
   19    5    6    9        3       0.628   1.883   0.000  -2.510  -0.000   0.000
   26    9    6    7        3       0.628   1.883   0.000  -2.510  -0.000   0.000
   13    2    3    4        3       0.628   1.883   0.000  -2.510  -0.000   0.000
   27    9    6    5        3       0.628   1.883   0.000  -2.510  -0.000   0.000
   14    2    3    4        3       0.628   1.883   0.000  -2.510  -0.000   0.000
   11    1    2    3        3       0.628   1.883   0.000  -2.510  -0.000   0.000
   17    4    3    9        3       0.628   1.883   0.000  -2.510  -0.000   0.000
   22    7    6    9        3       0.628   1.883   0.000  -2.510  -0.000   0.000
   23    8    7    6        3       0.628   1.883   0.000  -2.510  -0.000   0.000
   10    1    2    3        3       0.628   1.883   0.000  -2.510  -0.000   0.000
   15    3    4    5        3       0.628   1.883   0.000  -2.510  -0.000   0.000
   16    4    3    9        3       0.628   1.883   0.000  -2.510  -0.000   0.000
   16    4    5    6        3       0.628   1.883   0.000  -2.510  -0.000   0.000
   13    2    3    9        3       0.628   1.883   0.000  -2.510  -0.000   0.000
   18    5    6    7        3       0.628   1.883   0.000  -2.510  -0.000   0.000
   17    4    3    2        3       0.628   1.883   0.000  -2.510  -0.000   0.000
   15    3    2    1        3       0.628   1.883   0.000  -2.510  -0.000   0.000
   26    9    3    4        3       0.628   1.883   0.000  -2.510  -0.000   0.000
   20    6    5    4        3       0.628   1.883   0.000  -2.510  -0.000   0.000
   15    3    2   13        3       0.628   1.883   0.000  -2.510  -0.000   0.000
   14    2    1   12        3       0.628   1.883   0.000  -2.510  -0.000   0.000
   27    9    6   20        3       0.628   1.883   0.000  -2.510  -0.000   0.000
   18    5    4   16        3       0.628   1.883   0.000  -2.510  -0.000   0.000
   19    5    4   16        3       0.628   1.883   0.000  -2.510  -0.000   0.000
   21    7    6   20        3       0.628   1.883   0.000  -2.510  -0.000   0.000
   15    3    2   14        3       0.628   1.883   0.000  -2.510  -0.000   0.000
   23    8    7   22        3       0.628   1.883   0.000  -2.510  -0.000   0.000
   13    2    1   10        3       0.628   1.883   0.000  -2.510  -0.000   0.000
   20    6    5   18        3       0.628   1.883   0.000  -2.510  -0.000   0.000
   18    5    4   17        3       0.628   1.883   0.000  -2.510  -0.000   0.000
   16    4    3   15        3       0.628   1.883   0.000  -2.510  -0.000   0.000
   24    8    7   21        3       0.628   1.883   0.000  -2.510  -0.000   0.000
   23    8    7   21        3       0.628   1.883   0.000  -2.510  -0.000   0.000
   25    8    7   22        3       0.628   1.883   0.000  -2.510  -0.000   0.000
   13    2    1   11        3       0.628   1.883   0.000  -2.510  -0.000   0.000
   17    4    3   15        3       0.628   1.883   0.000  -2.510  -0.000   0.000
   14    2    1   10        3       0.628   1.883   0.000  -2.510  -0.000   0.000
   19    5    4   17        3       0.628   1.883   0.000  -2.510  -0.000   0.000
   27    9    3   15        3       0.628   1.883   0.000  -2.510  -0.000   0.000
   24    8    7   22        3       0.628   1.883   0.000  -2.510  -0.000   0.000
   26    9    3   15        3       0.628   1.883   0.000  -2.510  -0.000   0.000
   25    8    7   21        3       0.628   1.883   0.000  -2.510  -0.000   0.000
   13    2    1   12        3       0.628   1.883   0.000  -2.510  -0.000   0.000
   26    9    6   20        3       0.628   1.883   0.000  -2.510  -0.000   0.000
   20    6    5   19        3       0.628   1.883   0.000  -2.510  -0.000   0.000
   22    7    6   20        3       0.628   1.883   0.000  -2.510  -0.000   0.000
   14    2    1   11        3       0.628   1.883   0.000  -2.510  -0.000   0.000

[ pairs ]
     1     4    1
     2     5    1
     2     6    1
     3     7    1
     1     9    1
     4     7    1
     5     8    1
     3    10    1
     3    11    1
     3    12    1
     1    15    1
     8     9    1
     4    13    1
     4    14    1
     2    16    1
     2    17    1
     5    15    1
     6    15    1
     3    18    1
     9    13    1
     6    16    1
     3    19    1
    10    13    1
     9    14    1
     6    17    1
     3    20    1
    11    13    1
    10    14    1
     4    20    1
    12    13    1
    11    14    1
     9    16    1
     7    18    1
    12    14    1
     9    17    1
     7    19    1
     5    21    1
     9    18    1
     5    22    1
    13    15    1
     9    19    1
     8    20    1
     2    26    1
    14    15    1
     6    23    1
     2    27    1
     9    21    1
     6    24    1
     4    26    1
    15    16    1
     9    22    1
     6    25    1
     5    26    1
     4    27    1
    15    17    1
     5    27    1
     7    26    1
    16    18    1
     7    27    1
    17    18    1
    16    19    1
    17    19    1
    18    20    1
    19    20    1
    20    21    1
    15    26    1
    20    22    1
    15    27    1
    21    23    1
    22    23    1
    21    24    1
    22    24    1
    21    25    1
    20    26    1
    22    25    1
    20    27    1

