LIGPARGEN GENERATED GRO FILE
   27
    1UNK    C00    1   0.100   0.100   0.000
    1UNK    C01    2  -0.052   0.100   0.000
    1UNK    C02    3  -0.112   0.100   0.141
    1UNK    C03    4  -0.077   0.222   0.225
    1UNK    C04    5  -0.182   0.218   0.335
    1UNK    C05    6  -0.311   0.180   0.261
    1UNK    C06    7  -0.412   0.104   0.347
    1UNK    C07    8  -0.460   0.184   0.467
    1UNK    C08    9  -0.266   0.100   0.139
    1UNK    H09   10   0.137   0.091  -0.102
    1UNK    H0A   11   0.139   0.016   0.058
    1UNK    H0B   12   0.140   0.193   0.042
    1UNK    H0C   13  -0.087   0.011  -0.054
    1UNK    H0D   14  -0.088   0.187  -0.056
    1UNK    H0E   15  -0.078   0.010   0.194
    1UNK    H0F   16  -0.086   0.315   0.167
    1UNK    H0G   17   0.025   0.217   0.266
    1UNK    H0H   18  -0.190   0.314   0.387
    1UNK    H0I   19  -0.155   0.141   0.409
    1UNK    H0J   20  -0.358   0.273   0.226
    1UNK    H0K   21  -0.367   0.010   0.382
    1UNK    H0M   22  -0.499   0.077   0.285
    1UNK    H0N   23  -0.378   0.207   0.535
    1UNK    H0O   24  -0.534   0.126   0.523
    1UNK    H0P   25  -0.507   0.277   0.435
    1UNK    H0Q   26  -0.304   0.148   0.048
    1UNK    H0R   27  -0.304  -0.003   0.139
   1.00000   1.00000   1.00000

