LIGPARGEN GENERATED GRO FILE
   27
    1UNK    C00    1   0.100   0.100   0.000
    1UNK    C01    2  -0.053   0.100   0.000
    1UNK    C02    3  -0.119   0.100   0.140
    1UNK    C03    4  -0.273   0.093   0.128
    1UNK    C04    5  -0.349   0.080   0.260
    1UNK    O05    6  -0.069  -0.010   0.222
    1UNK    C06    7  -0.084  -0.139   0.183
    1UNK    C07    8  -0.023  -0.231   0.285
    1UNK    O08    9  -0.138  -0.177   0.081
    1UNK    S09   10  -0.070   0.256   0.235
    1UNK    C0A   11  -0.124   0.387   0.122
    1UNK    H0B   12   0.137   0.100  -0.103
    1UNK    H0C   13   0.140   0.011   0.050
    1UNK    H0D   14   0.141   0.189   0.049
    1UNK    H0E   15  -0.084   0.011  -0.056
    1UNK    H0F   16  -0.089   0.184  -0.060
    1UNK    H0G   17  -0.301   0.007   0.067
    1UNK    H0H   18  -0.311   0.180   0.073
    1UNK    H0I   19  -0.325  -0.014   0.311
    1UNK    H0J   20  -0.457   0.081   0.241
    1UNK    H0K   21  -0.328   0.163   0.329
    1UNK    H0M   22   0.024  -0.175   0.366
    1UNK    H0N   23   0.053  -0.292   0.237
    1UNK    H0O   24  -0.102  -0.294   0.327
    1UNK    H0P   25  -0.100   0.484   0.168
    1UNK    H0Q   26  -0.232   0.384   0.106
    1UNK    H0R   27  -0.071   0.382   0.027
   1.00000   1.00000   1.00000

