LIGPARGEN GENERATED GRO FILE
   38
    1UNK    C00    1   0.100   0.100   0.000
    1UNK    C01    2  -0.052   0.100   0.000
    1UNK    O02    3  -0.102   0.100   0.134
    1UNK    C03    4  -0.247   0.100   0.151
    1UNK    C04    5  -0.306   0.226   0.085
    1UNK    C05    6  -0.304  -0.027   0.087
    1UNK    C06    7  -0.267   0.101   0.304
    1UNK    S07    8  -0.433   0.108   0.372
    1UNK    O08    9  -0.418   0.116   0.517
    1UNK    O09   10  -0.508   0.211   0.304
    1UNK    C0A   11  -0.513  -0.049   0.341
    1UNK    C0B   12  -0.660  -0.045   0.384
    1UNK    C0C   13  -0.731  -0.176   0.352
    1UNK    C0D   14  -0.879  -0.169   0.386
    1UNK    C0E   15  -0.918  -0.145   0.529
    1UNK    O0F   16  -0.964  -0.188   0.299
    1UNK    H0G   17   0.137   0.100  -0.103
    1UNK    H0H   18   0.139   0.012   0.051
    1UNK    H0I   19   0.139   0.188   0.051
    1UNK    H0J   20  -0.084   0.010  -0.053
    1UNK    H0K   21  -0.086   0.189  -0.054
    1UNK    H0M   22  -0.285   0.230  -0.022
    1UNK    H0N   23  -0.264   0.316   0.130
    1UNK    H0O   24  -0.415   0.229   0.093
    1UNK    H0P   25  -0.270  -0.043  -0.015
    1UNK    H0Q   26  -0.412  -0.022   0.079
    1UNK    H0R   27  -0.274  -0.116   0.144
    1UNK    H0S   28  -0.216   0.189   0.346
    1UNK    H0T   29  -0.218   0.014   0.351
    1UNK    H0U   30  -0.458  -0.126   0.395
    1UNK    H0V   31  -0.511  -0.070   0.235
    1UNK    H0W   32  -0.711   0.037   0.332
    1UNK    H0X   33  -0.666  -0.022   0.491
    1UNK    H0Y   34  -0.687  -0.260   0.406
    1UNK    H0Z   35  -0.723  -0.198   0.244
    1UNK    H10   36  -0.829  -0.139   0.593
    1UNK    H11   37  -0.979  -0.228   0.564
    1UNK    H12   38  -0.973  -0.051   0.536
   1.00000   1.00000   1.00000

