LIGPARGEN GENERATED GRO FILE
   46
    1UNK    C00    1   0.100   0.100   0.000
    1UNK    C01    2  -0.052   0.100   0.000
    1UNK    C02    3  -0.110   0.100   0.142
    1UNK    C03    4  -0.262   0.107   0.134
    1UNK    C04    5  -0.335   0.107   0.269
    1UNK    C05    6  -0.319   0.229   0.367
    1UNK    C06    7  -0.298   0.364   0.294
    1UNK    C07    8  -0.251   0.485   0.377
    1UNK    C08    9  -0.133   0.460   0.469
    1UNK    C09   10  -0.443   0.218   0.467
    1UNK    C0A   11  -0.473   0.346   0.548
    1UNK    C0B   12  -0.414   0.108   0.572
    1UNK    C0C   13  -0.569   0.186   0.381
    1UNK    O0D   14  -0.672   0.128   0.464
    1UNK    C0E   15  -0.793   0.103   0.394
    1UNK    S0F   16  -0.511   0.089   0.241
    1UNK    O0G   17  -0.549   0.160   0.120
    1UNK    O0H   18  -0.544  -0.051   0.259
    1UNK    H0I   19   0.137   0.100  -0.103
    1UNK    H0J   20   0.139   0.011   0.050
    1UNK    H0K   21   0.139   0.189   0.050
    1UNK    H0M   22  -0.088   0.012  -0.055
    1UNK    H0N   23  -0.087   0.188  -0.055
    1UNK    H0O   24  -0.070   0.185   0.198
    1UNK    H0P   25  -0.079   0.009   0.195
    1UNK    H0Q   26  -0.296   0.019   0.078
    1UNK    H0R   27  -0.293   0.193   0.074
    1UNK    H0S   28  -0.305   0.017   0.323
    1UNK    H0T   29  -0.227   0.209   0.423
    1UNK    H0U   30  -0.390   0.391   0.240
    1UNK    H0V   31  -0.221   0.350   0.218
    1UNK    H0W   32  -0.334   0.527   0.435
    1UNK    H0X   33  -0.224   0.565   0.307
    1UNK    H0Y   34  -0.146   0.372   0.532
    1UNK    H0Z   35  -0.120   0.545   0.537
    1UNK    H10   36  -0.040   0.449   0.412
    1UNK    H11   37  -0.386   0.380   0.604
    1UNK    H12   38  -0.554   0.328   0.620
    1UNK    H13   39  -0.509   0.427   0.483
    1UNK    H14   40  -0.322   0.131   0.627
    1UNK    H15   41  -0.403   0.009   0.527
    1UNK    H16   42  -0.495   0.101   0.646
    1UNK    H17   43  -0.608   0.279   0.338
    1UNK    H18   44  -0.865   0.060   0.464
    1UNK    H19   45  -0.778   0.032   0.312
    1UNK    H1A   46  -0.834   0.197   0.355
   1.00000   1.00000   1.00000

