LIGPARGEN GENERATED GRO FILE
   25
    1UNK    C00    1   0.100   0.100   0.000
    1UNK    C01    2  -0.052   0.100   0.000
    1UNK    S02    3  -0.113   0.100   0.171
    1UNK    C03    4  -0.292   0.100   0.141
    1UNK    C04    5  -0.334  -0.026   0.073
    1UNK    C05    6  -0.480  -0.046   0.038
    1UNK    C06    7  -0.379  -0.026  -0.072
    1UNK    C07    8  -0.340  -0.139  -0.162
    1UNK    C08    9  -0.457  -0.192  -0.243
    1UNK    H09   10   0.137   0.100  -0.103
    1UNK    H0A   11   0.140   0.011   0.049
    1UNK    H0B   12   0.140   0.189   0.050
    1UNK    H0C   13  -0.088   0.011  -0.052
    1UNK    H0D   14  -0.089   0.189  -0.052
    1UNK    H0E   15  -0.319   0.190   0.083
    1UNK    H0F   16  -0.341   0.107   0.238
    1UNK    H0G   17  -0.285  -0.114   0.114
    1UNK    H0H   18  -0.549   0.035   0.058
    1UNK    H0I   19  -0.522  -0.145   0.054
    1UNK    H0J   20  -0.384   0.069  -0.126
    1UNK    H0K   21  -0.296  -0.222  -0.104
    1UNK    H0M   22  -0.262  -0.104  -0.231
    1UNK    H0N   23  -0.535  -0.233  -0.178
    1UNK    H0O   24  -0.424  -0.271  -0.310
    1UNK    H0P   25  -0.502  -0.112  -0.303
   1.00000   1.00000   1.00000

