
;
; GENERATED BY LigParGen Server
; Jorgensen Lab @ Yale University 
;
[ atomtypes ]
  opls_814  C814    12.0110     0.000    A    3.50000E-01   2.76144E-01
  opls_824  H824     1.0080     0.000    A    2.50000E-01   1.25520E-01
  opls_815  C815    12.0110     0.000    A    3.50000E-01   2.76144E-01
  opls_804  C804    12.0110     0.000    A    3.50000E-01   2.76144E-01
  opls_816  C816    12.0110     0.000    A    3.55000E-01   2.92880E-01
  opls_843  H843     1.0080     0.000    A    2.50000E-01   1.25520E-01
  opls_836  H836     1.0080     0.000    A    2.50000E-01   1.25520E-01
  opls_834  H834     1.0080     0.000    A    2.50000E-01   1.25520E-01
  opls_828  H828     1.0080     0.000    A    2.50000E-01   1.25520E-01
  opls_851  H851     1.0080     0.000    A    2.50000E-01   1.25520E-01
  opls_812  C812    12.0110     0.000    A    3.50000E-01   2.76144E-01
  opls_811  C811    12.0110     0.000    A    3.50000E-01   2.76144E-01
  opls_827  H827     1.0080     0.000    A    2.50000E-01   1.25520E-01
  opls_809  C809    12.0110     0.000    A    3.50000E-01   2.76144E-01
  opls_838  H838     1.0080     0.000    A    2.50000E-01   1.25520E-01
  opls_822  H822     1.0080     0.000    A    2.50000E-01   1.25520E-01
  opls_803  C803    12.0110     0.000    A    3.50000E-01   2.76144E-01
  opls_830  H830     1.0080     0.000    A    2.50000E-01   1.25520E-01
  opls_821  H821     1.0080     0.000    A    2.50000E-01   1.25520E-01
  opls_842  H842     1.0080     0.000    A    2.50000E-01   1.25520E-01
  opls_820  H820     1.0080     0.000    A    2.50000E-01   1.25520E-01
  opls_837  H837     1.0080     0.000    A    2.50000E-01   1.25520E-01
  opls_829  H829     1.0080     0.000    A    2.50000E-01   1.25520E-01
  opls_831  H831     1.0080     0.000    A    2.50000E-01   1.25520E-01
  opls_805  C805    12.0110     0.000    A    3.55000E-01   2.92880E-01
  opls_832  H832     1.0080     0.000    A    2.50000E-01   1.25520E-01
  opls_800  C800    12.0110     0.000    A    3.50000E-01   2.76144E-01
  opls_846  H846     1.0080     0.000    A    2.50000E-01   1.25520E-01
  opls_848  H848     1.0080     0.000    A    2.50000E-01   1.25520E-01
  opls_802  C802    12.0110     0.000    A    3.50000E-01   2.76144E-01
  opls_823  H823     1.0080     0.000    A    2.50000E-01   1.25520E-01
  opls_819  C819    12.0110     0.000    A    3.50000E-01   2.76144E-01
  opls_826  H826     1.0080     0.000    A    2.50000E-01   1.25520E-01
  opls_835  H835     1.0080     0.000    A    2.50000E-01   1.25520E-01
  opls_841  H841     1.0080     0.000    A    2.50000E-01   1.25520E-01
  opls_847  H847     1.0080     0.000    A    2.50000E-01   1.25520E-01
  opls_825  H825     1.0080     0.000    A    2.50000E-01   1.25520E-01
  opls_810  C810    12.0110     0.000    A    3.50000E-01   2.76144E-01
  opls_833  H833     1.0080     0.000    A    2.50000E-01   1.25520E-01
  opls_839  H839     1.0080     0.000    A    2.50000E-01   1.25520E-01
  opls_801  C801    12.0110     0.000    A    3.50000E-01   2.76144E-01
  opls_808  C808    12.0110     0.000    A    3.50000E-01   2.76144E-01
  opls_850  H850     1.0080     0.000    A    2.50000E-01   1.25520E-01
  opls_806  O806    15.9990     0.000    A    2.96000E-01   8.78640E-01
  opls_840  H840     1.0080     0.000    A    2.50000E-01   1.25520E-01
  opls_849  H849     1.0080     0.000    A    2.50000E-01   1.25520E-01
  opls_813  C813    12.0110     0.000    A    3.50000E-01   2.76144E-01
  opls_817  O817    15.9990     0.000    A    2.96000E-01   8.78640E-01
  opls_844  H844     1.0080     0.000    A    2.50000E-01   1.25520E-01
  opls_845  H845     1.0080     0.000    A    2.50000E-01   1.25520E-01
  opls_818  O818    15.9990     0.000    A    2.90000E-01   5.85760E-01
  opls_807  C807    12.0110     0.000    A    3.50000E-01   2.76144E-01
[ moleculetype ]
; Name               nrexcl
UNK                   3
[ atoms ]
;   nr       type  resnr residue  atom   cgnr     charge       mass  
     1   opls_800      1    UNK   C00      1     -0.239    12.0110 
     2   opls_801      1    UNK   C01      1    -0.1793    12.0110 
     3   opls_802      1    UNK   C02      1    -0.1827    12.0110 
     4   opls_803      1    UNK   C03      1    -0.1701    12.0110 
     5   opls_804      1    UNK   C04      1    -0.2345    12.0110 
     6   opls_805      1    UNK   C05      1     0.3702    12.0110 
     7   opls_806      1    UNK   O06      1    -0.4511    15.9990 
     8   opls_807      1    UNK   C07      1    -0.2203    12.0110 
     9   opls_808      1    UNK   C08      1     -0.019    12.0110 
    10   opls_809      1    UNK   C09      1    -0.2429    12.0110 
    11   opls_810      1    UNK   C0A      1    -0.1715    12.0110 
    12   opls_811      1    UNK   C0B      1    -0.1768    12.0110 
    13   opls_812      1    UNK   C0C      1    -0.1084    12.0110 
    14   opls_813      1    UNK   C0D      1    -0.2346    12.0110 
    15   opls_814      1    UNK   C0E      1    -0.1758    12.0110 
    16   opls_815      1    UNK   C0F      1    -0.2362    12.0110 
    17   opls_816      1    UNK   C0G      1     0.4349    12.0110 
    18   opls_817      1    UNK   O0H      1    -0.4457    15.9990 
    19   opls_818      1    UNK   O0I      1    -0.3639    15.9990 
    20   opls_819      1    UNK   C0J      1    -0.0558    12.0110 
    21   opls_820      1    UNK   H0K      1      0.083     1.0080 
    22   opls_821      1    UNK   H0M      1      0.083     1.0080 
    23   opls_822      1    UNK   H0N      1      0.083     1.0080 
    24   opls_823      1    UNK   H0O      1     0.0881     1.0080 
    25   opls_824      1    UNK   H0P      1     0.0881     1.0080 
    26   opls_825      1    UNK   H0Q      1     0.0966     1.0080 
    27   opls_826      1    UNK   H0R      1     0.0966     1.0080 
    28   opls_827      1    UNK   H0S      1     0.0959     1.0080 
    29   opls_828      1    UNK   H0T      1     0.0959     1.0080 
    30   opls_829      1    UNK   H0U      1     0.1203     1.0080 
    31   opls_830      1    UNK   H0V      1     0.1203     1.0080 
    32   opls_831      1    UNK   H0W      1     0.1315     1.0080 
    33   opls_832      1    UNK   H0X      2     0.1315     1.0080 
    34   opls_833      1    UNK   H0Y      2     0.1016     1.0080 
    35   opls_834      1    UNK   H0Z      2     0.1016     1.0080 
    36   opls_835      1    UNK   H10      2     0.1016     1.0080 
    37   opls_836      1    UNK   H11      2     0.1202     1.0080 
    38   opls_837      1    UNK   H12      2     0.1202     1.0080 
    39   opls_838      1    UNK   H13      2     0.0863     1.0080 
    40   opls_839      1    UNK   H14      2     0.0863     1.0080 
    41   opls_840      1    UNK   H15      2     0.1007     1.0080 
    42   opls_841      1    UNK   H16      2     0.0838     1.0080 
    43   opls_842      1    UNK   H17      2     0.0838     1.0080 
    44   opls_843      1    UNK   H18      2     0.0838     1.0080 
    45   opls_844      1    UNK   H19      2     0.0854     1.0080 
    46   opls_845      1    UNK   H1A      2     0.0854     1.0080 
    47   opls_846      1    UNK   H1B      2     0.0814     1.0080 
    48   opls_847      1    UNK   H1C      2     0.0814     1.0080 
    49   opls_848      1    UNK   H1D      2     0.0814     1.0080 
    50   opls_849      1    UNK   H1E      2     0.1014     1.0080 
    51   opls_850      1    UNK   H1F      2     0.1014     1.0080 
    52   opls_851      1    UNK   H1G      2     0.1014     1.0080 
[ bonds ]
    2     1     1      0.1529 224262.400
    3     2     1      0.1529 224262.400
    4     3     1      0.1529 224262.400
    5     4     1      0.1529 224262.400
    6     5     1      0.1522 265265.600
    7     6     1      0.1229 476976.000
    8     6     1      0.1522 265265.600
    9     8     1      0.1529 224262.400
   10     9     1      0.1529 224262.400
   11     9     1      0.1529 224262.400
   12    11     1      0.1529 224262.400
   13    12     1      0.1529 224262.400
   14    13     1      0.1529 224262.400
   15    13     1      0.1529 224262.400
   16    15     1      0.1529 224262.400
   17     9     1      0.1522 265265.600
   18    17     1      0.1229 476976.000
   19    17     1      0.1327 179075.200
   20    19     1      0.1410 267776.000
   21     1     1      0.1090 284512.000
   22     1     1      0.1090 284512.000
   23     1     1      0.1090 284512.000
   24     2     1      0.1090 284512.000
   25     2     1      0.1090 284512.000
   26     3     1      0.1090 284512.000
   27     3     1      0.1090 284512.000
   28     4     1      0.1090 284512.000
   29     4     1      0.1090 284512.000
   30     5     1      0.1090 284512.000
   31     5     1      0.1090 284512.000
   32     8     1      0.1090 284512.000
   33     8     1      0.1090 284512.000
   34    10     1      0.1090 284512.000
   35    10     1      0.1090 284512.000
   36    10     1      0.1090 284512.000
   37    11     1      0.1090 284512.000
   38    11     1      0.1090 284512.000
   39    12     1      0.1090 284512.000
   40    12     1      0.1090 284512.000
   41    13     1      0.1090 284512.000
   42    14     1      0.1090 284512.000
   43    14     1      0.1090 284512.000
   44    14     1      0.1090 284512.000
   45    15     1      0.1090 284512.000
   46    15     1      0.1090 284512.000
   47    16     1      0.1090 284512.000
   48    16     1      0.1090 284512.000
   49    16     1      0.1090 284512.000
   50    20     1      0.1090 284512.000
   51    20     1      0.1090 284512.000
   52    20     1      0.1090 284512.000

[ angles ]
;  ai    aj    ak funct            c0            c1            c2            c3 
    1     2     3     1    112.700    488.273
    2     3     4     1    112.700    488.273
    3     4     5     1    112.700    488.273
    4     5     6     1    111.100    527.184
    5     6     7     1    120.400    669.440
    5     6     8     1    116.000    585.760
    6     8     9     1    111.100    527.184
    8     9    10     1    112.700    488.273
    8     9    11     1    112.700    488.273
    9    11    12     1    112.700    488.273
   11    12    13     1    112.700    488.273
   12    13    14     1    112.700    488.273
   12    13    15     1    112.700    488.273
   13    15    16     1    112.700    488.273
    8     9    17     1    111.100    527.184
    9    17    18     1    120.400    669.440
    9    17    19     1    111.400    677.808
   17    19    20     1    116.900    694.544
    2     1    21     1    110.700    313.800
    2     1    22     1    110.700    313.800
    2     1    23     1    110.700    313.800
    1     2    24     1    110.700    313.800
    1     2    25     1    110.700    313.800
    2     3    26     1    110.700    313.800
    2     3    27     1    110.700    313.800
    3     4    28     1    110.700    313.800
    3     4    29     1    110.700    313.800
    4     5    30     1    110.700    313.800
    4     5    31     1    110.700    313.800
    6     8    32     1    109.500    292.880
    6     8    33     1    109.500    292.880
    9    10    34     1    110.700    313.800
    9    10    35     1    110.700    313.800
    9    10    36     1    110.700    313.800
    9    11    37     1    110.700    313.800
    9    11    38     1    110.700    313.800
   11    12    39     1    110.700    313.800
   11    12    40     1    110.700    313.800
   12    13    41     1    110.700    313.800
   13    14    42     1    110.700    313.800
   13    14    43     1    110.700    313.800
   13    14    44     1    110.700    313.800
   13    15    45     1    110.700    313.800
   13    15    46     1    110.700    313.800
   15    16    47     1    110.700    313.800
   15    16    48     1    110.700    313.800
   15    16    49     1    110.700    313.800
   19    20    50     1    109.500    292.880
   19    20    51     1    109.500    292.880
   19    20    52     1    109.500    292.880
   12    11    37     1    110.700    313.800
   39    12    40     1    107.800    276.144
   47    16    48     1    107.800    276.144
   43    14    44     1    107.800    276.144
   11     9    17     1    111.100    527.184
   14    13    15     1    112.700    488.273
   50    20    52     1    107.800    276.144
   14    13    41     1    110.700    313.800
   35    10    36     1    107.800    276.144
   12    11    38     1    110.700    313.800
   16    15    46     1    110.700    313.800
   34    10    35     1    107.800    276.144
   16    15    45     1    110.700    313.800
    6     5    30     1    109.500    292.880
   45    15    46     1    107.800    276.144
    3     2    25     1    110.700    313.800
    5     4    28     1    110.700    313.800
   10     9    17     1    111.100    527.184
   42    14    44     1    107.800    276.144
   48    16    49     1    107.800    276.144
   32     8    33     1    107.800    276.144
   47    16    49     1    107.800    276.144
   13    12    39     1    110.700    313.800
   50    20    51     1    107.800    276.144
   42    14    43     1    107.800    276.144
    4     3    27     1    110.700    313.800
   21     1    23     1    107.800    276.144
   51    20    52     1    107.800    276.144
   24     2    25     1    107.800    276.144
   21     1    22     1    107.800    276.144
    9     8    33     1    110.700    313.800
    6     5    31     1    109.500    292.880
   34    10    36     1    107.800    276.144
    4     3    26     1    110.700    313.800
   13    12    40     1    110.700    313.800
    9     8    32     1    110.700    313.800
   37    11    38     1    107.800    276.144
    5     4    29     1    110.700    313.800
   28     4    29     1    107.800    276.144
   26     3    27     1    107.800    276.144
   22     1    23     1    107.800    276.144
   15    13    41     1    110.700    313.800
   18    17    19     1    123.400    694.544
    7     6     8     1    120.400    669.440
   10     9    11     1    112.700    488.273
    3     2    24     1    110.700    313.800
   30     5    31     1    107.800    276.144

[ dihedrals ]
; IMPROPER DIHEDRAL ANGLES 
;  ai    aj    ak    al funct            c0            c1            c2            c3            c4            c5
     8     6     5     7    4        180.000     43.932     2  
    19    17     9    18    4        180.000     43.932     2  

[ dihedrals ]
; PROPER DIHEDRAL ANGLES
;  ai    aj    ak    al funct            c0            c1            c2            c3            c4            c5
   17    9    8    6        3       0.941   7.427   0.000  -8.368  -0.000   0.000
    6    5    4    3        3      -4.960   6.286   1.310  -2.636  -0.000   0.000
   17    9   11   12        3      -4.960   6.286   1.310  -2.636  -0.000   0.000
    8    6    5    4        3       0.818  -7.906   0.602   6.485  -0.000   0.000
    9    8    6    5        3       0.818  -7.906   0.602   6.485  -0.000   0.000
    9    8    6    7        3       0.000   0.000   0.000  -0.000  -0.000   0.000
   11    9    8    6        3      -4.960   6.286   1.310  -2.636  -0.000   0.000
   10    9    8    6        3      -4.960   6.286   1.310  -2.636  -0.000   0.000
   12   11    9   10        3       2.301  -1.464   0.837  -1.674  -0.000   0.000
   16   15   13   14        3       2.301  -1.464   0.837  -1.674  -0.000   0.000
   15   13   12   11        3       2.301  -1.464   0.837  -1.674  -0.000   0.000
    4    3    2    1        3       2.301  -1.464   0.837  -1.674  -0.000   0.000
    5    4    3    2        3       2.301  -1.464   0.837  -1.674  -0.000   0.000
   14   13   12   11        3       2.301  -1.464   0.837  -1.674  -0.000   0.000
   13   12   11    9        3       2.301  -1.464   0.837  -1.674  -0.000   0.000
   12   11    9    8        3       2.301  -1.464   0.837  -1.674  -0.000   0.000
   16   15   13   12        3       2.301  -1.464   0.837  -1.674  -0.000   0.000
   20   19   17    9        3      31.206  -9.768  -21.439  -0.000  -0.000   0.000
   20   19   17   18        3      21.439   0.000  -21.439  -0.000  -0.000   0.000
   30    5    6    8        3       0.575   1.726   0.000  -2.301  -0.000   0.000
   32    8    6    5        3       0.575   1.726   0.000  -2.301  -0.000   0.000
   33    8    6    5        3       0.575   1.726   0.000  -2.301  -0.000   0.000
   31    5    6    8        3       0.575   1.726   0.000  -2.301  -0.000   0.000
   31    5    6    7        3       0.000   0.000   0.000  -0.000  -0.000   0.000
   33    8    6    7        3       0.000   0.000   0.000  -0.000  -0.000   0.000
   32    8    6    7        3       0.000   0.000   0.000  -0.000  -0.000   0.000
   30    5    6    7        3       0.000   0.000   0.000  -0.000  -0.000   0.000
   28    4    5    6        3      -0.209  -0.628   0.000   0.837  -0.000   0.000
   29    4    5    6        3      -0.209  -0.628   0.000   0.837  -0.000   0.000
   33    8    9   17        3      -0.209  -0.628   0.000   0.837  -0.000   0.000
   36   10    9   17        3      -0.209  -0.628   0.000   0.837  -0.000   0.000
   38   11    9   17        3      -0.209  -0.628   0.000   0.837  -0.000   0.000
   34   10    9   17        3      -0.209  -0.628   0.000   0.837  -0.000   0.000
   32    8    9   17        3      -0.209  -0.628   0.000   0.837  -0.000   0.000
   37   11    9   17        3      -0.209  -0.628   0.000   0.837  -0.000   0.000
   35   10    9   17        3      -0.209  -0.628   0.000   0.837  -0.000   0.000
   36   10    9   11        3       0.628   1.883   0.000  -2.510  -0.000   0.000
   44   14   13   12        3       0.628   1.883   0.000  -2.510  -0.000   0.000
   44   14   13   15        3       0.628   1.883   0.000  -2.510  -0.000   0.000
   29    4    3    2        3       0.628   1.883   0.000  -2.510  -0.000   0.000
   38   11    9    8        3       0.628   1.883   0.000  -2.510  -0.000   0.000
   45   15   13   12        3       0.628   1.883   0.000  -2.510  -0.000   0.000
   34   10    9   11        3       0.628   1.883   0.000  -2.510  -0.000   0.000
   41   13   15   16        3       0.628   1.883   0.000  -2.510  -0.000   0.000
   41   13   12   11        3       0.628   1.883   0.000  -2.510  -0.000   0.000
   30    5    4    3        3       0.628   1.883   0.000  -2.510  -0.000   0.000
   37   11   12   13        3       0.628   1.883   0.000  -2.510  -0.000   0.000
   36   10    9    8        3       0.628   1.883   0.000  -2.510  -0.000   0.000
   43   14   13   12        3       0.628   1.883   0.000  -2.510  -0.000   0.000
   32    8    9   11        3       0.628   1.883   0.000  -2.510  -0.000   0.000
   33    8    9   10        3       0.628   1.883   0.000  -2.510  -0.000   0.000
   48   16   15   13        3       0.628   1.883   0.000  -2.510  -0.000   0.000
   40   12   13   15        3       0.628   1.883   0.000  -2.510  -0.000   0.000
   42   14   13   15        3       0.628   1.883   0.000  -2.510  -0.000   0.000
   39   12   11    9        3       0.628   1.883   0.000  -2.510  -0.000   0.000
   25    2    3    4        3       0.628   1.883   0.000  -2.510  -0.000   0.000
   45   15   13   14        3       0.628   1.883   0.000  -2.510  -0.000   0.000
   26    3    4    5        3       0.628   1.883   0.000  -2.510  -0.000   0.000
   32    8    9   10        3       0.628   1.883   0.000  -2.510  -0.000   0.000
   39   12   13   15        3       0.628   1.883   0.000  -2.510  -0.000   0.000
   22    1    2    3        3       0.628   1.883   0.000  -2.510  -0.000   0.000
   33    8    9   11        3       0.628   1.883   0.000  -2.510  -0.000   0.000
   46   15   13   12        3       0.628   1.883   0.000  -2.510  -0.000   0.000
   46   15   13   14        3       0.628   1.883   0.000  -2.510  -0.000   0.000
   31    5    4    3        3       0.628   1.883   0.000  -2.510  -0.000   0.000
   24    2    3    4        3       0.628   1.883   0.000  -2.510  -0.000   0.000
   27    3    2    1        3       0.628   1.883   0.000  -2.510  -0.000   0.000
   49   16   15   13        3       0.628   1.883   0.000  -2.510  -0.000   0.000
   38   11   12   13        3       0.628   1.883   0.000  -2.510  -0.000   0.000
   40   12   13   14        3       0.628   1.883   0.000  -2.510  -0.000   0.000
   37   11    9   10        3       0.628   1.883   0.000  -2.510  -0.000   0.000
   43   14   13   15        3       0.628   1.883   0.000  -2.510  -0.000   0.000
   34   10    9    8        3       0.628   1.883   0.000  -2.510  -0.000   0.000
   35   10    9    8        3       0.628   1.883   0.000  -2.510  -0.000   0.000
   35   10    9   11        3       0.628   1.883   0.000  -2.510  -0.000   0.000
   28    4    3    2        3       0.628   1.883   0.000  -2.510  -0.000   0.000
   40   12   11    9        3       0.628   1.883   0.000  -2.510  -0.000   0.000
   27    3    4    5        3       0.628   1.883   0.000  -2.510  -0.000   0.000
   37   11    9    8        3       0.628   1.883   0.000  -2.510  -0.000   0.000
   39   12   13   14        3       0.628   1.883   0.000  -2.510  -0.000   0.000
   23    1    2    3        3       0.628   1.883   0.000  -2.510  -0.000   0.000
   47   16   15   13        3       0.628   1.883   0.000  -2.510  -0.000   0.000
   26    3    2    1        3       0.628   1.883   0.000  -2.510  -0.000   0.000
   21    1    2    3        3       0.628   1.883   0.000  -2.510  -0.000   0.000
   42   14   13   12        3       0.628   1.883   0.000  -2.510  -0.000   0.000
   38   11    9   10        3       0.628   1.883   0.000  -2.510  -0.000   0.000
   26    3    2   24        3       0.628   1.883   0.000  -2.510  -0.000   0.000
   43   14   13   41        3       0.628   1.883   0.000  -2.510  -0.000   0.000
   48   16   15   46        3       0.628   1.883   0.000  -2.510  -0.000   0.000
   47   16   15   46        3       0.628   1.883   0.000  -2.510  -0.000   0.000
   24    2    1   23        3       0.628   1.883   0.000  -2.510  -0.000   0.000
   25    2    1   22        3       0.628   1.883   0.000  -2.510  -0.000   0.000
   48   16   15   45        3       0.628   1.883   0.000  -2.510  -0.000   0.000
   29    4    3   27        3       0.628   1.883   0.000  -2.510  -0.000   0.000
   30    5    4   28        3       0.628   1.883   0.000  -2.510  -0.000   0.000
   27    3    2   25        3       0.628   1.883   0.000  -2.510  -0.000   0.000
   26    3    2   25        3       0.628   1.883   0.000  -2.510  -0.000   0.000
   47   16   15   45        3       0.628   1.883   0.000  -2.510  -0.000   0.000
   25    2    1   23        3       0.628   1.883   0.000  -2.510  -0.000   0.000
   40   12   11   37        3       0.628   1.883   0.000  -2.510  -0.000   0.000
   31    5    4   28        3       0.628   1.883   0.000  -2.510  -0.000   0.000
   30    5    4   29        3       0.628   1.883   0.000  -2.510  -0.000   0.000
   25    2    1   21        3       0.628   1.883   0.000  -2.510  -0.000   0.000
   49   16   15   46        3       0.628   1.883   0.000  -2.510  -0.000   0.000
   46   15   13   41        3       0.628   1.883   0.000  -2.510  -0.000   0.000
   27    3    2   24        3       0.628   1.883   0.000  -2.510  -0.000   0.000
   40   12   11   38        3       0.628   1.883   0.000  -2.510  -0.000   0.000
   41   13   12   39        3       0.628   1.883   0.000  -2.510  -0.000   0.000
   28    4    3   27        3       0.628   1.883   0.000  -2.510  -0.000   0.000
   24    2    1   22        3       0.628   1.883   0.000  -2.510  -0.000   0.000
   29    4    3   26        3       0.628   1.883   0.000  -2.510  -0.000   0.000
   24    2    1   21        3       0.628   1.883   0.000  -2.510  -0.000   0.000
   42   14   13   41        3       0.628   1.883   0.000  -2.510  -0.000   0.000
   39   12   11   37        3       0.628   1.883   0.000  -2.510  -0.000   0.000
   39   12   11   38        3       0.628   1.883   0.000  -2.510  -0.000   0.000
   41   13   12   40        3       0.628   1.883   0.000  -2.510  -0.000   0.000
   28    4    3   26        3       0.628   1.883   0.000  -2.510  -0.000   0.000
   49   16   15   45        3       0.628   1.883   0.000  -2.510  -0.000   0.000
   31    5    4   29        3       0.628   1.883   0.000  -2.510  -0.000   0.000
   44   14   13   41        3       0.628   1.883   0.000  -2.510  -0.000   0.000
   45   15   13   41        3       0.628   1.883   0.000  -2.510  -0.000   0.000
   52   20   19   17        3       0.414   1.243   0.000  -1.657  -0.000   0.000
   50   20   19   17        3       0.414   1.243   0.000  -1.657  -0.000   0.000
   51   20   19   17        3       0.414   1.243   0.000  -1.657  -0.000   0.000
   18   17    9    8        3       0.000   0.000   0.000  -0.000  -0.000   0.000
    7    6    5    4        3       0.000   0.000   0.000  -0.000  -0.000   0.000
   18   17    9   10        3       0.000   0.000   0.000  -0.000  -0.000   0.000
   18   17    9   11        3       0.000   0.000   0.000  -0.000  -0.000   0.000
   19   17    9   10        3      -1.157  -3.471   0.000   4.628  -0.000   0.000
   19   17    9   11        3      -1.157  -3.471   0.000   4.628  -0.000   0.000
   19   17    9    8        3      -1.157  -3.471   0.000   4.628  -0.000   0.000

[ pairs ]
     1     4    1
     2     5    1
     3     6    1
     4     7    1
     4     8    1
     5     9    1
     7     9    1
     6    10    1
     6    11    1
     8    12    1
    10    12    1
     9    13    1
     6    17    1
     3    21    1
    11    14    1
     3    22    1
    11    15    1
     8    18    1
     3    23    1
     8    19    1
     1    26    1
    12    16    1
    10    18    1
     4    24    1
     1    27    1
    12    17    1
    11    18    1
    10    19    1
     9    20    1
     4    25    1
    14    16    1
    11    19    1
     2    28    1
     5    26    1
     2    29    1
     5    27    1
     3    30    1
     6    28    1
     3    31    1
     6    29    1
     7    30    1
     5    32    1
    18    20    1
     8    30    1
     7    31    1
     5    33    1
     8    31    1
     7    32    1
     7    33    1
    10    32    1
     8    34    1
    11    32    1
    10    33    1
     8    35    1
    11    33    1
     8    36    1
    21    24    1
    11    34    1
     8    37    1
    22    24    1
    21    25    1
    11    35    1
     8    38    1
    23    24    1
    22    25    1
    11    36    1
    10    37    1
    23    25    1
    10    38    1
     9    39    1
    17    32    1
     9    40    1
    24    26    1
    17    33    1
    13    37    1
    25    26    1
    24    27    1
    17    34    1
    13    38    1
    25    27    1
    17    35    1
    11    41    1
    17    36    1
    14    39    1
    26    28    1
    17    37    1
    15    39    1
    14    40    1
    12    42    1
    27    28    1
    26    29    1
    17    38    1
    15    40    1
    12    43    1
    27    29    1
    12    44    1
    16    41    1
    15    42    1
    12    45    1
    28    30    1
    15    43    1
    12    46    1
    29    30    1
    28    31    1
    15    44    1
    14    45    1
    29    31    1
    14    46    1
    13    47    1
    13    48    1
    13    49    1
    17    50    1
    17    51    1
    17    52    1
    37    39    1
    38    39    1
    37    40    1
    38    40    1
    39    41    1
    40    41    1
    41    42    1
    41    43    1
    41    44    1
    41    45    1
    41    46    1
    45    47    1
    46    47    1
    45    48    1
    46    48    1
    45    49    1
    46    49    1

