LIGPARGEN GENERATED GRO FILE
   52
    1UNK    C00    1   0.100   0.100   0.000
    1UNK    C01    2  -0.052   0.100   0.000
    1UNK    C02    3  -0.108   0.100   0.142
    1UNK    C03    4  -0.261   0.100   0.142
    1UNK    C04    5  -0.319   0.100   0.284
    1UNK    C05    6  -0.282   0.224   0.364
    1UNK    O06    7  -0.219   0.213   0.469
    1UNK    C07    8  -0.327   0.358   0.308
    1UNK    C08    9  -0.342   0.476   0.406
    1UNK    C09   10  -0.442   0.438   0.517
    1UNK    C0A   11  -0.208   0.521   0.470
    1UNK    C0B   12  -0.103   0.569   0.369
    1UNK    C0C   13   0.032   0.615   0.430
    1UNK    C0D   14   0.102   0.501   0.503
    1UNK    C0E   15   0.119   0.673   0.316
    1UNK    C0F   16   0.256   0.723   0.358
    1UNK    C0G   17  -0.403   0.598   0.334
    1UNK    O0H   18  -0.434   0.702   0.390
    1UNK    O0I   19  -0.418   0.575   0.201
    1UNK    C0J   20  -0.474   0.684   0.127
    1UNK    H0K   21   0.138   0.100  -0.103
    1UNK    H0M   22   0.139   0.011   0.051
    1UNK    H0N   23   0.139   0.189   0.051
    1UNK    H0O   24  -0.088   0.012  -0.054
    1UNK    H0P   25  -0.088   0.188  -0.054
    1UNK    H0Q   26  -0.070   0.188   0.196
    1UNK    H0R   27  -0.071   0.012   0.196
    1UNK    H0S   28  -0.297   0.011   0.090
    1UNK    H0T   29  -0.297   0.187   0.086
    1UNK    H0U   30  -0.285   0.011   0.338
    1UNK    H0V   31  -0.428   0.095   0.279
    1UNK    H0W   32  -0.425   0.339   0.261
    1UNK    H0X   33  -0.258   0.383   0.226
    1UNK    H0Y   34  -0.405   0.356   0.580
    1UNK    H0Z   35  -0.538   0.406   0.474
    1UNK    H10   36  -0.463   0.522   0.584
    1UNK    H11   37  -0.167   0.439   0.530
    1UNK    H12   38  -0.227   0.603   0.541
    1UNK    H13   39  -0.145   0.654   0.313
    1UNK    H14   40  -0.082   0.490   0.296
    1UNK    H15   41   0.012   0.695   0.503
    1UNK    H16   42   0.122   0.417   0.435
    1UNK    H17   43   0.042   0.463   0.587
    1UNK    H18   44   0.198   0.533   0.546
    1UNK    H19   45   0.065   0.756   0.270
    1UNK    H1A   46   0.132   0.597   0.238
    1UNK    H1B   47   0.247   0.797   0.438
    1UNK    H1C   48   0.306   0.770   0.273
    1UNK    H1D   49   0.320   0.641   0.392
    1UNK    H1E   50  -0.488   0.651   0.024
    1UNK    H1F   51  -0.405   0.769   0.127
    1UNK    H1G   52  -0.572   0.712   0.168
   1.00000   1.00000   1.00000

