
;
; GENERATED BY LigParGen Server
; Jorgensen Lab @ Yale University 
;
[ atomtypes ]
  opls_818  H818     1.0080     0.000    A    2.50000E-01   1.25520E-01
  opls_824  H824     1.0080     0.000    A    2.50000E-01   1.25520E-01
  opls_805  C805    12.0110     0.000    A    3.50000E-01   2.76144E-01
  opls_816  O816    15.9990     0.000    A    2.96000E-01   7.11280E-01
  opls_836  H836     1.0080     0.000    A    2.50000E-01   1.25520E-01
  opls_834  H834     1.0080     0.000    A    2.50000E-01   1.25520E-01
  opls_810  C810    12.0110     0.000    A    3.50000E-01   2.76144E-01
  opls_828  H828     1.0080     0.000    A    2.50000E-01   1.25520E-01
  opls_801  O801    15.9990     0.000    A    2.90000E-01   5.85760E-01
  opls_802  C802    12.0110     0.000    A    3.50000E-01   2.76144E-01
  opls_827  H827     1.0080     0.000    A    2.50000E-01   1.25520E-01
  opls_809  C809    12.0110     0.000    A    3.50000E-01   2.76144E-01
  opls_806  C806    12.0110     0.000    A    3.50000E-01   2.76144E-01
  opls_822  H822     1.0080     0.000    A    2.50000E-01   1.25520E-01
  opls_803  C803    12.0110     0.000    A    3.50000E-01   2.76144E-01
  opls_838  H838     1.0080     0.000    A    2.50000E-01   1.25520E-01
  opls_825  H825     1.0080     0.000    A    2.50000E-01   1.25520E-01
  opls_830  H830     1.0080     0.000    A    2.50000E-01   1.25520E-01
  opls_821  H821     1.0080     0.000    A    2.50000E-01   1.25520E-01
  opls_842  H842     1.0080     0.000    A    2.50000E-01   1.25520E-01
  opls_820  H820     1.0080     0.000    A    2.50000E-01   1.25520E-01
  opls_837  H837     1.0080     0.000    A    2.50000E-01   1.25520E-01
  opls_814  S814    32.0600     0.000    A    3.55000E-01   1.04600E+00
  opls_831  H831     1.0080     0.000    A    2.50000E-01   1.25520E-01
  opls_832  H832     1.0080     0.000    A    2.50000E-01   1.25520E-01
  opls_800  C800    12.0110     0.000    A    3.50000E-01   2.76144E-01
  opls_811  C811    12.0110     0.000    A    3.50000E-01   2.76144E-01
  opls_823  H823     1.0080     0.000    A    2.50000E-01   1.25520E-01
  opls_813  C813    12.0110     0.000    A    3.50000E-01   2.76144E-01
  opls_826  H826     1.0080     0.000    A    2.50000E-01   1.25520E-01
  opls_835  H835     1.0080     0.000    A    2.50000E-01   1.25520E-01
  opls_841  H841     1.0080     0.000    A    2.50000E-01   1.25520E-01
  opls_819  H819     1.0080     0.000    A    2.50000E-01   1.25520E-01
  opls_804  C804    12.0110     0.000    A    3.50000E-01   2.76144E-01
  opls_833  H833     1.0080     0.000    A    2.50000E-01   1.25520E-01
  opls_839  H839     1.0080     0.000    A    2.50000E-01   1.25520E-01
  opls_812  C812    12.0110     0.000    A    3.50000E-01   2.76144E-01
  opls_808  C808    12.0110     0.000    A    3.50000E-01   2.76144E-01
  opls_817  H817     1.0080     0.000    A    2.50000E-01   1.25520E-01
  opls_815  O815    15.9990     0.000    A    2.96000E-01   7.11280E-01
  opls_829  H829     1.0080     0.000    A    2.50000E-01   1.25520E-01
  opls_840  H840     1.0080     0.000    A    2.50000E-01   1.25520E-01
  opls_807  C807    12.0110     0.000    A    3.50000E-01   2.76144E-01
[ moleculetype ]
; Name               nrexcl
UNK                   3
[ atoms ]
;   nr       type  resnr residue  atom   cgnr     charge       mass  
     1   opls_800      1    UNK   C00      1    -0.0509    12.0110 
     2   opls_801      1    UNK   O01      1    -0.3797    15.9990 
     3   opls_802      1    UNK   C02      1      0.017    12.0110 
     4   opls_803      1    UNK   C03      1    -0.0733    12.0110 
     5   opls_804      1    UNK   C04      1    -0.2475    12.0110 
     6   opls_805      1    UNK   C05      1    -0.3197    12.0110 
     7   opls_806      1    UNK   C06      1    -0.2071    12.0110 
     8   opls_807      1    UNK   C07      1    -0.1791    12.0110 
     9   opls_808      1    UNK   C08      1    -0.1745    12.0110 
    10   opls_809      1    UNK   C09      1    -0.3009    12.0110 
    11   opls_810      1    UNK   C0A      1    -0.2045    12.0110 
    12   opls_811      1    UNK   C0B      1     -0.074    12.0110 
    13   opls_812      1    UNK   C0C      1    -0.2278    12.0110 
    14   opls_813      1    UNK   C0D      1    -0.2472    12.0110 
    15   opls_814      1    UNK   S0E      1     1.2555    32.0600 
    16   opls_815      1    UNK   O0F      1    -0.5693    15.9990 
    17   opls_816      1    UNK   O0G      1    -0.5693    15.9990 
    18   opls_817      1    UNK   H0H      1     0.0825     1.0080 
    19   opls_818      1    UNK   H0I      1     0.0825     1.0080 
    20   opls_819      1    UNK   H0J      1     0.0825     1.0080 
    21   opls_820      1    UNK   H0K      1     0.0758     1.0080 
    22   opls_821      1    UNK   H0M      1     0.0758     1.0080 
    23   opls_822      1    UNK   H0N      1     0.1329     1.0080 
    24   opls_823      1    UNK   H0O      1     0.0979     1.0080 
    25   opls_824      1    UNK   H0P      1     0.0979     1.0080 
    26   opls_825      1    UNK   H0Q      1     0.0979     1.0080 
    27   opls_826      1    UNK   H0R      1     0.1014     1.0080 
    28   opls_827      1    UNK   H0S      1     0.1014     1.0080 
    29   opls_828      1    UNK   H0T      1     0.1014     1.0080 
    30   opls_829      1    UNK   H0U      1     0.1177     1.0080 
    31   opls_830      1    UNK   H0V      1     0.1177     1.0080 
    32   opls_831      1    UNK   H0W      1     0.1165     1.0080 
    33   opls_832      1    UNK   H0X      2     0.1165     1.0080 
    34   opls_833      1    UNK   H0Y      2     0.1017     1.0080 
    35   opls_834      1    UNK   H0Z      2     0.1017     1.0080 
    36   opls_835      1    UNK   H10      2     0.1017     1.0080 
    37   opls_836      1    UNK   H11      2     0.1149     1.0080 
    38   opls_837      1    UNK   H12      2     0.0848     1.0080 
    39   opls_838      1    UNK   H13      2     0.0848     1.0080 
    40   opls_839      1    UNK   H14      2     0.0848     1.0080 
    41   opls_840      1    UNK   H15      2     0.0933     1.0080 
    42   opls_841      1    UNK   H16      2     0.0933     1.0080 
    43   opls_842      1    UNK   H17      2     0.0933     1.0080 
[ bonds ]
    2     1     1      0.1410 267776.000
    3     2     1      0.1410 267776.000
    4     3     1      0.1529 224262.400
    5     4     1      0.1529 224262.400
    6     4     1      0.1529 224262.400
    7     6     1      0.1529 224262.400
    8     6     1      0.1529 224262.400
    9     8     1      0.1529 224262.400
   10     9     1      0.1529 224262.400
   11    10     1      0.1529 224262.400
   12    10     1      0.1529 224262.400
   13    12     1      0.1529 224262.400
   14    12     1      0.1529 224262.400
   15     6     1      0.1770 284512.000
   16    15     1      0.1440 585760.000
   17    15     1      0.1440 585760.000
   18     1     1      0.1090 284512.000
   19     1     1      0.1090 284512.000
   20     1     1      0.1090 284512.000
   21     3     1      0.1090 284512.000
   22     3     1      0.1090 284512.000
   23     4     1      0.1090 284512.000
   24     5     1      0.1090 284512.000
   25     5     1      0.1090 284512.000
   26     5     1      0.1090 284512.000
   27     7     1      0.1090 284512.000
   28     7     1      0.1090 284512.000
   29     7     1      0.1090 284512.000
   30     8     1      0.1090 284512.000
   31     8     1      0.1090 284512.000
   32     9     1      0.1090 284512.000
   33     9     1      0.1090 284512.000
   34    11     1      0.1090 284512.000
   35    11     1      0.1090 284512.000
   36    11     1      0.1090 284512.000
   37    12     1      0.1090 284512.000
   38    13     1      0.1090 284512.000
   39    13     1      0.1090 284512.000
   40    13     1      0.1090 284512.000
   41    14     1      0.1090 284512.000
   42    14     1      0.1090 284512.000
   43    14     1      0.1090 284512.000
   15    10     1      0.1770 284512.000

[ angles ]
;  ai    aj    ak funct            c0            c1            c2            c3 
    1     2     3     1    109.500    502.080
    2     3     4     1    109.500    418.400
    3     4     5     1    112.700    488.273
    3     4     6     1    112.700    488.273
    4     6     7     1    112.700    488.273
    4     6     8     1    112.700    488.273
    6     8     9     1    112.700    488.273
    8     9    10     1    112.700    488.273
    9    10    11     1    112.700    488.273
    9    10    12     1    112.700    488.273
   10    12    13     1    112.700    488.273
   10    12    14     1    112.700    488.273
    4     6    15     1    108.600    418.400
    6    15    16     1    108.900    619.232
    6    15    17     1    108.900    619.232
    2     1    18     1    109.500    292.880
    2     1    19     1    109.500    292.880
    2     1    20     1    109.500    292.880
    2     3    21     1    109.500    292.880
    2     3    22     1    109.500    292.880
    3     4    23     1    110.700    313.800
    4     5    24     1    110.700    313.800
    4     5    25     1    110.700    313.800
    4     5    26     1    110.700    313.800
    6     7    27     1    110.700    313.800
    6     7    28     1    110.700    313.800
    6     7    29     1    110.700    313.800
    6     8    30     1    110.700    313.800
    6     8    31     1    110.700    313.800
    8     9    32     1    110.700    313.800
    8     9    33     1    110.700    313.800
   10    11    34     1    110.700    313.800
   10    11    35     1    110.700    313.800
   10    11    36     1    110.700    313.800
   10    12    37     1    110.700    313.800
   12    13    38     1    110.700    313.800
   12    13    39     1    110.700    313.800
   12    13    40     1    110.700    313.800
   12    14    41     1    110.700    313.800
   12    14    42     1    110.700    313.800
   12    14    43     1    110.700    313.800
    9     8    30     1    110.700    313.800
   39    13    40     1    107.800    276.144
    5     4     6     1    112.700    488.273
   41    14    43     1    107.800    276.144
   11    10    15     1    108.600    418.400
   13    12    37     1    110.700    313.800
   32     9    33     1    107.800    276.144
   24     5    26     1    107.800    276.144
   11    10    12     1    112.700    488.273
   10    15    17     1    108.900    619.232
   28     7    29     1    107.800    276.144
   35    11    36     1    107.800    276.144
    4     3    22     1    110.700    313.800
    9     8    31     1    110.700    313.800
   38    13    39     1    107.800    276.144
    6    15    10     1    102.000    518.816
   21     3    22     1    107.800    276.144
   13    12    14     1    112.700    488.273
    5     4    23     1    110.700    313.800
   24     5    25     1    107.800    276.144
   34    11    36     1    107.800    276.144
   18     1    19     1    107.800    276.144
   34    11    35     1    107.800    276.144
   42    14    43     1    107.800    276.144
   10     9    33     1    110.700    313.800
    7     6    15     1    108.600    418.400
   14    12    37     1    110.700    313.800
   25     5    26     1    107.800    276.144
   27     7    28     1    107.800    276.144
    7     6     8     1    112.700    488.273
    9    10    15     1    108.600    418.400
    4     3    21     1    110.700    313.800
   41    14    42     1    107.800    276.144
    6     4    23     1    110.700    313.800
   18     1    20     1    107.800    276.144
    8     6    15     1    108.600    418.400
   30     8    31     1    107.800    276.144
   12    10    15     1    108.600    418.400
   19     1    20     1    107.800    276.144
   10     9    32     1    110.700    313.800
   10    15    16     1    108.900    619.232
   38    13    40     1    107.800    276.144
   16    15    17     1    119.000    870.272
   27     7    29     1    107.800    276.144

[ dihedrals ]
; IMPROPER DIHEDRAL ANGLES 
;  ai    aj    ak    al funct            c0            c1            c2            c3            c4            c5

[ dihedrals ]
; PROPER DIHEDRAL ANGLES
;  ai    aj    ak    al funct            c0            c1            c2            c3            c4            c5
    7    6    4    5        3       2.301  -1.464   0.837  -1.674  -0.000   0.000
    9    8    6    7        3       2.301  -1.464   0.837  -1.674  -0.000   0.000
   14   12   10    9        3       2.301  -1.464   0.837  -1.674  -0.000   0.000
    8    6    4    3        3       2.301  -1.464   0.837  -1.674  -0.000   0.000
   12   10    9    8        3       2.301  -1.464   0.837  -1.674  -0.000   0.000
   14   12   10   11        3       2.301  -1.464   0.837  -1.674  -0.000   0.000
   13   12   10   11        3       2.301  -1.464   0.837  -1.674  -0.000   0.000
   13   12   10    9        3       2.301  -1.464   0.837  -1.674  -0.000   0.000
   11   10    9    8        3       2.301  -1.464   0.837  -1.674  -0.000   0.000
   10    9    8    6        3       2.301  -1.464   0.837  -1.674  -0.000   0.000
    9    8    6    4        3       2.301  -1.464   0.837  -1.674  -0.000   0.000
    7    6    4    3        3       2.301  -1.464   0.837  -1.674  -0.000   0.000
    8    6    4    5        3       2.301  -1.464   0.837  -1.674  -0.000   0.000
    6    4    3    2        3       2.874   0.582   2.092  -5.548  -0.000   0.000
    5    4    3    2        3       2.874   0.582   2.092  -5.548  -0.000   0.000
    4    3    2    1        3       1.715   2.845   1.046  -5.607  -0.000   0.000
   12   10   15    6        3       0.000   0.000   0.000  -0.000  -0.000   0.000
   11   10   15    6        3       0.000   0.000   0.000  -0.000  -0.000   0.000
    9   10   15    6        3       0.000   0.000   0.000  -0.000  -0.000   0.000
   10   15    6    8        3       0.000   0.000   0.000  -0.000  -0.000   0.000
   10   15    6    7        3       0.000   0.000   0.000  -0.000  -0.000   0.000
   10   15    6    4        3       0.000   0.000   0.000  -0.000  -0.000   0.000
   37   12   10   11        3       0.628   1.883   0.000  -2.510  -0.000   0.000
   31    8    9   10        3       0.628   1.883   0.000  -2.510  -0.000   0.000
   32    9   10   12        3       0.628   1.883   0.000  -2.510  -0.000   0.000
   22    3    4    6        3       0.628   1.883   0.000  -2.510  -0.000   0.000
   30    8    9   10        3       0.628   1.883   0.000  -2.510  -0.000   0.000
   33    9   10   11        3       0.628   1.883   0.000  -2.510  -0.000   0.000
   33    9    8    6        3       0.628   1.883   0.000  -2.510  -0.000   0.000
   42   14   12   13        3       0.628   1.883   0.000  -2.510  -0.000   0.000
   34   11   10   12        3       0.628   1.883   0.000  -2.510  -0.000   0.000
   25    5    4    6        3       0.628   1.883   0.000  -2.510  -0.000   0.000
   29    7    6    8        3       0.628   1.883   0.000  -2.510  -0.000   0.000
   24    5    4    3        3       0.628   1.883   0.000  -2.510  -0.000   0.000
   31    8    6    7        3       0.628   1.883   0.000  -2.510  -0.000   0.000
   35   11   10    9        3       0.628   1.883   0.000  -2.510  -0.000   0.000
   41   14   12   13        3       0.628   1.883   0.000  -2.510  -0.000   0.000
   39   13   12   10        3       0.628   1.883   0.000  -2.510  -0.000   0.000
   39   13   12   14        3       0.628   1.883   0.000  -2.510  -0.000   0.000
   23    4    6    7        3       0.628   1.883   0.000  -2.510  -0.000   0.000
   37   12   10    9        3       0.628   1.883   0.000  -2.510  -0.000   0.000
   42   14   12   10        3       0.628   1.883   0.000  -2.510  -0.000   0.000
   33    9   10   12        3       0.628   1.883   0.000  -2.510  -0.000   0.000
   36   11   10   12        3       0.628   1.883   0.000  -2.510  -0.000   0.000
   38   13   12   14        3       0.628   1.883   0.000  -2.510  -0.000   0.000
   31    8    6    4        3       0.628   1.883   0.000  -2.510  -0.000   0.000
   43   14   12   13        3       0.628   1.883   0.000  -2.510  -0.000   0.000
   24    5    4    6        3       0.628   1.883   0.000  -2.510  -0.000   0.000
   27    7    6    8        3       0.628   1.883   0.000  -2.510  -0.000   0.000
   40   13   12   14        3       0.628   1.883   0.000  -2.510  -0.000   0.000
   30    8    6    4        3       0.628   1.883   0.000  -2.510  -0.000   0.000
   40   13   12   10        3       0.628   1.883   0.000  -2.510  -0.000   0.000
   27    7    6    4        3       0.628   1.883   0.000  -2.510  -0.000   0.000
   22    3    4    5        3       0.628   1.883   0.000  -2.510  -0.000   0.000
   34   11   10    9        3       0.628   1.883   0.000  -2.510  -0.000   0.000
   36   11   10    9        3       0.628   1.883   0.000  -2.510  -0.000   0.000
   23    4    6    8        3       0.628   1.883   0.000  -2.510  -0.000   0.000
   28    7    6    4        3       0.628   1.883   0.000  -2.510  -0.000   0.000
   38   13   12   10        3       0.628   1.883   0.000  -2.510  -0.000   0.000
   32    9    8    6        3       0.628   1.883   0.000  -2.510  -0.000   0.000
   41   14   12   10        3       0.628   1.883   0.000  -2.510  -0.000   0.000
   21    3    4    6        3       0.628   1.883   0.000  -2.510  -0.000   0.000
   43   14   12   10        3       0.628   1.883   0.000  -2.510  -0.000   0.000
   30    8    6    7        3       0.628   1.883   0.000  -2.510  -0.000   0.000
   32    9   10   11        3       0.628   1.883   0.000  -2.510  -0.000   0.000
   25    5    4    3        3       0.628   1.883   0.000  -2.510  -0.000   0.000
   29    7    6    4        3       0.628   1.883   0.000  -2.510  -0.000   0.000
   21    3    4    5        3       0.628   1.883   0.000  -2.510  -0.000   0.000
   35   11   10   12        3       0.628   1.883   0.000  -2.510  -0.000   0.000
   26    5    4    6        3       0.628   1.883   0.000  -2.510  -0.000   0.000
   28    7    6    8        3       0.628   1.883   0.000  -2.510  -0.000   0.000
   26    5    4    3        3       0.628   1.883   0.000  -2.510  -0.000   0.000
   32    9    8   30        3       0.628   1.883   0.000  -2.510  -0.000   0.000
   33    9    8   30        3       0.628   1.883   0.000  -2.510  -0.000   0.000
   33    9    8   31        3       0.628   1.883   0.000  -2.510  -0.000   0.000
   38   13   12   37        3       0.628   1.883   0.000  -2.510  -0.000   0.000
   23    4    3   22        3       0.628   1.883   0.000  -2.510  -0.000   0.000
   26    5    4   23        3       0.628   1.883   0.000  -2.510  -0.000   0.000
   32    9    8   31        3       0.628   1.883   0.000  -2.510  -0.000   0.000
   42   14   12   37        3       0.628   1.883   0.000  -2.510  -0.000   0.000
   25    5    4   23        3       0.628   1.883   0.000  -2.510  -0.000   0.000
   40   13   12   37        3       0.628   1.883   0.000  -2.510  -0.000   0.000
   23    4    3   21        3       0.628   1.883   0.000  -2.510  -0.000   0.000
   43   14   12   37        3       0.628   1.883   0.000  -2.510  -0.000   0.000
   24    5    4   23        3       0.628   1.883   0.000  -2.510  -0.000   0.000
   39   13   12   37        3       0.628   1.883   0.000  -2.510  -0.000   0.000
   41   14   12   37        3       0.628   1.883   0.000  -2.510  -0.000   0.000
   23    4    3    2        3       0.979   2.937   0.000  -3.916  -0.000   0.000
   34   11   10   15        3       0.946   2.837   0.000  -3.782  -0.000   0.000
   36   11   10   15        3       0.946   2.837   0.000  -3.782  -0.000   0.000
   27    7    6   15        3       0.946   2.837   0.000  -3.782  -0.000   0.000
   23    4    6   15        3       0.946   2.837   0.000  -3.782  -0.000   0.000
   32    9   10   15        3       0.946   2.837   0.000  -3.782  -0.000   0.000
   30    8    6   15        3       0.946   2.837   0.000  -3.782  -0.000   0.000
   33    9   10   15        3       0.946   2.837   0.000  -3.782  -0.000   0.000
   29    7    6   15        3       0.946   2.837   0.000  -3.782  -0.000   0.000
   31    8    6   15        3       0.946   2.837   0.000  -3.782  -0.000   0.000
   35   11   10   15        3       0.946   2.837   0.000  -3.782  -0.000   0.000
   37   12   10   15        3       0.946   2.837   0.000  -3.782  -0.000   0.000
   28    7    6   15        3       0.946   2.837   0.000  -3.782  -0.000   0.000
   19    1    2    3        3       1.590   4.770   0.000  -6.360  -0.000   0.000
   22    3    2    1        3       1.590   4.770   0.000  -6.360  -0.000   0.000
   21    3    2    1        3       1.590   4.770   0.000  -6.360  -0.000   0.000
   18    1    2    3        3       1.590   4.770   0.000  -6.360  -0.000   0.000
   20    1    2    3        3       1.590   4.770   0.000  -6.360  -0.000   0.000
   16   15   10   12        3       0.000   0.000   0.000  -0.000  -0.000   0.000
   16   15    6    7        3       0.000   0.000   0.000  -0.000  -0.000   0.000
   17   15    6    4        3       0.000   0.000   0.000  -0.000  -0.000   0.000
   16   15   10   11        3       0.000   0.000   0.000  -0.000  -0.000   0.000
   17   15   10    9        3       0.000   0.000   0.000  -0.000  -0.000   0.000
   17   15   10   11        3       0.000   0.000   0.000  -0.000  -0.000   0.000
   17   15    6    7        3       0.000   0.000   0.000  -0.000  -0.000   0.000
   16   15    6    8        3       0.000   0.000   0.000  -0.000  -0.000   0.000
   17   15    6    8        3       0.000   0.000   0.000  -0.000  -0.000   0.000
   16   15   10    9        3       0.000   0.000   0.000  -0.000  -0.000   0.000
   16   15    6    4        3       0.000   0.000   0.000  -0.000  -0.000   0.000
   17   15   10   12        3       0.000   0.000   0.000  -0.000  -0.000   0.000
   15    6    8    9        3       2.784   0.278   0.828  -3.891  -0.000   0.000
   15   10   12   13        3       2.784   0.278   0.828  -3.891  -0.000   0.000
   15   10    9    8        3       2.784   0.278   0.828  -3.891  -0.000   0.000
   15    6    4    3        3       2.784   0.278   0.828  -3.891  -0.000   0.000
   15   10   12   14        3       2.784   0.278   0.828  -3.891  -0.000   0.000
   15    6    4    5        3       2.784   0.278   0.828  -3.891  -0.000   0.000

[ pairs ]
     1     4    1
     2     5    1
     2     6    1
     3     7    1
     3     8    1
     5     7    1
     5     8    1
     4     9    1
     4    10    1
     7     9    1
     7    10    1
     6    11    1
     6    12    1
     3    15    1
     8    11    1
     8    12    1
     5    15    1
     4    16    1
     4    17    1
     3    18    1
     9    13    1
     3    19    1
     1    21    1
     9    14    1
     7    16    1
     3    20    1
     1    22    1
    11    13    1
     8    16    1
     7    17    1
    11    14    1
     9    16    1
     8    17    1
     2    23    1
     9    17    1
     5    21    1
    11    16    1
     6    21    1
     5    22    1
     3    24    1
    13    15    1
    12    16    1
    11    17    1
     6    22    1
     3    25    1
    14    15    1
    12    17    1
     3    26    1
     7    23    1
     6    24    1
     8    23    1
     6    25    1
     4    27    1
     6    26    1
     4    28    1
     4    29    1
     4    30    1
     8    27    1
     4    31    1
     8    28    1
     8    29    1
     7    30    1
    15    23    1
     7    31    1
     6    32    1
     6    33    1
    10    30    1
    10    31    1
    15    27    1
    15    28    1
    11    32    1
     9    34    1
    21    23    1
    15    29    1
    12    32    1
    11    33    1
     9    35    1
    22    23    1
    15    30    1
    12    33    1
     9    36    1
    15    31    1
    12    34    1
     9    37    1
    23    24    1
    15    32    1
    12    35    1
    23    25    1
    15    33    1
    12    36    1
    11    37    1
    10    38    1
    23    26    1
    15    34    1
    10    39    1
    15    35    1
    10    40    1
    15    36    1
    10    41    1
    15    37    1
    14    38    1
    10    42    1
    14    39    1
    10    43    1
    14    40    1
    13    41    1
    13    42    1
    13    43    1
    30    32    1
    31    32    1
    30    33    1
    31    33    1
    37    38    1
    37    39    1
    37    40    1
    37    41    1
    37    42    1
    37    43    1

