LIGPARGEN GENERATED GRO FILE
   43
    1UNK    C00    1   0.100   0.100   0.000
    1UNK    O01    2  -0.042   0.100   0.000
    1UNK    C02    3  -0.094   0.100   0.133
    1UNK    C03    4  -0.248   0.087   0.131
    1UNK    C04    5  -0.286  -0.046   0.064
    1UNK    C05    6  -0.309   0.105   0.274
    1UNK    C06    7  -0.256  -0.001   0.373
    1UNK    C07    8  -0.282   0.247   0.330
    1UNK    C08    9  -0.388   0.277   0.437
    1UNK    C09   10  -0.527   0.243   0.379
    1UNK    C0A   11  -0.577   0.362   0.293
    1UNK    C0B   12  -0.629   0.205   0.492
    1UNK    C0C   13  -0.649   0.317   0.595
    1UNK    C0D   14  -0.767   0.164   0.439
    1UNK    S0E   15  -0.493   0.098   0.270
    1UNK    O0F   16  -0.539   0.130   0.136
    1UNK    O0G   17  -0.535  -0.024   0.335
    1UNK    H0H   18   0.135   0.107  -0.103
    1UNK    H0I   19   0.138   0.007   0.044
    1UNK    H0J   20   0.138   0.186   0.056
    1UNK    H0K   21  -0.064   0.194   0.181
    1UNK    H0M   22  -0.049   0.016   0.188
    1UNK    H0N   23  -0.287   0.166   0.066
    1UNK    H0O   24  -0.244  -0.132   0.117
    1UNK    H0P   25  -0.248  -0.050  -0.039
    1UNK    H0Q   26  -0.394  -0.060   0.058
    1UNK    H0R   27  -0.148   0.009   0.388
    1UNK    H0S   28  -0.277  -0.102   0.339
    1UNK    H0T   29  -0.303   0.009   0.472
    1UNK    H0U   30  -0.290   0.322   0.250
    1UNK    H0V   31  -0.182   0.256   0.372
    1UNK    H0W   32  -0.381   0.382   0.469
    1UNK    H0X   33  -0.367   0.216   0.526
    1UNK    H0Y   34  -0.591   0.452   0.354
    1UNK    H0Z   35  -0.672   0.339   0.244
    1UNK    H10   36  -0.505   0.387   0.214
    1UNK    H11   37  -0.588   0.119   0.546
    1UNK    H12   38  -0.698   0.405   0.551
    1UNK    H13   39  -0.554   0.350   0.639
    1UNK    H14   40  -0.712   0.282   0.677
    1UNK    H15   41  -0.820   0.248   0.392
    1UNK    H16   42  -0.830   0.129   0.522
    1UNK    H17   43  -0.762   0.083   0.367
   1.00000   1.00000   1.00000

