LIGPARGEN GENERATED GRO FILE
   46
    1UNK    C00    1   0.100   0.100   0.000
    1UNK    C01    2  -0.054   0.100   0.000
    1UNK    C02    3  -0.097   0.100   0.147
    1UNK    C03    4  -0.103   0.217  -0.092
    1UNK    C04    5  -0.259   0.242  -0.124
    1UNK    C05    6  -0.271   0.366  -0.233
    1UNK    C06    7  -0.212   0.500  -0.184
    1UNK    C07    8  -0.210   0.336  -0.371
    1UNK    C08    9  -0.421   0.389  -0.251
    1UNK    N09   10  -0.545   0.408  -0.266
    1UNK    C0A   11  -0.304   0.106  -0.189
    1UNK    C0B   12  -0.449   0.083  -0.231
    1UNK    C0C   13  -0.543   0.065  -0.113
    1UNK    C0D   14  -0.592   0.191  -0.044
    1UNK    C0E   15  -0.491   0.288   0.017
    1UNK    C0F   16  -0.339   0.264   0.013
    1UNK    C0G   17  -0.278   0.372   0.105
    1UNK    H0H   18   0.139   0.018   0.062
    1UNK    H0I   19   0.139   0.194   0.040
    1UNK    H0J   20   0.139   0.087  -0.101
    1UNK    H0K   21  -0.085   0.005  -0.044
    1UNK    H0M   22  -0.081   0.197   0.194
    1UNK    H0N   23  -0.040   0.027   0.205
    1UNK    H0O   24  -0.201   0.069   0.160
    1UNK    H0P   25  -0.054   0.200  -0.188
    1UNK    H0Q   26  -0.058   0.310  -0.054
    1UNK    H0R   27  -0.106   0.490  -0.155
    1UNK    H0S   28  -0.267   0.542  -0.100
    1UNK    H0T   29  -0.216   0.576  -0.263
    1UNK    H0U   30  -0.102   0.318  -0.365
    1UNK    H0V   31  -0.224   0.421  -0.439
    1UNK    H0W   32  -0.257   0.250  -0.420
    1UNK    H0X   33  -0.280   0.024  -0.120
    1UNK    H0Y   34  -0.242   0.086  -0.277
    1UNK    H0Z   35  -0.451  -0.012  -0.287
    1UNK    H10   36  -0.486   0.156  -0.302
    1UNK    H11   37  -0.499  -0.003  -0.039
    1UNK    H12   38  -0.633   0.013  -0.151
    1UNK    H13   39  -0.658   0.159   0.037
    1UNK    H14   40  -0.658   0.245  -0.112
    1UNK    H15   41  -0.518   0.293   0.124
    1UNK    H16   42  -0.514   0.390  -0.016
    1UNK    H17   43  -0.330   0.169   0.065
    1UNK    H18   44  -0.322   0.470   0.088
    1UNK    H19   45  -0.170   0.383   0.097
    1UNK    H1A   46  -0.298   0.346   0.210
   1.00000   1.00000   1.00000

