
;
; GENERATED BY LigParGen Server
; Jorgensen Lab @ Yale University 
;
[ atomtypes ]
  opls_818  H818     1.0080     0.000    A    2.50000E-01   1.25520E-01
  opls_809  N809    14.0070     0.000    A    3.20000E-01   7.11280E-01
  opls_814  C814    12.0110     0.000    A    3.50000E-01   2.76144E-01
  opls_824  H824     1.0080     0.000    A    2.50000E-01   1.25520E-01
  opls_815  C815    12.0110     0.000    A    3.50000E-01   2.76144E-01
  opls_804  C804    12.0110     0.000    A    3.50000E-01   2.76144E-01
  opls_843  H843     1.0080     0.000    A    2.50000E-01   1.25520E-01
  opls_836  H836     1.0080     0.000    A    2.50000E-01   1.25520E-01
  opls_834  H834     1.0080     0.000    A    2.50000E-01   1.25520E-01
  opls_810  C810    12.0110     0.000    A    3.50000E-01   2.76144E-01
  opls_828  H828     1.0080     0.000    A    2.50000E-01   1.25520E-01
  opls_844  H844     1.0080     0.000    A    2.50000E-01   1.25520E-01
  opls_802  C802    12.0110     0.000    A    3.50000E-01   2.76144E-01
  opls_827  H827     1.0080     0.000    A    2.50000E-01   1.25520E-01
  opls_801  C801    12.0110     0.000    A    3.50000E-01   2.76144E-01
  opls_806  C806    12.0110     0.000    A    3.50000E-01   2.76144E-01
  opls_822  H822     1.0080     0.000    A    2.50000E-01   1.25520E-01
  opls_803  C803    12.0110     0.000    A    3.50000E-01   2.76144E-01
  opls_838  H838     1.0080     0.000    A    2.50000E-01   1.25520E-01
  opls_825  H825     1.0080     0.000    A    2.50000E-01   1.25520E-01
  opls_830  H830     1.0080     0.000    A    2.50000E-01   1.25520E-01
  opls_808  C808    12.0110     0.000    A    3.30000E-01   2.76144E-01
  opls_821  H821     1.0080     0.000    A    2.50000E-01   1.25520E-01
  opls_842  H842     1.0080     0.000    A    2.50000E-01   1.25520E-01
  opls_820  H820     1.0080     0.000    A    2.50000E-01   1.25520E-01
  opls_837  H837     1.0080     0.000    A    2.50000E-01   1.25520E-01
  opls_829  H829     1.0080     0.000    A    2.50000E-01   1.25520E-01
  opls_831  H831     1.0080     0.000    A    2.50000E-01   1.25520E-01
  opls_832  H832     1.0080     0.000    A    2.50000E-01   1.25520E-01
  opls_800  C800    12.0110     0.000    A    3.50000E-01   2.76144E-01
  opls_805  C805    12.0110     0.000    A    3.50000E-01   2.76144E-01
  opls_811  C811    12.0110     0.000    A    3.50000E-01   2.76144E-01
  opls_823  H823     1.0080     0.000    A    2.50000E-01   1.25520E-01
  opls_813  C813    12.0110     0.000    A    3.50000E-01   2.76144E-01
  opls_826  H826     1.0080     0.000    A    2.50000E-01   1.25520E-01
  opls_835  H835     1.0080     0.000    A    2.50000E-01   1.25520E-01
  opls_841  H841     1.0080     0.000    A    2.50000E-01   1.25520E-01
  opls_819  H819     1.0080     0.000    A    2.50000E-01   1.25520E-01
  opls_816  C816    12.0110     0.000    A    3.50000E-01   2.76144E-01
  opls_833  H833     1.0080     0.000    A    2.50000E-01   1.25520E-01
  opls_839  H839     1.0080     0.000    A    2.50000E-01   1.25520E-01
  opls_812  C812    12.0110     0.000    A    3.50000E-01   2.76144E-01
  opls_817  H817     1.0080     0.000    A    2.50000E-01   1.25520E-01
  opls_840  H840     1.0080     0.000    A    2.50000E-01   1.25520E-01
  opls_845  H845     1.0080     0.000    A    2.50000E-01   1.25520E-01
  opls_807  C807    12.0110     0.000    A    3.50000E-01   2.76144E-01
[ moleculetype ]
; Name               nrexcl
UNK                   3
[ atoms ]
;   nr       type  resnr residue  atom   cgnr     charge       mass  
     1   opls_800      1    UNK   C00      1     -0.243    12.0110 
     2   opls_801      1    UNK   C01      1    -0.1079    12.0110 
     3   opls_802      1    UNK   C02      1    -0.2352    12.0110 
     4   opls_803      1    UNK   C03      1    -0.1689    12.0110 
     5   opls_804      1    UNK   C04      1     0.0107    12.0110 
     6   opls_805      1    UNK   C05      1     0.1034    12.0110 
     7   opls_806      1    UNK   C06      1     -0.236    12.0110 
     8   opls_807      1    UNK   C07      1    -0.2347    12.0110 
     9   opls_808      1    UNK   C08      1     0.1566    12.0110 
    10   opls_809      1    UNK   N09      1    -0.4212    14.0070 
    11   opls_810      1    UNK   C0A      1    -0.1731    12.0110 
    12   opls_811      1    UNK   C0B      1     -0.172    12.0110 
    13   opls_812      1    UNK   C0C      1    -0.1616    12.0110 
    14   opls_813      1    UNK   C0D      1    -0.1698    12.0110 
    15   opls_814      1    UNK   C0E      1    -0.1667    12.0110 
    16   opls_815      1    UNK   C0F      1    -0.0913    12.0110 
    17   opls_816      1    UNK   C0G      1    -0.2396    12.0110 
    18   opls_817      1    UNK   H0H      1     0.0821     1.0080 
    19   opls_818      1    UNK   H0I      1     0.0821     1.0080 
    20   opls_819      1    UNK   H0J      1     0.0821     1.0080 
    21   opls_820      1    UNK   H0K      1     0.0962     1.0080 
    22   opls_821      1    UNK   H0M      1     0.0829     1.0080 
    23   opls_822      1    UNK   H0N      1     0.0829     1.0080 
    24   opls_823      1    UNK   H0O      1     0.0829     1.0080 
    25   opls_824      1    UNK   H0P      1     0.0861     1.0080 
    26   opls_825      1    UNK   H0Q      1     0.0861     1.0080 
    27   opls_826      1    UNK   H0R      1     0.0958     1.0080 
    28   opls_827      1    UNK   H0S      1     0.0958     1.0080 
    29   opls_828      1    UNK   H0T      1     0.0958     1.0080 
    30   opls_829      1    UNK   H0U      1     0.0964     1.0080 
    31   opls_830      1    UNK   H0V      1     0.0964     1.0080 
    32   opls_831      1    UNK   H0W      1     0.0964     1.0080 
    33   opls_832      1    UNK   H0X      2     0.0872     1.0080 
    34   opls_833      1    UNK   H0Y      2     0.0872     1.0080 
    35   opls_834      1    UNK   H0Z      2     0.0913     1.0080 
    36   opls_835      1    UNK   H10      2     0.0913     1.0080 
    37   opls_836      1    UNK   H11      2     0.0824     1.0080 
    38   opls_837      1    UNK   H12      2     0.0824     1.0080 
    39   opls_838      1    UNK   H13      2     0.0894     1.0080 
    40   opls_839      1    UNK   H14      2     0.0894     1.0080 
    41   opls_840      1    UNK   H15      2      0.084     1.0080 
    42   opls_841      1    UNK   H16      2      0.084     1.0080 
    43   opls_842      1    UNK   H17      2     0.0989     1.0080 
    44   opls_843      1    UNK   H18      2      0.081     1.0080 
    45   opls_844      1    UNK   H19      2      0.081     1.0080 
    46   opls_845      1    UNK   H1A      2      0.081     1.0080 
[ bonds ]
    2     1     1      0.1529 224262.400
    3     2     1      0.1529 224262.400
    4     2     1      0.1529 224262.400
    5     4     1      0.1529 224262.400
    6     5     1      0.1529 224262.400
    7     6     1      0.1529 224262.400
    8     6     1      0.1529 224262.400
    9     6     1      0.1470 326352.000
   10     9     1      0.1157 543920.000
   11     5     1      0.1529 224262.400
   12    11     1      0.1529 224262.400
   13    12     1      0.1529 224262.400
   14    13     1      0.1529 224262.400
   15    14     1      0.1529 224262.400
   16     5     1      0.1529 224262.400
   17    16     1      0.1529 224262.400
   18     1     1      0.1090 284512.000
   19     1     1      0.1090 284512.000
   20     1     1      0.1090 284512.000
   21     2     1      0.1090 284512.000
   22     3     1      0.1090 284512.000
   23     3     1      0.1090 284512.000
   24     3     1      0.1090 284512.000
   25     4     1      0.1090 284512.000
   26     4     1      0.1090 284512.000
   27     7     1      0.1090 284512.000
   28     7     1      0.1090 284512.000
   29     7     1      0.1090 284512.000
   30     8     1      0.1090 284512.000
   31     8     1      0.1090 284512.000
   32     8     1      0.1090 284512.000
   33    11     1      0.1090 284512.000
   34    11     1      0.1090 284512.000
   35    12     1      0.1090 284512.000
   36    12     1      0.1090 284512.000
   37    13     1      0.1090 284512.000
   38    13     1      0.1090 284512.000
   39    14     1      0.1090 284512.000
   40    14     1      0.1090 284512.000
   41    15     1      0.1090 284512.000
   42    15     1      0.1090 284512.000
   43    16     1      0.1090 284512.000
   44    17     1      0.1090 284512.000
   45    17     1      0.1090 284512.000
   46    17     1      0.1090 284512.000
   16    15     1      0.1529 224262.400

[ angles ]
;  ai    aj    ak funct            c0            c1            c2            c3 
    1     2     3     1    112.700    488.273
    1     2     4     1    112.700    488.273
    2     4     5     1    112.700    488.273
    4     5     6     1    112.700    488.273
    5     6     7     1    112.700    488.273
    5     6     8     1    112.700    488.273
    5     6     9     1    112.700    488.273
    6     9    10     1    180.000   1255.200
    4     5    11     1    112.700    488.273
    5    11    12     1    112.700    488.273
   11    12    13     1    112.700    488.273
   12    13    14     1    112.700    488.273
   13    14    15     1    112.700    488.273
    4     5    16     1    112.700    488.273
    5    16    17     1    112.700    488.273
    2     1    18     1    110.700    313.800
    2     1    19     1    110.700    313.800
    2     1    20     1    110.700    313.800
    1     2    21     1    110.700    313.800
    2     3    22     1    110.700    313.800
    2     3    23     1    110.700    313.800
    2     3    24     1    110.700    313.800
    2     4    25     1    110.700    313.800
    2     4    26     1    110.700    313.800
    6     7    27     1    110.700    313.800
    6     7    28     1    110.700    313.800
    6     7    29     1    110.700    313.800
    6     8    30     1    110.700    313.800
    6     8    31     1    110.700    313.800
    6     8    32     1    110.700    313.800
    5    11    33     1    110.700    313.800
    5    11    34     1    110.700    313.800
   11    12    35     1    110.700    313.800
   11    12    36     1    110.700    313.800
   12    13    37     1    110.700    313.800
   12    13    38     1    110.700    313.800
   13    14    39     1    110.700    313.800
   13    14    40     1    110.700    313.800
   14    15    41     1    110.700    313.800
   14    15    42     1    110.700    313.800
    5    16    43     1    110.700    313.800
   16    17    44     1    110.700    313.800
   16    17    45     1    110.700    313.800
   16    17    46     1    110.700    313.800
   33    11    34     1    107.800    276.144
   31     8    32     1    107.800    276.144
   13    12    36     1    110.700    313.800
   25     4    26     1    107.800    276.144
   35    12    36     1    107.800    276.144
   15    14    40     1    110.700    313.800
    4     2    21     1    110.700    313.800
   16    15    42     1    110.700    313.800
    6     5    16     1    112.700    488.273
   30     8    31     1    107.800    276.144
   16    15    41     1    110.700    313.800
    5     4    26     1    110.700    313.800
    5    16    15     1    112.700    488.273
    6     5    11     1    112.700    488.273
   18     1    19     1    107.800    276.144
   22     3    24     1    107.800    276.144
   28     7    29     1    107.800    276.144
    5     4    25     1    110.700    313.800
   37    13    38     1    107.800    276.144
   15    16    17     1    112.700    488.273
   11     5    16     1    112.700    488.273
   27     7    29     1    107.800    276.144
   41    15    42     1    107.800    276.144
   44    17    46     1    107.800    276.144
   27     7    28     1    107.800    276.144
   45    17    46     1    107.800    276.144
   22     3    23     1    107.800    276.144
   23     3    24     1    107.800    276.144
   30     8    32     1    107.800    276.144
   14    13    38     1    110.700    313.800
    8     6     9     1    112.700    488.273
   18     1    20     1    107.800    276.144
   44    17    45     1    107.800    276.144
   14    15    16     1    112.700    488.273
   12    11    34     1    110.700    313.800
   12    11    33     1    110.700    313.800
   39    14    40     1    107.800    276.144
   15    16    43     1    110.700    313.800
   15    14    39     1    110.700    313.800
   17    16    43     1    110.700    313.800
    3     2    21     1    110.700    313.800
   14    13    37     1    110.700    313.800
    7     6     9     1    112.700    488.273
    3     2     4     1    112.700    488.273
    7     6     8     1    112.700    488.273
   13    12    35     1    110.700    313.800
   19     1    20     1    107.800    276.144

[ dihedrals ]
; IMPROPER DIHEDRAL ANGLES 
;  ai    aj    ak    al funct            c0            c1            c2            c3            c4            c5

[ dihedrals ]
; PROPER DIHEDRAL ANGLES
;  ai    aj    ak    al funct            c0            c1            c2            c3            c4            c5
   17   16    5    6        3       2.301  -1.464   0.837  -1.674  -0.000   0.000
   16    5    4    2        3       2.301  -1.464   0.837  -1.674  -0.000   0.000
   11    5    4    2        3       2.301  -1.464   0.837  -1.674  -0.000   0.000
   12   11    5    6        3       2.301  -1.464   0.837  -1.674  -0.000   0.000
   15   16    5    6        3       2.301  -1.464   0.837  -1.674  -0.000   0.000
   16    5    6    8        3       2.301  -1.464   0.837  -1.674  -0.000   0.000
   17   16    5    4        3       2.301  -1.464   0.837  -1.674  -0.000   0.000
    8    6    5    4        3       2.301  -1.464   0.837  -1.674  -0.000   0.000
   15   16    5    4        3       2.301  -1.464   0.837  -1.674  -0.000   0.000
   15   16    5   11        3       2.301  -1.464   0.837  -1.674  -0.000   0.000
   16    5    6    7        3       2.301  -1.464   0.837  -1.674  -0.000   0.000
   16    5   11   12        3       2.301  -1.464   0.837  -1.674  -0.000   0.000
   16   15   14   13        3       2.301  -1.464   0.837  -1.674  -0.000   0.000
   11    5    6    8        3       2.301  -1.464   0.837  -1.674  -0.000   0.000
   17   16    5   11        3       2.301  -1.464   0.837  -1.674  -0.000   0.000
    5    4    2    3        3       2.301  -1.464   0.837  -1.674  -0.000   0.000
   14   13   12   11        3       2.301  -1.464   0.837  -1.674  -0.000   0.000
    7    6    5    4        3       2.301  -1.464   0.837  -1.674  -0.000   0.000
   17   16   15   14        3       2.301  -1.464   0.837  -1.674  -0.000   0.000
    6    5    4    2        3       2.301  -1.464   0.837  -1.674  -0.000   0.000
   15   14   13   12        3       2.301  -1.464   0.837  -1.674  -0.000   0.000
    5    4    2    1        3       2.301  -1.464   0.837  -1.674  -0.000   0.000
   12   11    5    4        3       2.301  -1.464   0.837  -1.674  -0.000   0.000
   14   15   16    5        3       2.301  -1.464   0.837  -1.674  -0.000   0.000
   13   12   11    5        3       2.301  -1.464   0.837  -1.674  -0.000   0.000
   11    5    6    7        3       2.301  -1.464   0.837  -1.674  -0.000   0.000
   11    5    6    9        3      -2.720   0.000   2.720  -0.000  -0.000   0.000
   16    5    6    9        3      -2.720   0.000   2.720  -0.000  -0.000   0.000
    9    6    5    4        3      -2.720   0.000   2.720  -0.000  -0.000   0.000
   24    3    2    4        3       0.628   1.883   0.000  -2.510  -0.000   0.000
   38   13   12   11        3       0.628   1.883   0.000  -2.510  -0.000   0.000
   31    8    6    7        3       0.628   1.883   0.000  -2.510  -0.000   0.000
   35   12   13   14        3       0.628   1.883   0.000  -2.510  -0.000   0.000
   40   14   15   16        3       0.628   1.883   0.000  -2.510  -0.000   0.000
   43   16   15   14        3       0.628   1.883   0.000  -2.510  -0.000   0.000
   38   13   14   15        3       0.628   1.883   0.000  -2.510  -0.000   0.000
   20    1    2    4        3       0.628   1.883   0.000  -2.510  -0.000   0.000
   37   13   12   11        3       0.628   1.883   0.000  -2.510  -0.000   0.000
   41   15   16   17        3       0.628   1.883   0.000  -2.510  -0.000   0.000
   33   11    5    4        3       0.628   1.883   0.000  -2.510  -0.000   0.000
   44   17   16   15        3       0.628   1.883   0.000  -2.510  -0.000   0.000
   42   15   16    5        3       0.628   1.883   0.000  -2.510  -0.000   0.000
   34   11    5    6        3       0.628   1.883   0.000  -2.510  -0.000   0.000
   25    4    2    3        3       0.628   1.883   0.000  -2.510  -0.000   0.000
   33   11    5   16        3       0.628   1.883   0.000  -2.510  -0.000   0.000
   35   12   11    5        3       0.628   1.883   0.000  -2.510  -0.000   0.000
   33   11   12   13        3       0.628   1.883   0.000  -2.510  -0.000   0.000
   43   16    5    6        3       0.628   1.883   0.000  -2.510  -0.000   0.000
   36   12   11    5        3       0.628   1.883   0.000  -2.510  -0.000   0.000
   34   11    5    4        3       0.628   1.883   0.000  -2.510  -0.000   0.000
   25    4    5   11        3       0.628   1.883   0.000  -2.510  -0.000   0.000
   22    3    2    4        3       0.628   1.883   0.000  -2.510  -0.000   0.000
   43   16    5   11        3       0.628   1.883   0.000  -2.510  -0.000   0.000
   29    7    6    5        3       0.628   1.883   0.000  -2.510  -0.000   0.000
   26    4    5    6        3       0.628   1.883   0.000  -2.510  -0.000   0.000
   26    4    5   11        3       0.628   1.883   0.000  -2.510  -0.000   0.000
   31    8    6    5        3       0.628   1.883   0.000  -2.510  -0.000   0.000
   19    1    2    4        3       0.628   1.883   0.000  -2.510  -0.000   0.000
   20    1    2    3        3       0.628   1.883   0.000  -2.510  -0.000   0.000
   40   14   13   12        3       0.628   1.883   0.000  -2.510  -0.000   0.000
   41   15   14   13        3       0.628   1.883   0.000  -2.510  -0.000   0.000
   26    4    5   16        3       0.628   1.883   0.000  -2.510  -0.000   0.000
   41   15   16    5        3       0.628   1.883   0.000  -2.510  -0.000   0.000
   45   17   16    5        3       0.628   1.883   0.000  -2.510  -0.000   0.000
   27    7    6    8        3       0.628   1.883   0.000  -2.510  -0.000   0.000
   26    4    2    1        3       0.628   1.883   0.000  -2.510  -0.000   0.000
   26    4    2    3        3       0.628   1.883   0.000  -2.510  -0.000   0.000
   21    2    4    5        3       0.628   1.883   0.000  -2.510  -0.000   0.000
   36   12   13   14        3       0.628   1.883   0.000  -2.510  -0.000   0.000
   45   17   16   15        3       0.628   1.883   0.000  -2.510  -0.000   0.000
   39   14   13   12        3       0.628   1.883   0.000  -2.510  -0.000   0.000
   19    1    2    3        3       0.628   1.883   0.000  -2.510  -0.000   0.000
   42   15   14   13        3       0.628   1.883   0.000  -2.510  -0.000   0.000
   29    7    6    8        3       0.628   1.883   0.000  -2.510  -0.000   0.000
   24    3    2    1        3       0.628   1.883   0.000  -2.510  -0.000   0.000
   25    4    2    1        3       0.628   1.883   0.000  -2.510  -0.000   0.000
   23    3    2    1        3       0.628   1.883   0.000  -2.510  -0.000   0.000
   34   11    5   16        3       0.628   1.883   0.000  -2.510  -0.000   0.000
   46   17   16    5        3       0.628   1.883   0.000  -2.510  -0.000   0.000
   18    1    2    4        3       0.628   1.883   0.000  -2.510  -0.000   0.000
   30    8    6    7        3       0.628   1.883   0.000  -2.510  -0.000   0.000
   32    8    6    5        3       0.628   1.883   0.000  -2.510  -0.000   0.000
   46   17   16   15        3       0.628   1.883   0.000  -2.510  -0.000   0.000
   39   14   15   16        3       0.628   1.883   0.000  -2.510  -0.000   0.000
   25    4    5   16        3       0.628   1.883   0.000  -2.510  -0.000   0.000
   28    7    6    8        3       0.628   1.883   0.000  -2.510  -0.000   0.000
   44   17   16    5        3       0.628   1.883   0.000  -2.510  -0.000   0.000
   27    7    6    5        3       0.628   1.883   0.000  -2.510  -0.000   0.000
   30    8    6    5        3       0.628   1.883   0.000  -2.510  -0.000   0.000
   25    4    5    6        3       0.628   1.883   0.000  -2.510  -0.000   0.000
   18    1    2    3        3       0.628   1.883   0.000  -2.510  -0.000   0.000
   34   11   12   13        3       0.628   1.883   0.000  -2.510  -0.000   0.000
   43   16    5    4        3       0.628   1.883   0.000  -2.510  -0.000   0.000
   37   13   14   15        3       0.628   1.883   0.000  -2.510  -0.000   0.000
   22    3    2    1        3       0.628   1.883   0.000  -2.510  -0.000   0.000
   32    8    6    7        3       0.628   1.883   0.000  -2.510  -0.000   0.000
   42   15   16   17        3       0.628   1.883   0.000  -2.510  -0.000   0.000
   23    3    2    4        3       0.628   1.883   0.000  -2.510  -0.000   0.000
   28    7    6    5        3       0.628   1.883   0.000  -2.510  -0.000   0.000
   33   11    5    6        3       0.628   1.883   0.000  -2.510  -0.000   0.000
   30    8    6    9        3       0.766   2.297   0.000  -3.063  -0.000   0.000
   28    7    6    9        3       0.766   2.297   0.000  -3.063  -0.000   0.000
   32    8    6    9        3       0.766   2.297   0.000  -3.063  -0.000   0.000
   31    8    6    9        3       0.766   2.297   0.000  -3.063  -0.000   0.000
   27    7    6    9        3       0.766   2.297   0.000  -3.063  -0.000   0.000
   29    7    6    9        3       0.766   2.297   0.000  -3.063  -0.000   0.000
   43   16   15   41        3       0.628   1.883   0.000  -2.510  -0.000   0.000
   36   12   11   34        3       0.628   1.883   0.000  -2.510  -0.000   0.000
   21    2    1   19        3       0.628   1.883   0.000  -2.510  -0.000   0.000
   24    3    2   21        3       0.628   1.883   0.000  -2.510  -0.000   0.000
   36   12   11   33        3       0.628   1.883   0.000  -2.510  -0.000   0.000
   41   15   14   40        3       0.628   1.883   0.000  -2.510  -0.000   0.000
   46   17   16   43        3       0.628   1.883   0.000  -2.510  -0.000   0.000
   42   15   14   39        3       0.628   1.883   0.000  -2.510  -0.000   0.000
   35   12   11   33        3       0.628   1.883   0.000  -2.510  -0.000   0.000
   21    2    1   18        3       0.628   1.883   0.000  -2.510  -0.000   0.000
   43   16   15   42        3       0.628   1.883   0.000  -2.510  -0.000   0.000
   45   17   16   43        3       0.628   1.883   0.000  -2.510  -0.000   0.000
   38   13   12   36        3       0.628   1.883   0.000  -2.510  -0.000   0.000
   37   13   12   36        3       0.628   1.883   0.000  -2.510  -0.000   0.000
   42   15   14   40        3       0.628   1.883   0.000  -2.510  -0.000   0.000
   23    3    2   21        3       0.628   1.883   0.000  -2.510  -0.000   0.000
   25    4    2   21        3       0.628   1.883   0.000  -2.510  -0.000   0.000
   26    4    2   21        3       0.628   1.883   0.000  -2.510  -0.000   0.000
   40   14   13   37        3       0.628   1.883   0.000  -2.510  -0.000   0.000
   22    3    2   21        3       0.628   1.883   0.000  -2.510  -0.000   0.000
   21    2    1   20        3       0.628   1.883   0.000  -2.510  -0.000   0.000
   38   13   12   35        3       0.628   1.883   0.000  -2.510  -0.000   0.000
   41   15   14   39        3       0.628   1.883   0.000  -2.510  -0.000   0.000
   40   14   13   38        3       0.628   1.883   0.000  -2.510  -0.000   0.000
   39   14   13   37        3       0.628   1.883   0.000  -2.510  -0.000   0.000
   44   17   16   43        3       0.628   1.883   0.000  -2.510  -0.000   0.000
   35   12   11   34        3       0.628   1.883   0.000  -2.510  -0.000   0.000
   39   14   13   38        3       0.628   1.883   0.000  -2.510  -0.000   0.000
   37   13   12   35        3       0.628   1.883   0.000  -2.510  -0.000   0.000
   10    9    6    7        3       0.000   0.000   0.000  -0.000  -0.000   0.000
   10    9    6    8        3       0.000   0.000   0.000  -0.000  -0.000   0.000
   10    9    6    5        3       0.000   0.000   0.000  -0.000  -0.000   0.000

[ pairs ]
     1     5    1
     3     5    1
     2     6    1
     4     7    1
     4     8    1
     4     9    1
     2    11    1
     5    10    1
     4    12    1
     7    10    1
     8    10    1
     7    11    1
     6    12    1
     5    13    1
     2    16    1
     8    11    1
     5    14    1
     4    15    1
     9    11    1
     6    15    1
     4    17    1
     3    18    1
     4    18    1
     3    19    1
     7    16    1
     6    17    1
     4    19    1
     3    20    1
     1    22    1
     8    16    1
     4    20    1
     1    23    1
    11    14    1
     9    16    1
     1    24    1
    11    15    1
     5    21    1
     4    22    1
     1    25    1
    12    15    1
     4    23    1
     1    26    1
    12    16    1
    11    17    1
     4    24    1
     3    25    1
    13    16    1
     3    26    1
    14    17    1
     6    25    1
     6    26    1
     5    27    1
     5    28    1
     5    29    1
     8    27    1
     5    30    1
    11    25    1
     9    27    1
     8    28    1
     5    31    1
    11    26    1
     9    28    1
     8    29    1
     7    30    1
     5    32    1
     4    33    1
     9    29    1
     7    31    1
     4    34    1
    18    21    1
     9    30    1
     7    32    1
     6    33    1
    19    21    1
     9    31    1
     6    34    1
     5    35    1
    20    21    1
    16    25    1
     9    32    1
     5    36    1
    16    26    1
    21    22    1
    21    23    1
    21    24    1
    21    25    1
    13    33    1
     5    41    1
    21    26    1
    13    34    1
     5    42    1
     4    43    1
    11    37    1
    16    33    1
    14    35    1
    11    38    1
     6    43    1
     5    44    1
    16    34    1
    14    36    1
     5    45    1
    12    39    1
     5    46    1
    15    37    1
    12    40    1
    15    38    1
    13    41    1
    11    43    1
    16    39    1
    13    42    1
    16    40    1
    14    43    1
    17    41    1
    17    42    1
    15    44    1
    15    45    1
    15    46    1
    33    35    1
    34    35    1
    33    36    1
    34    36    1
    35    37    1
    36    37    1
    35    38    1
    36    38    1
    37    39    1
    38    39    1
    37    40    1
    38    40    1
    39    41    1
    40    41    1
    39    42    1
    40    42    1
    41    43    1
    42    43    1
    43    44    1
    43    45    1
    43    46    1

