LIGPARGEN GENERATED GRO FILE
   46
    1UNK    C00    1   0.100   0.100   0.000
    1UNK    O01    2  -0.042   0.100   0.000
    1UNK    C02    3  -0.097   0.100   0.132
    1UNK    C03    4  -0.249   0.109   0.118
    1UNK    C04    5  -0.327   0.111   0.251
    1UNK    C05    6  -0.286   0.229   0.340
    1UNK    C06    7  -0.482   0.103   0.234
    1UNK    C07    8  -0.554   0.229   0.174
    1UNK    N08    9  -0.525   0.269   0.034
    1UNK    C09   10  -0.563   0.164  -0.061
    1UNK    C0A   11  -0.597   0.393   0.001
    1UNK    O0B   12  -0.517  -0.017   0.159
    1UNK    C0C   13  -0.611  -0.100   0.211
    1UNK    O0D   14  -0.665  -0.087   0.320
    1UNK    O0E   15  -0.636  -0.199   0.121
    1UNK    C0F   16  -0.735  -0.298   0.160
    1UNK    C0G   17  -0.875  -0.240   0.141
    1UNK    C0H   18  -0.714  -0.423   0.073
    1UNK    C0I   19  -0.800  -0.535   0.116
    1UNK    N0J   20  -0.867  -0.623   0.149
    1UNK    H0K   21   0.134   0.100  -0.104
    1UNK    H0M   22   0.139   0.010   0.049
    1UNK    H0N   23   0.139   0.190   0.049
    1UNK    H0O   24  -0.057   0.185   0.187
    1UNK    H0P   25  -0.069   0.007   0.183
    1UNK    H0Q   26  -0.282   0.025   0.057
    1UNK    H0R   27  -0.272   0.199   0.060
    1UNK    H0S   28  -0.298   0.019   0.304
    1UNK    H0T   29  -0.301   0.325   0.289
    1UNK    H0U   30  -0.181   0.222   0.369
    1UNK    H0V   31  -0.345   0.230   0.432
    1UNK    H0W   32  -0.522   0.094   0.336
    1UNK    H0X   33  -0.529   0.314   0.238
    1UNK    H0Y   34  -0.662   0.213   0.184
    1UNK    H0Z   35  -0.488   0.084  -0.062
    1UNK    H10   36  -0.565   0.203  -0.164
    1UNK    H11   37  -0.662   0.122  -0.039
    1UNK    H12   38  -0.563   0.475   0.064
    1UNK    H13   39  -0.705   0.382   0.011
    1UNK    H14   40  -0.575   0.423  -0.102
    1UNK    H15   41  -0.719  -0.325   0.265
    1UNK    H16   42  -0.892  -0.213   0.036
    1UNK    H17   43  -0.889  -0.149   0.199
    1UNK    H18   44  -0.953  -0.312   0.171
    1UNK    H19   45  -0.609  -0.454   0.077
    1UNK    H1A   46  -0.734  -0.399  -0.033
   1.00000   1.00000   1.00000

