LIGPARGEN GENERATED GRO FILE
   46
    1UNK    C00    1   0.100   0.100   0.000
    1UNK    C01    2  -0.052   0.100   0.000
    1UNK    C02    3  -0.106   0.100   0.143
    1UNK    O03    4  -0.249   0.094   0.142
    1UNK    C04    5  -0.302  -0.012   0.208
    1UNK    O05    6  -0.239  -0.107   0.252
    1UNK    O06    7  -0.437   0.004   0.217
    1UNK    C07    8  -0.504  -0.092   0.302
    1UNK    C08    9  -0.508  -0.038   0.446
    1UNK    C09   10  -0.585   0.092   0.466
    1UNK    C0A   11  -0.643  -0.123   0.245
    1UNK    C0B   12  -0.646  -0.183   0.102
    1UNK    O0C   13  -0.585  -0.313   0.096
    1UNK    C0D   14  -0.444  -0.318   0.086
    1UNK    C0E   15  -0.792  -0.206   0.050
    1UNK    C0F   16  -0.863  -0.319   0.126
    1UNK    C0G   17  -0.883  -0.082   0.047
    1UNK    C0H   18  -0.837   0.028  -0.047
    1UNK    H0I   19   0.139   0.105  -0.102
    1UNK    H0J   20   0.139   0.009   0.047
    1UNK    H0K   21   0.139   0.186   0.055
    1UNK    H0M   22  -0.089   0.012  -0.054
    1UNK    H0N   23  -0.090   0.188  -0.054
    1UNK    H0O   24  -0.078   0.193   0.193
    1UNK    H0P   25  -0.060   0.018   0.199
    1UNK    H0Q   26  -0.448  -0.186   0.306
    1UNK    H0R   27  -0.405  -0.021   0.479
    1UNK    H0S   28  -0.550  -0.115   0.512
    1UNK    H0T   29  -0.552   0.169   0.395
    1UNK    H0U   30  -0.568   0.130   0.567
    1UNK    H0V   31  -0.692   0.076   0.454
    1UNK    H0W   32  -0.701  -0.030   0.245
    1UNK    H0X   33  -0.692  -0.193   0.314
    1UNK    H0Y   34  -0.595  -0.115   0.032
    1UNK    H0Z   35  -0.417  -0.394   0.012
    1UNK    H10   36  -0.403  -0.351   0.182
    1UNK    H11   37  -0.400  -0.223   0.056
    1UNK    H12   38  -0.782  -0.242  -0.054
    1UNK    H13   39  -0.882  -0.291   0.230
    1UNK    H14   40  -0.805  -0.411   0.125
    1UNK    H15   41  -0.960  -0.342   0.080
    1UNK    H16   42  -0.896  -0.041   0.148
    1UNK    H17   43  -0.984  -0.112   0.015
    1UNK    H18   44  -0.738   0.066  -0.020
    1UNK    H19   45  -0.907   0.112  -0.044
    1UNK    H1A   46  -0.833  -0.009  -0.150
   1.00000   1.00000   1.00000

