LIGPARGEN GENERATED GRO FILE
   32
    1UNK    C00    1   0.100   0.100   0.000
    1UNK    C01    2  -0.052   0.100   0.000
    1UNK    C02    3  -0.105   0.100   0.143
    1UNK    C03    4  -0.259   0.106   0.149
    1UNK    C04    5  -0.314   0.096   0.291
    1UNK    C05    6  -0.277   0.215   0.379
    1UNK    O06    7  -0.158   0.232   0.409
    1UNK    N07    8  -0.376   0.303   0.424
    1UNK    C08    9  -0.513   0.292   0.405
    1UNK    O09   10  -0.599   0.363   0.457
    1UNK    C0A   11  -0.331   0.415   0.507
    1UNK    C0B   12  -0.292   0.539   0.426
    1UNK    C0C   13  -0.410   0.604   0.355
    1UNK    H0D   14   0.138   0.100  -0.102
    1UNK    H0E   15   0.139   0.011   0.051
    1UNK    H0F   16   0.139   0.189   0.051
    1UNK    H0G   17  -0.089   0.012  -0.054
    1UNK    H0H   18  -0.088   0.189  -0.053
    1UNK    H0I   19  -0.063   0.186   0.195
    1UNK    H0J   20  -0.071   0.010   0.195
    1UNK    H0K   21  -0.299   0.023   0.090
    1UNK    H0M   22  -0.294   0.199   0.102
    1UNK    H0N   23  -0.273   0.006   0.340
    1UNK    H0O   24  -0.421   0.078   0.285
    1UNK    H0P   25  -0.544   0.211   0.338
    1UNK    H0Q   26  -0.243   0.383   0.566
    1UNK    H0R   27  -0.408   0.441   0.580
    1UNK    H0S   28  -0.214   0.515   0.353
    1UNK    H0T   29  -0.249   0.613   0.495
    1UNK    H0U   30  -0.450   0.539   0.277
    1UNK    H0V   31  -0.378   0.697   0.307
    1UNK    H0W   32  -0.490   0.628   0.425
   1.00000   1.00000   1.00000

