LIGPARGEN GENERATED GRO FILE
   55
    1UNK    C00    1   0.100   0.100   0.000
    1UNK    C01    2  -0.052   0.100   0.000
    1UNK    C02    3  -0.107   0.100   0.143
    1UNK    C03    4  -0.261   0.100   0.143
    1UNK    C04    5  -0.323   0.100   0.285
    1UNK    C05    6  -0.283   0.226   0.362
    1UNK    C06    7  -0.478   0.086   0.275
    1UNK    C07    8  -0.521  -0.047   0.212
    1UNK    C08    9  -0.667  -0.063   0.255
    1UNK    C09   10  -0.760   0.016   0.162
    1UNK    C0A   11  -0.666  -0.016   0.403
    1UNK    C0B   12  -0.804   0.028   0.459
    1UNK    C0C   13  -0.904  -0.091   0.458
    1UNK    C0D   14  -0.888  -0.184   0.578
    1UNK    C0E   15  -0.899  -0.109   0.711
    1UNK    C0F   16  -1.042  -0.057   0.734
    1UNK    C0G   17  -0.795   0.003   0.716
    1UNK    C0H   18  -0.801   0.097   0.597
    1UNK    C0I   19  -0.554   0.090   0.409
    1UNK    H0J   20   0.138   0.100  -0.103
    1UNK    H0K   21   0.139   0.011   0.051
    1UNK    H0M   22   0.139   0.189   0.051
    1UNK    H0N   23  -0.088   0.012  -0.055
    1UNK    H0O   24  -0.088   0.189  -0.054
    1UNK    H0P   25  -0.069   0.188   0.195
    1UNK    H0Q   26  -0.071   0.012   0.196
    1UNK    H0R   27  -0.294   0.011   0.088
    1UNK    H0S   28  -0.297   0.187   0.087
    1UNK    H0T   29  -0.284   0.013   0.340
    1UNK    H0U   30  -0.306   0.316   0.305
    1UNK    H0V   31  -0.175   0.225   0.384
    1UNK    H0W   32  -0.333   0.233   0.459
    1UNK    H0X   33  -0.515   0.168   0.213
    1UNK    H0Y   34  -0.462  -0.130   0.253
    1UNK    H0Z   35  -0.511  -0.047   0.103
    1UNK    H10   36  -0.695  -0.169   0.249
    1UNK    H11   37  -0.746   0.124   0.171
    1UNK    H12   38  -0.865  -0.007   0.182
    1UNK    H13   39  -0.742  -0.011   0.057
    1UNK    H14   40  -0.631  -0.101   0.463
    1UNK    H15   41  -0.844   0.104   0.390
    1UNK    H16   42  -0.894  -0.150   0.367
    1UNK    H17   43  -1.006  -0.051   0.456
    1UNK    H18   44  -0.790  -0.233   0.573
    1UNK    H19   45  -0.963  -0.264   0.573
    1UNK    H1A   46  -0.878  -0.180   0.792
    1UNK    H1B   47  -1.071   0.020   0.661
    1UNK    H1C   48  -1.052  -0.013   0.833
    1UNK    H1D   49  -1.114  -0.139   0.726
    1UNK    H1E   50  -0.695  -0.043   0.720
    1UNK    H1F   51  -0.806   0.060   0.808
    1UNK    H1G   52  -0.719   0.169   0.604
    1UNK    H1H   53  -0.893   0.157   0.606
    1UNK    H1I   54  -0.488   0.066   0.494
    1UNK    H1J   55  -0.592   0.191   0.425
   1.00000   1.00000   1.00000

