LIGPARGEN GENERATED GRO FILE
   23
    1UNK    C00    1   0.100   0.100   0.000
    1UNK    C01    2  -0.053   0.100   0.000
    1UNK    C02    3  -0.115   0.100   0.141
    1UNK    C03    4  -0.082   0.225   0.223
    1UNK    C04    5  -0.143   0.229   0.366
    1UNK    C05    6  -0.017   0.306   0.409
    1UNK    C06    7   0.056   0.233   0.294
    1UNK    C07    8  -0.106   0.215  -0.086
    1UNK    O08    9  -0.047   0.322  -0.096
    1UNK    Cl0   10  -0.257   0.176  -0.163
    1UNK    H0A   11   0.139   0.015   0.057
    1UNK    H0B   12   0.142   0.192   0.042
    1UNK    H0C   13   0.138   0.092  -0.102
    1UNK    H0D   14  -0.083   0.006  -0.049
    1UNK    H0E   15  -0.083   0.010   0.194
    1UNK    H0F   16  -0.224   0.093   0.131
    1UNK    H0G   17  -0.107   0.317   0.168
    1UNK    H0H   18  -0.153   0.131   0.414
    1UNK    H0I   19  -0.237   0.283   0.376
    1UNK    H0J   20   0.021   0.286   0.509
    1UNK    H0K   21  -0.024   0.414   0.394
    1UNK    H0M   22   0.098   0.136   0.323
    1UNK    H0N   23   0.133   0.292   0.243
   1.00000   1.00000   1.00000

