
;
; GENERATED BY LigParGen Server
; Jorgensen Lab @ Yale University 
;
[ atomtypes ]
  opls_818  H818     1.0080     0.000    A    2.50000E-01   1.25520E-01
  opls_824  H824     1.0080     0.000    A    2.50000E-01   1.25520E-01
  opls_805  C805    12.0110     0.000    A    3.50000E-01   2.76144E-01
  opls_833  H833     1.0080     0.000    A    2.50000E-01   1.25520E-01
  opls_836  H836     1.0080     0.000    A    2.50000E-01   1.25520E-01
  opls_834  H834     1.0080     0.000    A    2.50000E-01   1.25520E-01
  opls_828  H828     1.0080     0.000    A    2.50000E-01   1.25520E-01
  opls_832  H832     1.0080     0.000    A    2.50000E-01   1.25520E-01
  opls_802  C802    12.0110     0.000    A    3.50000E-01   2.76144E-01
  opls_815  H815     1.0080     0.000    A    2.50000E-01   1.25520E-01
  opls_809  C809    12.0110     0.000    A    3.50000E-01   2.76144E-01
  opls_806  C806    12.0110     0.000    A    3.50000E-01   2.76144E-01
  opls_822  H822     1.0080     0.000    A    2.50000E-01   1.25520E-01
  opls_803  C803    12.0110     0.000    A    3.50000E-01   2.76144E-01
  opls_838  H838     1.0080     0.000    A    2.50000E-01   1.25520E-01
  opls_825  H825     1.0080     0.000    A    2.50000E-01   1.25520E-01
  opls_830  H830     1.0080     0.000    A    2.50000E-01   1.25520E-01
  opls_810  C810    12.0110     0.000    A    3.50000E-01   2.76144E-01
  opls_842  H842     1.0080     0.000    A    2.50000E-01   1.25520E-01
  opls_820  H820     1.0080     0.000    A    2.50000E-01   1.25520E-01
  opls_812  C812    12.0110     0.000    A    3.55000E-01   2.92880E-01
  opls_837  H837     1.0080     0.000    A    2.50000E-01   1.25520E-01
  opls_821  H821     1.0080     0.000    A    2.50000E-01   1.25520E-01
  opls_831  H831     1.0080     0.000    A    2.50000E-01   1.25520E-01
  opls_816  H816     1.0080     0.000    A    2.50000E-01   1.25520E-01
  opls_800  C800    12.0110     0.000    A    3.50000E-01   2.76144E-01
  opls_811  C811    12.0110     0.000    A    3.50000E-01   2.76144E-01
  opls_823  H823     1.0080     0.000    A    2.50000E-01   1.25520E-01
  opls_813  C813    12.0110     0.000    A    3.50000E-01   2.76144E-01
  opls_826  H826     1.0080     0.000    A    2.50000E-01   1.25520E-01
  opls_835  H835     1.0080     0.000    A    2.50000E-01   1.25520E-01
  opls_841  H841     1.0080     0.000    A    2.50000E-01   1.25520E-01
  opls_819  H819     1.0080     0.000    A    2.50000E-01   1.25520E-01
  opls_804  C804    12.0110     0.000    A    3.50000E-01   2.76144E-01
  opls_827  H827     1.0080     0.000    A    2.50000E-01   1.25520E-01
  opls_839  H839     1.0080     0.000    A    2.50000E-01   1.25520E-01
  opls_801  C801    12.0110     0.000    A    3.50000E-01   2.76144E-01
  opls_808  C808    12.0110     0.000    A    3.50000E-01   2.76144E-01
  opls_817  H817     1.0080     0.000    A    2.50000E-01   1.25520E-01
  opls_814  O814    15.9990     0.000    A    2.96000E-01   8.78640E-01
  opls_829  H829     1.0080     0.000    A    2.50000E-01   1.25520E-01
  opls_840  H840     1.0080     0.000    A    2.50000E-01   1.25520E-01
  opls_807  C807    12.0110     0.000    A    3.50000E-01   2.76144E-01
[ moleculetype ]
; Name               nrexcl
UNK                   3
[ atoms ]
;   nr       type  resnr residue  atom   cgnr     charge       mass  
     1   opls_800      1    UNK   C00      1    -0.2388    12.0110 
     2   opls_801      1    UNK   C01      1    -0.1797    12.0110 
     3   opls_802      1    UNK   C02      1     -0.179    12.0110 
     4   opls_803      1    UNK   C03      1    -0.1771    12.0110 
     5   opls_804      1    UNK   C04      1    -0.0931    12.0110 
     6   opls_805      1    UNK   C05      1     -0.239    12.0110 
     7   opls_806      1    UNK   C06      1     -0.007    12.0110 
     8   opls_807      1    UNK   C07      1    -0.2386    12.0110 
     9   opls_808      1    UNK   C08      1    -0.2464    12.0110 
    10   opls_809      1    UNK   C09      1    -0.0684    12.0110 
    11   opls_810      1    UNK   C0A      1     -0.234    12.0110 
    12   opls_811      1    UNK   C0B      1    -0.2323    12.0110 
    13   opls_812      1    UNK   C0C      1     0.3683    12.0110 
    14   opls_813      1    UNK   C0D      1    -0.2976    12.0110 
    15   opls_814      1    UNK   O0E      1    -0.4562    15.9990 
    16   opls_815      1    UNK   H0F      1     0.0812     1.0080 
    17   opls_816      1    UNK   H0G      1     0.0812     1.0080 
    18   opls_817      1    UNK   H0H      1     0.0812     1.0080 
    19   opls_818      1    UNK   H0I      1     0.0885     1.0080 
    20   opls_819      1    UNK   H0J      1     0.0885     1.0080 
    21   opls_820      1    UNK   H0K      1     0.0897     1.0080 
    22   opls_821      1    UNK   H0M      1     0.0897     1.0080 
    23   opls_822      1    UNK   H0N      1     0.0901     1.0080 
    24   opls_823      1    UNK   H0O      1     0.0901     1.0080 
    25   opls_824      1    UNK   H0P      1     0.0957     1.0080 
    26   opls_825      1    UNK   H0Q      1     0.0813     1.0080 
    27   opls_826      1    UNK   H0R      1     0.0813     1.0080 
    28   opls_827      1    UNK   H0S      1     0.0813     1.0080 
    29   opls_828      1    UNK   H0T      1     0.0833     1.0080 
    30   opls_829      1    UNK   H0U      1     0.0833     1.0080 
    31   opls_830      1    UNK   H0V      1     0.0833     1.0080 
    32   opls_831      1    UNK   H0W      1     0.0895     1.0080 
    33   opls_832      1    UNK   H0X      2     0.0895     1.0080 
    34   opls_833      1    UNK   H0Y      2     0.0895     1.0080 
    35   opls_834      1    UNK   H0Z      2     0.0918     1.0080 
    36   opls_835      1    UNK   H10      2     0.0918     1.0080 
    37   opls_836      1    UNK   H11      2     0.0918     1.0080 
    38   opls_837      1    UNK   H12      2     0.0868     1.0080 
    39   opls_838      1    UNK   H13      2     0.0868     1.0080 
    40   opls_839      1    UNK   H14      2     0.0868     1.0080 
    41   opls_840      1    UNK   H15      2     0.1151     1.0080 
    42   opls_841      1    UNK   H16      2     0.1151     1.0080 
    43   opls_842      1    UNK   H17      2     0.1151     1.0080 
[ bonds ]
    2     1     1      0.1529 224262.400
    3     2     1      0.1529 224262.400
    4     3     1      0.1529 224262.400
    5     4     1      0.1529 224262.400
    6     5     1      0.1529 224262.400
    7     5     1      0.1529 224262.400
    8     7     1      0.1529 224262.400
    9     7     1      0.1529 224262.400
   10     7     1      0.1529 224262.400
   11    10     1      0.1529 224262.400
   12    10     1      0.1529 224262.400
   13    10     1      0.1522 265265.600
   14    13     1      0.1522 265265.600
   15    13     1      0.1229 476976.000
   16     1     1      0.1090 284512.000
   17     1     1      0.1090 284512.000
   18     1     1      0.1090 284512.000
   19     2     1      0.1090 284512.000
   20     2     1      0.1090 284512.000
   21     3     1      0.1090 284512.000
   22     3     1      0.1090 284512.000
   23     4     1      0.1090 284512.000
   24     4     1      0.1090 284512.000
   25     5     1      0.1090 284512.000
   26     6     1      0.1090 284512.000
   27     6     1      0.1090 284512.000
   28     6     1      0.1090 284512.000
   29     8     1      0.1090 284512.000
   30     8     1      0.1090 284512.000
   31     8     1      0.1090 284512.000
   32     9     1      0.1090 284512.000
   33     9     1      0.1090 284512.000
   34     9     1      0.1090 284512.000
   35    11     1      0.1090 284512.000
   36    11     1      0.1090 284512.000
   37    11     1      0.1090 284512.000
   38    12     1      0.1090 284512.000
   39    12     1      0.1090 284512.000
   40    12     1      0.1090 284512.000
   41    14     1      0.1090 284512.000
   42    14     1      0.1090 284512.000
   43    14     1      0.1090 284512.000

[ angles ]
;  ai    aj    ak funct            c0            c1            c2            c3 
    1     2     3     1    112.700    488.273
    2     3     4     1    112.700    488.273
    3     4     5     1    112.700    488.273
    4     5     6     1    112.700    488.273
    4     5     7     1    112.700    488.273
    5     7     8     1    112.700    488.273
    5     7     9     1    112.700    488.273
    5     7    10     1    112.700    488.273
    7    10    11     1    112.700    488.273
    7    10    12     1    112.700    488.273
    7    10    13     1    111.100    527.184
   10    13    14     1    116.000    585.760
   10    13    15     1    120.400    669.440
    2     1    16     1    110.700    313.800
    2     1    17     1    110.700    313.800
    2     1    18     1    110.700    313.800
    1     2    19     1    110.700    313.800
    1     2    20     1    110.700    313.800
    2     3    21     1    110.700    313.800
    2     3    22     1    110.700    313.800
    3     4    23     1    110.700    313.800
    3     4    24     1    110.700    313.800
    4     5    25     1    110.700    313.800
    5     6    26     1    110.700    313.800
    5     6    27     1    110.700    313.800
    5     6    28     1    110.700    313.800
    7     8    29     1    110.700    313.800
    7     8    30     1    110.700    313.800
    7     8    31     1    110.700    313.800
    7     9    32     1    110.700    313.800
    7     9    33     1    110.700    313.800
    7     9    34     1    110.700    313.800
   10    11    35     1    110.700    313.800
   10    11    36     1    110.700    313.800
   10    11    37     1    110.700    313.800
   10    12    38     1    110.700    313.800
   10    12    39     1    110.700    313.800
   10    12    40     1    110.700    313.800
   13    14    41     1    109.500    292.880
   13    14    42     1    109.500    292.880
   13    14    43     1    109.500    292.880
   35    11    37     1    107.800    276.144
   12    10    13     1    111.100    527.184
   41    14    43     1    107.800    276.144
   23     4    24     1    107.800    276.144
   41    14    42     1    107.800    276.144
   11    10    12     1    112.700    488.273
   16     1    18     1    107.800    276.144
   27     6    28     1    107.800    276.144
    5     4    24     1    110.700    313.800
    9     7    10     1    112.700    488.273
   35    11    36     1    107.800    276.144
   39    12    40     1    107.800    276.144
    4     3    22     1    110.700    313.800
    8     7    10     1    112.700    488.273
    8     7     9     1    112.700    488.273
    3     2    20     1    110.700    313.800
   14    13    15     1    120.400    669.440
   17     1    18     1    107.800    276.144
    5     4    23     1    110.700    313.800
   26     6    27     1    107.800    276.144
   11    10    13     1    111.100    527.184
   36    11    37     1    107.800    276.144
   38    12    39     1    107.800    276.144
   21     3    22     1    107.800    276.144
   29     8    31     1    107.800    276.144
    3     2    19     1    110.700    313.800
    7     5    25     1    110.700    313.800
   29     8    30     1    107.800    276.144
    4     3    21     1    110.700    313.800
   19     2    20     1    107.800    276.144
   32     9    34     1    107.800    276.144
   16     1    17     1    107.800    276.144
   30     8    31     1    107.800    276.144
    6     5    25     1    110.700    313.800
   32     9    33     1    107.800    276.144
   38    12    40     1    107.800    276.144
   26     6    28     1    107.800    276.144
   33     9    34     1    107.800    276.144
   42    14    43     1    107.800    276.144
    6     5     7     1    112.700    488.273

[ dihedrals ]
; IMPROPER DIHEDRAL ANGLES 
;  ai    aj    ak    al funct            c0            c1            c2            c3            c4            c5
    15    13    10    14    4        180.000     43.932     2  

[ dihedrals ]
; PROPER DIHEDRAL ANGLES
;  ai    aj    ak    al funct            c0            c1            c2            c3            c4            c5
   13   10    7    9        3      -4.960   6.286   1.310  -2.636  -0.000   0.000
   13   10    7    5        3      -4.960   6.286   1.310  -2.636  -0.000   0.000
   13   10    7    8        3      -4.960   6.286   1.310  -2.636  -0.000   0.000
   14   13   10   12        3       0.818  -7.906   0.602   6.485  -0.000   0.000
   14   13   10   11        3       0.818  -7.906   0.602   6.485  -0.000   0.000
   14   13   10    7        3       0.818  -7.906   0.602   6.485  -0.000   0.000
   11   10    7    9        3       2.301  -1.464   0.837  -1.674  -0.000   0.000
   12   10    7    9        3       2.301  -1.464   0.837  -1.674  -0.000   0.000
    9    7    5    6        3       2.301  -1.464   0.837  -1.674  -0.000   0.000
    9    7    5    4        3       2.301  -1.464   0.837  -1.674  -0.000   0.000
   11   10    7    8        3       2.301  -1.464   0.837  -1.674  -0.000   0.000
   12   10    7    8        3       2.301  -1.464   0.837  -1.674  -0.000   0.000
   10    7    5    6        3       2.301  -1.464   0.837  -1.674  -0.000   0.000
    7    5    4    3        3       2.301  -1.464   0.837  -1.674  -0.000   0.000
   10    7    5    4        3       2.301  -1.464   0.837  -1.674  -0.000   0.000
    4    3    2    1        3       2.301  -1.464   0.837  -1.674  -0.000   0.000
    8    7    5    6        3       2.301  -1.464   0.837  -1.674  -0.000   0.000
   11   10    7    5        3       2.301  -1.464   0.837  -1.674  -0.000   0.000
    8    7    5    4        3       2.301  -1.464   0.837  -1.674  -0.000   0.000
    6    5    4    3        3       2.301  -1.464   0.837  -1.674  -0.000   0.000
    5    4    3    2        3       2.301  -1.464   0.837  -1.674  -0.000   0.000
   12   10    7    5        3       2.301  -1.464   0.837  -1.674  -0.000   0.000
   41   14   13   10        3       0.575   1.726   0.000  -2.301  -0.000   0.000
   43   14   13   10        3       0.575   1.726   0.000  -2.301  -0.000   0.000
   42   14   13   10        3       0.575   1.726   0.000  -2.301  -0.000   0.000
   42   14   13   15        3       0.000   0.000   0.000  -0.000  -0.000   0.000
   43   14   13   15        3       0.000   0.000   0.000  -0.000  -0.000   0.000
   41   14   13   15        3       0.000   0.000   0.000  -0.000  -0.000   0.000
   40   12   10   13        3      -0.209  -0.628   0.000   0.837  -0.000   0.000
   36   11   10   13        3      -0.209  -0.628   0.000   0.837  -0.000   0.000
   37   11   10   13        3      -0.209  -0.628   0.000   0.837  -0.000   0.000
   39   12   10   13        3      -0.209  -0.628   0.000   0.837  -0.000   0.000
   38   12   10   13        3      -0.209  -0.628   0.000   0.837  -0.000   0.000
   35   11   10   13        3      -0.209  -0.628   0.000   0.837  -0.000   0.000
   21    3    4    5        3       0.628   1.883   0.000  -2.510  -0.000   0.000
   36   11   10   12        3       0.628   1.883   0.000  -2.510  -0.000   0.000
   23    4    3    2        3       0.628   1.883   0.000  -2.510  -0.000   0.000
   27    6    5    4        3       0.628   1.883   0.000  -2.510  -0.000   0.000
   33    9    7    5        3       0.628   1.883   0.000  -2.510  -0.000   0.000
   30    8    7    5        3       0.628   1.883   0.000  -2.510  -0.000   0.000
   18    1    2    3        3       0.628   1.883   0.000  -2.510  -0.000   0.000
   27    6    5    7        3       0.628   1.883   0.000  -2.510  -0.000   0.000
   34    9    7   10        3       0.628   1.883   0.000  -2.510  -0.000   0.000
   30    8    7    9        3       0.628   1.883   0.000  -2.510  -0.000   0.000
   24    4    5    6        3       0.628   1.883   0.000  -2.510  -0.000   0.000
   36   11   10    7        3       0.628   1.883   0.000  -2.510  -0.000   0.000
   26    6    5    7        3       0.628   1.883   0.000  -2.510  -0.000   0.000
   34    9    7    8        3       0.628   1.883   0.000  -2.510  -0.000   0.000
   32    9    7   10        3       0.628   1.883   0.000  -2.510  -0.000   0.000
   25    5    7    9        3       0.628   1.883   0.000  -2.510  -0.000   0.000
   22    3    4    5        3       0.628   1.883   0.000  -2.510  -0.000   0.000
   21    3    2    1        3       0.628   1.883   0.000  -2.510  -0.000   0.000
   37   11   10   12        3       0.628   1.883   0.000  -2.510  -0.000   0.000
   40   12   10   11        3       0.628   1.883   0.000  -2.510  -0.000   0.000
   24    4    3    2        3       0.628   1.883   0.000  -2.510  -0.000   0.000
   22    3    2    1        3       0.628   1.883   0.000  -2.510  -0.000   0.000
   25    5    7    8        3       0.628   1.883   0.000  -2.510  -0.000   0.000
   33    9    7    8        3       0.628   1.883   0.000  -2.510  -0.000   0.000
   17    1    2    3        3       0.628   1.883   0.000  -2.510  -0.000   0.000
   39   12   10   11        3       0.628   1.883   0.000  -2.510  -0.000   0.000
   39   12   10    7        3       0.628   1.883   0.000  -2.510  -0.000   0.000
   23    4    5    7        3       0.628   1.883   0.000  -2.510  -0.000   0.000
   31    8    7   10        3       0.628   1.883   0.000  -2.510  -0.000   0.000
   34    9    7    5        3       0.628   1.883   0.000  -2.510  -0.000   0.000
   19    2    3    4        3       0.628   1.883   0.000  -2.510  -0.000   0.000
   33    9    7   10        3       0.628   1.883   0.000  -2.510  -0.000   0.000
   23    4    5    6        3       0.628   1.883   0.000  -2.510  -0.000   0.000
   40   12   10    7        3       0.628   1.883   0.000  -2.510  -0.000   0.000
   32    9    7    5        3       0.628   1.883   0.000  -2.510  -0.000   0.000
   38   12   10    7        3       0.628   1.883   0.000  -2.510  -0.000   0.000
   29    8    7    5        3       0.628   1.883   0.000  -2.510  -0.000   0.000
   35   11   10   12        3       0.628   1.883   0.000  -2.510  -0.000   0.000
   31    8    7    9        3       0.628   1.883   0.000  -2.510  -0.000   0.000
   30    8    7   10        3       0.628   1.883   0.000  -2.510  -0.000   0.000
   25    5    4    3        3       0.628   1.883   0.000  -2.510  -0.000   0.000
   26    6    5    4        3       0.628   1.883   0.000  -2.510  -0.000   0.000
   38   12   10   11        3       0.628   1.883   0.000  -2.510  -0.000   0.000
   28    6    5    4        3       0.628   1.883   0.000  -2.510  -0.000   0.000
   35   11   10    7        3       0.628   1.883   0.000  -2.510  -0.000   0.000
   29    8    7    9        3       0.628   1.883   0.000  -2.510  -0.000   0.000
   24    4    5    7        3       0.628   1.883   0.000  -2.510  -0.000   0.000
   16    1    2    3        3       0.628   1.883   0.000  -2.510  -0.000   0.000
   29    8    7   10        3       0.628   1.883   0.000  -2.510  -0.000   0.000
   20    2    3    4        3       0.628   1.883   0.000  -2.510  -0.000   0.000
   28    6    5    7        3       0.628   1.883   0.000  -2.510  -0.000   0.000
   31    8    7    5        3       0.628   1.883   0.000  -2.510  -0.000   0.000
   25    5    7   10        3       0.628   1.883   0.000  -2.510  -0.000   0.000
   37   11   10    7        3       0.628   1.883   0.000  -2.510  -0.000   0.000
   32    9    7    8        3       0.628   1.883   0.000  -2.510  -0.000   0.000
   19    2    1   17        3       0.628   1.883   0.000  -2.510  -0.000   0.000
   20    2    1   16        3       0.628   1.883   0.000  -2.510  -0.000   0.000
   28    6    5   25        3       0.628   1.883   0.000  -2.510  -0.000   0.000
   23    4    3   21        3       0.628   1.883   0.000  -2.510  -0.000   0.000
   24    4    3   22        3       0.628   1.883   0.000  -2.510  -0.000   0.000
   27    6    5   25        3       0.628   1.883   0.000  -2.510  -0.000   0.000
   22    3    2   19        3       0.628   1.883   0.000  -2.510  -0.000   0.000
   26    6    5   25        3       0.628   1.883   0.000  -2.510  -0.000   0.000
   24    4    3   21        3       0.628   1.883   0.000  -2.510  -0.000   0.000
   23    4    3   22        3       0.628   1.883   0.000  -2.510  -0.000   0.000
   19    2    1   16        3       0.628   1.883   0.000  -2.510  -0.000   0.000
   21    3    2   19        3       0.628   1.883   0.000  -2.510  -0.000   0.000
   20    2    1   17        3       0.628   1.883   0.000  -2.510  -0.000   0.000
   19    2    1   18        3       0.628   1.883   0.000  -2.510  -0.000   0.000
   25    5    4   23        3       0.628   1.883   0.000  -2.510  -0.000   0.000
   20    2    1   18        3       0.628   1.883   0.000  -2.510  -0.000   0.000
   21    3    2   20        3       0.628   1.883   0.000  -2.510  -0.000   0.000
   25    5    4   24        3       0.628   1.883   0.000  -2.510  -0.000   0.000
   22    3    2   20        3       0.628   1.883   0.000  -2.510  -0.000   0.000
   15   13   10   11        3       0.000   0.000   0.000  -0.000  -0.000   0.000
   15   13   10   12        3       0.000   0.000   0.000  -0.000  -0.000   0.000
   15   13   10    7        3       0.000   0.000   0.000  -0.000  -0.000   0.000

[ pairs ]
     1     4    1
     2     5    1
     3     6    1
     3     7    1
     4     8    1
     4     9    1
     6     8    1
     4    10    1
     6     9    1
     6    10    1
     5    11    1
     5    12    1
     5    13    1
     8    11    1
     3    16    1
     9    11    1
     8    12    1
     3    17    1
     9    12    1
     8    13    1
     7    14    1
     3    18    1
     9    13    1
     7    15    1
     1    21    1
     4    19    1
     1    22    1
     4    20    1
    11    14    1
     2    23    1
    12    14    1
    11    15    1
     5    21    1
     2    24    1
    12    15    1
     5    22    1
     3    25    1
     6    23    1
     7    23    1
     6    24    1
     4    26    1
     7    24    1
     4    27    1
     4    28    1
     8    25    1
     7    26    1
     9    25    1
     7    27    1
     5    29    1
    16    19    1
    10    25    1
     7    28    1
     5    30    1
    17    19    1
    16    20    1
     5    31    1
    18    19    1
    17    20    1
     5    32    1
    18    20    1
     9    29    1
     5    33    1
    10    29    1
     9    30    1
     5    34    1
    19    21    1
    10    30    1
     9    31    1
     8    32    1
    20    21    1
    19    22    1
    10    31    1
     8    33    1
    20    22    1
    10    32    1
     8    34    1
     7    35    1
    10    33    1
     7    36    1
    21    23    1
    10    34    1
     7    37    1
    22    23    1
    21    24    1
     7    38    1
    22    24    1
     7    39    1
    12    35    1
     7    40    1
    23    25    1
    13    35    1
    12    36    1
    24    25    1
    13    36    1
    12    37    1
    11    38    1
    13    37    1
    11    39    1
    25    26    1
    13    38    1
    11    40    1
    10    41    1
    25    27    1
    13    39    1
    10    42    1
    25    28    1
    13    40    1
    10    43    1
    15    41    1
    15    42    1
    15    43    1

