LIGPARGEN GENERATED GRO FILE
   43
    1UNK    C00    1   0.100   0.100   0.000
    1UNK    C01    2  -0.052   0.100   0.000
    1UNK    C02    3  -0.107   0.100   0.143
    1UNK    C03    4  -0.261   0.100   0.144
    1UNK    C04    5  -0.326   0.094   0.286
    1UNK    C05    6  -0.283   0.219   0.365
    1UNK    C06    7  -0.485   0.067   0.283
    1UNK    C07    8  -0.554   0.178   0.200
    1UNK    C08    9  -0.506  -0.066   0.204
    1UNK    C09   10  -0.555   0.052   0.429
    1UNK    C0A   11  -0.490  -0.063   0.510
    1UNK    C0B   12  -0.548   0.177   0.519
    1UNK    C0C   13  -0.707   0.014   0.416
    1UNK    C0D   14  -0.812   0.123   0.416
    1UNK    O0E   15  -0.744  -0.104   0.410
    1UNK    H0F   16   0.138   0.100  -0.102
    1UNK    H0G   17   0.139   0.011   0.051
    1UNK    H0H   18   0.139   0.189   0.051
    1UNK    H0I   19  -0.088   0.012  -0.054
    1UNK    H0J   20  -0.088   0.188  -0.054
    1UNK    H0K   21  -0.068   0.189   0.193
    1UNK    H0M   22  -0.070   0.012   0.197
    1UNK    H0N   23  -0.292   0.014   0.085
    1UNK    H0O   24  -0.296   0.190   0.091
    1UNK    H0P   25  -0.279   0.007   0.336
    1UNK    H0Q   26  -0.338   0.308   0.334
    1UNK    H0R   27  -0.177   0.241   0.353
    1UNK    H0S   28  -0.294   0.204   0.472
    1UNK    H0T   29  -0.518   0.178   0.096
    1UNK    H0U   30  -0.536   0.277   0.241
    1UNK    H0V   31  -0.662   0.162   0.193
    1UNK    H0W   32  -0.487  -0.054   0.097
    1UNK    H0X   33  -0.608  -0.103   0.209
    1UNK    H0Y   34  -0.439  -0.145   0.240
    1UNK    H0Z   35  -0.383  -0.045   0.528
    1UNK    H10   36  -0.500  -0.160   0.460
    1UNK    H11   37  -0.538  -0.073   0.608
    1UNK    H12   38  -0.455   0.182   0.577
    1UNK    H13   39  -0.627   0.176   0.595
    1UNK    H14   40  -0.559   0.271   0.463
    1UNK    H15   41  -0.772   0.218   0.382
    1UNK    H16   42  -0.852   0.134   0.517
    1UNK    H17   43  -0.893   0.094   0.348
   1.00000   1.00000   1.00000

