LIGPARGEN GENERATED GRO FILE
   58
    1UNK    C00    1   0.100   0.100   0.000
    1UNK    C01    2  -0.052   0.100   0.000
    1UNK    C02    3  -0.117   0.100   0.140
    1UNK    C03    4  -0.091   0.231   0.222
    1UNK    C04    5  -0.128   0.368   0.158
    1UNK    C05    6  -0.279   0.394   0.139
    1UNK    C06    7  -0.082   0.483   0.249
    1UNK    C07    8   0.066   0.514   0.292
    1UNK    C08    9   0.181   0.477   0.200
    1UNK    C09   10   0.025   0.666   0.288
    1UNK    C0A   11  -0.032   0.730   0.416
    1UNK    C0B   12   0.072   0.735   0.526
    1UNK    C0C   13  -0.082   0.625   0.181
    1UNK    C0D   14  -0.212   0.704   0.172
    1UNK    C0E   15  -0.268   0.073   0.126
    1UNK    C0F   16  -0.324  -0.060   0.069
    1UNK    C0G   17  -0.445  -0.042   0.165
    1UNK    C0H   18  -0.566   0.033   0.110
    1UNK    C0I   19  -0.348   0.039   0.257
    1UNK    C0J   20  -0.410   0.146   0.347
    1UNK    H0K   21   0.137   0.130  -0.099
    1UNK    H0M   22   0.139  -0.000   0.021
    1UNK    H0N   23   0.143   0.169   0.073
    1UNK    H0O   24  -0.085   0.011  -0.055
    1UNK    H0P   25  -0.089   0.186  -0.058
    1UNK    H0Q   26  -0.073   0.017   0.197
    1UNK    H0R   27   0.017   0.233   0.244
    1UNK    H0S   28  -0.137   0.222   0.320
    1UNK    H0T   29  -0.078   0.375   0.061
    1UNK    H0U   30  -0.322   0.451   0.222
    1UNK    H0V   31  -0.343   0.308   0.132
    1UNK    H0W   32  -0.294   0.451   0.048
    1UNK    H0X   33  -0.143   0.480   0.341
    1UNK    H0Y   34   0.088   0.477   0.392
    1UNK    H0Z   35   0.163   0.506   0.096
    1UNK    H10   36   0.199   0.369   0.203
    1UNK    H11   37   0.273   0.527   0.233
    1UNK    H12   38   0.102   0.732   0.247
    1UNK    H13   39  -0.119   0.674   0.453
    1UNK    H14   40  -0.066   0.832   0.394
    1UNK    H15   41   0.103   0.634   0.556
    1UNK    H16   42   0.031   0.784   0.615
    1UNK    H17   43   0.161   0.789   0.494
    1UNK    H18   44  -0.038   0.623   0.080
    1UNK    H19   45  -0.269   0.700   0.265
    1UNK    H1A   46  -0.275   0.665   0.092
    1UNK    H1B   47  -0.192   0.809   0.148
    1UNK    H1C   48  -0.310   0.149   0.060
    1UNK    H1D   49  -0.262  -0.148   0.091
    1UNK    H1E   50  -0.347  -0.058  -0.038
    1UNK    H1F   51  -0.478  -0.136   0.210
    1UNK    H1G   52  -0.540   0.131   0.069
    1UNK    H1H   53  -0.641   0.049   0.189
    1UNK    H1I   54  -0.614  -0.025   0.030
    1UNK    H1J   55  -0.290  -0.029   0.322
    1UNK    H1K   56  -0.469   0.219   0.290
    1UNK    H1M   57  -0.333   0.200   0.401
    1UNK    H1N   58  -0.475   0.100   0.421
   1.00000   1.00000   1.00000

