LIGPARGEN GENERATED GRO FILE
   29
    1UNK    C00    1   0.100   0.100   0.000
    1UNK    C01    2  -0.052   0.100   0.000
    1UNK    C02    3  -0.110   0.100   0.141
    1UNK    O03    4  -0.045   0.065   0.239
    1UNK    C04    5  -0.258   0.129   0.152
    1UNK    C05    6  -0.290   0.260   0.084
    1UNK    C06    7  -0.246   0.274  -0.060
    1UNK    C07    8  -0.283   0.404  -0.114
    1UNK    N08    9  -0.320   0.504  -0.159
    1UNK    C09   10  -0.232   0.171  -0.174
    1UNK    C0A   11  -0.294   0.033  -0.188
    1UNK    C0B   12  -0.440   0.004  -0.213
    1UNK    C0C   13  -0.344  -0.009  -0.327
    1UNK    C0D   14  -0.111   0.210  -0.089
    1UNK    H0E   15   0.138   0.012   0.053
    1UNK    H0F   16   0.141   0.189   0.049
    1UNK    H0G   17   0.139   0.095  -0.103
    1UNK    H0H   18  -0.078   0.002  -0.040
    1UNK    H0I   19  -0.284   0.135   0.258
    1UNK    H0J   20  -0.314   0.046   0.108
    1UNK    H0K   21  -0.238   0.339   0.141
    1UNK    H0M   22  -0.397   0.281   0.094
    1UNK    H0N   23  -0.224   0.218  -0.274
    1UNK    H0O   24  -0.244  -0.048  -0.136
    1UNK    H0P   25  -0.509   0.087  -0.214
    1UNK    H0Q   26  -0.481  -0.088  -0.173
    1UNK    H0R   27  -0.350   0.066  -0.405
    1UNK    H0S   28  -0.315  -0.107  -0.362
    1UNK    H0T   29  -0.034   0.274  -0.131
   1.00000   1.00000   1.00000

