
;
; GENERATED BY LigParGen Server
; Jorgensen Lab @ Yale University 
;
[ atomtypes ]
  opls_818  H818     1.0080     0.000    A    2.50000E-01   1.25520E-01
  opls_810  C810    12.0110     0.000    A    3.45000E-01   3.47272E-01
  opls_824  H824     1.0080     0.000    A    2.50000E-01   1.25520E-01
  opls_806  C806    12.0110     0.000    A    3.45000E-01   3.47272E-01
  opls_805  C805    12.0110     0.000    A    3.50000E-01   2.76144E-01
  opls_828  H828     1.0080     0.000    A    2.50000E-01   1.25520E-01
  opls_803  O803    15.9990     0.000    A    2.96000E-01   8.78640E-01
  opls_815  H815     1.0080     0.000    A    2.50000E-01   1.25520E-01
  opls_801  C801    12.0110     0.000    A    3.50000E-01   2.76144E-01
  opls_822  H822     1.0080     0.000    A    2.50000E-01   1.25520E-01
  opls_825  H825     1.0080     0.000    A    2.50000E-01   1.25520E-01
  opls_807  C807    12.0110     0.000    A    3.30000E-01   2.76144E-01
  opls_814  H814     1.0080     0.000    A    2.50000E-01   1.25520E-01
  opls_821  H821     1.0080     0.000    A    2.50000E-01   1.25520E-01
  opls_808  N808    14.0070     0.000    A    3.20000E-01   7.11280E-01
  opls_820  H820     1.0080     0.000    A    2.50000E-01   1.25520E-01
  opls_826  H826     1.0080     0.000    A    2.50000E-01   1.25520E-01
  opls_816  H816     1.0080     0.000    A    2.50000E-01   1.25520E-01
  opls_800  C800    12.0110     0.000    A    3.50000E-01   2.76144E-01
  opls_813  C813    12.0110     0.000    A    3.45000E-01   3.47272E-01
  opls_823  H823     1.0080     0.000    A    2.50000E-01   1.25520E-01
  opls_802  C802    12.0110     0.000    A    3.55000E-01   2.92880E-01
  opls_811  C811    12.0110     0.000    A    3.45000E-01   3.47272E-01
  opls_819  H819     1.0080     0.000    A    2.50000E-01   1.25520E-01
  opls_804  C804    12.0110     0.000    A    3.50000E-01   2.76144E-01
  opls_827  H827     1.0080     0.000    A    2.50000E-01   1.25520E-01
  opls_817  H817     1.0080     0.000    A    2.50000E-01   1.25520E-01
  opls_809  C809    12.0110     0.000    A    3.45000E-01   3.47272E-01
  opls_812  C812    12.0110     0.000    A    3.45000E-01   3.47272E-01
[ moleculetype ]
; Name               nrexcl
UNK                   3
[ atoms ]
;   nr       type  resnr residue  atom   cgnr     charge       mass  
     1   opls_800      1    UNK   C00      1    -0.2298    12.0110 
     2   opls_801      1    UNK   C01      1    -0.1391    12.0110 
     3   opls_802      1    UNK   C02      1     0.3726    12.0110 
     4   opls_803      1    UNK   O03      1    -0.4385    15.9990 
     5   opls_804      1    UNK   C04      1    -0.2333    12.0110 
     6   opls_805      1    UNK   C05      1    -0.1229    12.0110 
     7   opls_806      1    UNK   C06      1    -0.0163    12.0110 
     8   opls_807      1    UNK   C07      1     0.1613    12.0110 
     9   opls_808      1    UNK   N08      1    -0.3474    14.0070 
    10   opls_809      1    UNK   C09      1    -0.1048    12.0110 
    11   opls_810      1    UNK   C0A      1    -0.1654    12.0110 
    12   opls_811      1    UNK   C0B      1    -0.2136    12.0110 
    13   opls_812      1    UNK   C0C      1    -0.2445    12.0110 
    14   opls_813      1    UNK   C0D      1     -0.139    12.0110 
    15   opls_814      1    UNK   H0E      1     0.0967     1.0080 
    16   opls_815      1    UNK   H0F      1     0.0967     1.0080 
    17   opls_816      1    UNK   H0G      1     0.0967     1.0080 
    18   opls_817      1    UNK   H0H      1     0.1344     1.0080 
    19   opls_818      1    UNK   H0I      1     0.1327     1.0080 
    20   opls_819      1    UNK   H0J      1     0.1327     1.0080 
    21   opls_820      1    UNK   H0K      1     0.1119     1.0080 
    22   opls_821      1    UNK   H0M      1     0.1119     1.0080 
    23   opls_822      1    UNK   H0N      1     0.1429     1.0080 
    24   opls_823      1    UNK   H0O      1      0.131     1.0080 
    25   opls_824      1    UNK   H0P      1     0.1304     1.0080 
    26   opls_825      1    UNK   H0Q      1     0.1304     1.0080 
    27   opls_826      1    UNK   H0R      1     0.1294     1.0080 
    28   opls_827      1    UNK   H0S      1     0.1294     1.0080 
    29   opls_828      1    UNK   H0T      1     0.1539     1.0080 
[ bonds ]
    2     1     1      0.1529 224262.400
    3     2     1      0.1522 265265.600
    4     3     1      0.1229 476976.000
    5     3     1      0.1522 265265.600
    6     5     1      0.1529 224262.400
    7     6     1      0.1510 234304.000
    8     7     1      0.1451 334720.000
    9     8     1      0.1157 543920.000
   10     7     1      0.1520 217568.000
   11    10     1      0.1520 217568.000
   12    11     1      0.1520 217568.000
   13    11     1      0.1520 217568.000
   14     2     1      0.1510 234304.000
   15     1     1      0.1090 284512.000
   16     1     1      0.1090 284512.000
   17     1     1      0.1090 284512.000
   18     2     1      0.1090 284512.000
   19     5     1      0.1090 284512.000
   20     5     1      0.1090 284512.000
   21     6     1      0.1090 284512.000
   22     6     1      0.1090 284512.000
   23    10     1      0.1088 284512.000
   24    11     1      0.1088 284512.000
   25    12     1      0.1088 284512.000
   26    12     1      0.1088 284512.000
   27    13     1      0.1088 284512.000
   28    13     1      0.1088 284512.000
   29    14     1      0.1088 284512.000
   14     7     1      0.1520 217568.000
   14    10     1      0.1520 217568.000
   13    12     1      0.1520 217568.000

[ angles ]
;  ai    aj    ak funct            c0            c1            c2            c3 
    1     2     3     1    111.100    527.184
    2     3     4     1    120.400    669.440
    2     3     5     1    116.000    585.760
    3     5     6     1    111.100    527.184
    5     6     7     1    112.700    488.273
    6     7     8     1    112.700    488.273
    7     8     9     1    180.000   1255.200
    6     7    10     1    117.200    313.800
    7    10    11     1     83.000    251.040
   10    11    12     1     83.000    251.040
   10    11    13     1     83.000    251.040
    1     2    14     1    112.700    488.273
    2     1    15     1    110.700    313.800
    2     1    16     1    110.700    313.800
    2     1    17     1    110.700    313.800
    1     2    18     1    110.700    313.800
    3     5    19     1    109.500    292.880
    3     5    20     1    109.500    292.880
    5     6    21     1    110.700    313.800
    5     6    22     1    110.700    313.800
    7    10    23     1    117.200    313.800
   10    11    24     1    117.200    313.800
   11    12    25     1    117.200    313.800
   11    12    26     1    117.200    313.800
   11    13    27     1    117.200    313.800
   11    13    28     1    117.200    313.800
    2    14    29     1    114.300    292.880
   16     1    17     1    107.800    276.144
   12    11    24     1    117.200    313.800
    3     2    14     1    111.100    527.184
   14    10    23     1    117.200    313.800
    7    10    14     1     83.000    251.040
    3     2    18     1    109.500    292.880
   21     6    22     1    107.800    276.144
    8     7    10     1    109.430    358.401
   11    10    14     1     83.000    251.040
   19     5    20     1    107.800    276.144
    6     5    19     1    110.700    313.800
    4     3     5     1    120.400    669.440
    7    14    29     1    117.200    313.800
   11    10    23     1    117.200    313.800
   13    11    24     1    117.200    313.800
   12    13    27     1    117.200    313.800
   25    12    26     1    114.300    292.880
   14     2    18     1    110.700    313.800
   15     1    16     1    107.800    276.144
    6     5    20     1    110.700    313.800
    2    14    10     1    117.200    313.800
   13    12    26     1    117.200    313.800
   11    13    12     1     83.000    251.040
   15     1    17     1    107.800    276.144
   12    13    28     1    117.200    313.800
    7    14    10     1     83.000    251.040
   12    11    13     1     83.000    251.040
   13    12    25     1    117.200    313.800
   10     7    14     1     83.000    251.040
    6     7    14     1    117.200    313.800
    8     7    14     1    109.430    358.401
   11    12    13     1     83.000    251.040
    2    14     7     1    117.200    313.800
    7     6    21     1    110.700    313.800
   10    14    29     1    117.200    313.800
   27    13    28     1    114.300    292.880
    7     6    22     1    110.700    313.800

[ dihedrals ]
; IMPROPER DIHEDRAL ANGLES 
;  ai    aj    ak    al funct            c0            c1            c2            c3            c4            c5
     5     3     2     4    4        180.000     43.932     2  

[ dihedrals ]
; PROPER DIHEDRAL ANGLES
;  ai    aj    ak    al funct            c0            c1            c2            c3            c4            c5
    5    3    2    1        3       0.818  -7.906   0.602   6.485  -0.000   0.000
    6    5    3    2        3       0.818  -7.906   0.602   6.485  -0.000   0.000
    6    5    3    4        3       0.000   0.000   0.000  -0.000  -0.000   0.000
    6    7   14    2        3       0.000   0.000   0.000  -0.000  -0.000   0.000
   14    2    3    5        3       0.818  -7.906   0.602   6.485  -0.000   0.000
   14    2    3    4        3       0.000   0.000   0.000  -0.000  -0.000   0.000
    7    6    5    3        3      -4.960   6.286   1.310  -2.636  -0.000   0.000
    7   14    2    3        3      -4.960   6.286   1.310  -2.636  -0.000   0.000
   10   14    2    3        3      -4.960   6.286   1.310  -2.636  -0.000   0.000
    7   14    2    1        3       0.000   0.000   0.000  -0.000  -0.000   0.000
   10   14    2    1        3       0.000   0.000   0.000  -0.000  -0.000   0.000
   10    7    6    5        3       0.000   0.000   0.000  -0.000  -0.000   0.000
   14    7    6    5        3       0.000   0.000   0.000  -0.000  -0.000   0.000
   11   10   14    2        3       0.000   0.000   0.000  -0.000  -0.000   0.000
   11   10    7    6        3       0.000   0.000   0.000  -0.000  -0.000   0.000
   13   11   10    7        3       0.000   0.000   0.000  -0.000  -0.000   0.000
   11   10   14    7        3       0.000   0.000   0.000  -0.000  -0.000   0.000
   14   10   11   12        3       0.000   0.000   0.000  -0.000  -0.000   0.000
   13   11   10   12        3       0.000   0.000   0.000  -0.000  -0.000   0.000
   12   11   10    7        3       0.000   0.000   0.000  -0.000  -0.000   0.000
   14   10   11   13        3       0.000   0.000   0.000  -0.000  -0.000   0.000
   11   10    7    8        3       0.000   0.000   0.000  -0.000  -0.000   0.000
   10    7    8    9        3       0.000   0.000   0.000  -0.000  -0.000   0.000
   14    7    8    9        3       0.000   0.000   0.000  -0.000  -0.000   0.000
    8    7    6    5        3       0.000   0.000   0.000  -0.000  -0.000   0.000
    8    7   14    2        3       0.000   0.000   0.000  -0.000  -0.000   0.000
   18    2    3    5        3       0.575   1.726   0.000  -2.301  -0.000   0.000
   20    5    3    2        3       0.575   1.726   0.000  -2.301  -0.000   0.000
   19    5    3    2        3       0.575   1.726   0.000  -2.301  -0.000   0.000
   19    5    3    4        3       0.000   0.000   0.000  -0.000  -0.000   0.000
   18    2    3    4        3       0.000   0.000   0.000  -0.000  -0.000   0.000
   20    5    3    4        3       0.000   0.000   0.000  -0.000  -0.000   0.000
   17    1    2    3        3      -0.209  -0.628   0.000   0.837  -0.000   0.000
   21    6    5    3        3      -0.209  -0.628   0.000   0.837  -0.000   0.000
   22    6    5    3        3      -0.209  -0.628   0.000   0.837  -0.000   0.000
   15    1    2    3        3      -0.209  -0.628   0.000   0.837  -0.000   0.000
   16    1    2    3        3      -0.209  -0.628   0.000   0.837  -0.000   0.000
   19    5    6    7        3       0.628   1.883   0.000  -2.510  -0.000   0.000
   16    1    2   14        3       0.628   1.883   0.000  -2.510  -0.000   0.000
   20    5    6    7        3       0.628   1.883   0.000  -2.510  -0.000   0.000
   17    1    2   14        3       0.628   1.883   0.000  -2.510  -0.000   0.000
   15    1    2   14        3       0.628   1.883   0.000  -2.510  -0.000   0.000
   18    2    1   17        3       0.628   1.883   0.000  -2.510  -0.000   0.000
   18    2    1   15        3       0.628   1.883   0.000  -2.510  -0.000   0.000
   18    2    1   16        3       0.628   1.883   0.000  -2.510  -0.000   0.000
   21    6    5   19        3       0.628   1.883   0.000  -2.510  -0.000   0.000
   22    6    5   19        3       0.628   1.883   0.000  -2.510  -0.000   0.000
   21    6    5   20        3       0.628   1.883   0.000  -2.510  -0.000   0.000
   22    6    5   20        3       0.628   1.883   0.000  -2.510  -0.000   0.000
   22    6    7   14        3       0.628   1.883   0.000  -2.510  -0.000   0.000
   21    6    7   14        3       0.628   1.883   0.000  -2.510  -0.000   0.000
   21    6    7   10        3       0.628   1.883   0.000  -2.510  -0.000   0.000
   18    2   14    7        3       0.628   1.883   0.000  -2.510  -0.000   0.000
   22    6    7   10        3       0.628   1.883   0.000  -2.510  -0.000   0.000
   18    2   14   10        3       0.628   1.883   0.000  -2.510  -0.000   0.000
   22    6    7    8        3       0.628   1.883   0.000  -2.510  -0.000   0.000
   21    6    7    8        3       0.628   1.883   0.000  -2.510  -0.000   0.000
   29   14    2    3        3      -0.209  -0.628   0.000   0.837  -0.000   0.000
   29   14    2    1        3       0.628   1.883   0.000  -2.510  -0.000   0.000
   29   14    2   18        3       0.628   1.883   0.000  -2.510  -0.000   0.000
   23   10   14    2        3       0.000   0.000   0.000  -0.000  -0.000   0.000
   23   10    7    6        3       0.000   0.000   0.000  -0.000  -0.000   0.000
   29   14    7    6        3       0.000   0.000   0.000  -0.000  -0.000   0.000
   28   13   11   12        3       0.000   0.000   0.000  -0.000  -0.000   0.000
   26   12   11   13        3       0.000   0.000   0.000  -0.000  -0.000   0.000
   23   10   11   13        3       0.000   0.000   0.000  -0.000  -0.000   0.000
   24   11   10   14        3       0.000   0.000   0.000  -0.000  -0.000   0.000
   23   10   14    7        3       0.000   0.000   0.000  -0.000  -0.000   0.000
   29   14   10   11        3       0.000   0.000   0.000  -0.000  -0.000   0.000
   24   11   12   13        3       0.000   0.000   0.000  -0.000  -0.000   0.000
   25   12   11   13        3       0.000   0.000   0.000  -0.000  -0.000   0.000
   27   13   12   11        3       0.000   0.000   0.000  -0.000  -0.000   0.000
   25   12   13   11        3       0.000   0.000   0.000  -0.000  -0.000   0.000
   29   14    7   10        3       0.000   0.000   0.000  -0.000  -0.000   0.000
   27   13   11   10        3       0.000   0.000   0.000  -0.000  -0.000   0.000
   25   12   11   10        3       0.000   0.000   0.000  -0.000  -0.000   0.000
   24   11   10    7        3       0.000   0.000   0.000  -0.000  -0.000   0.000
   23   10   11   12        3       0.000   0.000   0.000  -0.000  -0.000   0.000
   28   13   11   10        3       0.000   0.000   0.000  -0.000  -0.000   0.000
   26   12   13   11        3       0.000   0.000   0.000  -0.000  -0.000   0.000
   23   10    7   14        3       0.000   0.000   0.000  -0.000  -0.000   0.000
   26   12   11   10        3       0.000   0.000   0.000  -0.000  -0.000   0.000
   29   14   10    7        3       0.000   0.000   0.000  -0.000  -0.000   0.000
   24   11   13   12        3       0.000   0.000   0.000  -0.000  -0.000   0.000
   27   13   11   12        3       0.000   0.000   0.000  -0.000  -0.000   0.000
   28   13   12   11        3       0.000   0.000   0.000  -0.000  -0.000   0.000
   23   10    7    8        3       0.000   0.000   0.000  -0.000  -0.000   0.000
   29   14    7    8        3       0.000   0.000   0.000  -0.000  -0.000   0.000
   28   13   11   24        3       0.000   0.000   0.000  -0.000  -0.000   0.000
   28   13   12   25        3       0.000   0.000   0.000  -0.000  -0.000   0.000
   24   11   10   23        3       0.000   0.000   0.000  -0.000  -0.000   0.000
   29   14   10   23        3       0.000   0.000   0.000  -0.000  -0.000   0.000
   28   13   12   26        3       0.000   0.000   0.000  -0.000  -0.000   0.000
   27   13   12   25        3       0.000   0.000   0.000  -0.000  -0.000   0.000
   27   13   11   24        3       0.000   0.000   0.000  -0.000  -0.000   0.000
   25   12   11   24        3       0.000   0.000   0.000  -0.000  -0.000   0.000
   26   12   11   24        3       0.000   0.000   0.000  -0.000  -0.000   0.000
   27   13   12   26        3       0.000   0.000   0.000  -0.000  -0.000   0.000
    9    8    7    6        3       0.000   0.000   0.000  -0.000  -0.000   0.000
    4    3    2    1        3       0.000   0.000   0.000  -0.000  -0.000   0.000

[ pairs ]
     1     4    1
     1     5    1
     2     6    1
     1     7    1
     4     6    1
     3     7    1
     2     8    1
     1    10    1
     5     8    1
     3    10    1
     2    11    1
     6     9    1
     5    10    1
     6    11    1
     4    14    1
     3    15    1
     9    10    1
     8    11    1
     7    12    1
     5    14    1
     3    16    1
     7    13    1
     3    17    1
     2    19    1
     4    18    1
     2    20    1
     9    14    1
     5    18    1
     4    19    1
     4    20    1
     3    21    1
     7    18    1
     3    22    1
     2    23    1
    12    14    1
     7    19    1
    13    14    1
     7    20    1
    10    18    1
    14    15    1
     8    21    1
     6    23    1
    14    16    1
     8    22    1
     1    29    1
    14    17    1
    10    21    1
     8    23    1
     7    24    1
    10    22    1
     3    29    1
    15    18    1
    16    18    1
    17    18    1
    14    21    1
    12    23    1
    10    25    1
     6    29    1
    14    22    1
    13    23    1
    10    26    1
    10    27    1
     8    29    1
    14    24    1
    10    28    1
    19    21    1
    11    29    1
    20    21    1
    19    22    1
    20    22    1
    23    24    1
    18    29    1
    24    25    1
    24    26    1
    24    27    1
    25    27    1
    24    28    1
    23    29    1
    26    27    1
    25    28    1
    26    28    1

