LIGPARGEN GENERATED GRO FILE
   47
    1UNK    C00    1   0.100   0.100   0.000
    1UNK    C01    2  -0.052   0.100   0.000
    1UNK    C02    3  -0.111   0.100   0.143
    1UNK    C03    4  -0.267   0.106   0.158
    1UNK    C04    5  -0.305   0.105   0.315
    1UNK    C05    6  -0.250  -0.014   0.395
    1UNK    C06    7  -0.260   0.234   0.391
    1UNK    C07    8  -0.294   0.237   0.540
    1UNK    C08    9  -0.322   0.235   0.089
    1UNK    C09   10  -0.464   0.207   0.040
    1UNK    C0A   11  -0.573   0.259   0.134
    1UNK    C0B   12  -0.464   0.058   0.005
    1UNK    C0C   13  -0.592  -0.023   0.023
    1UNK    C0D   14  -0.634  -0.107  -0.095
    1UNK    O0E   15  -0.656  -0.024   0.128
    1UNK    C0F   16  -0.337  -0.005   0.070
    1UNK    C0G   17  -0.355  -0.144   0.128
    1UNK    H0H   18   0.137   0.090  -0.103
    1UNK    H0I   19   0.139   0.016   0.059
    1UNK    H0J   20   0.139   0.194   0.041
    1UNK    H0K   21  -0.083   0.011  -0.055
    1UNK    H0M   22  -0.085   0.187  -0.057
    1UNK    H0N   23  -0.067   0.185   0.196
    1UNK    H0O   24  -0.074   0.009   0.193
    1UNK    H0P   25  -0.414   0.100   0.322
    1UNK    H0Q   26  -0.143  -0.002   0.417
    1UNK    H0R   27  -0.262  -0.111   0.348
    1UNK    H0S   28  -0.302  -0.023   0.491
    1UNK    H0T   29  -0.305   0.323   0.348
    1UNK    H0U   30  -0.151   0.246   0.382
    1UNK    H0V   31  -0.401   0.223   0.556
    1UNK    H0W   32  -0.265   0.333   0.583
    1UNK    H0X   33  -0.239   0.160   0.597
    1UNK    H0Y   34  -0.263   0.258  -0.001
    1UNK    H0Z   35  -0.316   0.326   0.149
    1UNK    H10   36  -0.478   0.264  -0.053
    1UNK    H11   37  -0.591   0.193   0.219
    1UNK    H12   38  -0.667   0.271   0.079
    1UNK    H13   39  -0.546   0.357   0.174
    1UNK    H14   40  -0.446   0.055  -0.103
    1UNK    H15   41  -0.548  -0.160  -0.136
    1UNK    H16   42  -0.679  -0.043  -0.172
    1UNK    H17   43  -0.707  -0.182  -0.062
    1UNK    H18   44  -0.273  -0.022  -0.017
    1UNK    H19   45  -0.425  -0.146   0.212
    1UNK    H1A   46  -0.259  -0.186   0.158
    1UNK    H1B   47  -0.395  -0.213   0.052
   1.00000   1.00000   1.00000

