LIGPARGEN GENERATED GRO FILE
   41
    1UNK    C00    1   0.100   0.100   0.000
    1UNK    C01    2  -0.053   0.100   0.000
    1UNK    C02    3  -0.104   0.100   0.144
    1UNK    C03    4  -0.104   0.220  -0.082
    1UNK    C04    5  -0.257   0.225  -0.093
    1UNK    C05    6  -0.307   0.340  -0.179
    1UNK    C06    7  -0.267   0.326  -0.325
    1UNK    N07    8  -0.440   0.400  -0.158
    1UNK    C08    9  -0.527   0.349  -0.052
    1UNK    C09   10  -0.645   0.446  -0.036
    1UNK    C0A   11  -0.585   0.212  -0.090
    1UNK    C0B   12  -0.324   0.483  -0.120
    1UNK    C0C   13  -0.282   0.508   0.024
    1UNK    C0D   14  -0.297   0.603  -0.208
    1UNK    H0E   15   0.139   0.013   0.054
    1UNK    H0F   16   0.139   0.190   0.048
    1UNK    H0G   17   0.139   0.096  -0.102
    1UNK    H0H   18  -0.087   0.007  -0.048
    1UNK    H0I   19  -0.083   0.195   0.194
    1UNK    H0J   20  -0.057   0.020   0.203
    1UNK    H0K   21  -0.213   0.083   0.148
    1UNK    H0M   22  -0.061   0.213  -0.183
    1UNK    H0N   23  -0.067   0.314  -0.039
    1UNK    H0O   24  -0.299   0.228   0.007
    1UNK    H0P   25  -0.291   0.130  -0.137
    1UNK    H0Q   26  -0.281   0.222  -0.359
    1UNK    H0R   27  -0.162   0.352  -0.338
    1UNK    H0S   28  -0.326   0.389  -0.392
    1UNK    H0T   29  -0.479   0.340   0.045
    1UNK    H0U   30  -0.701   0.456  -0.130
    1UNK    H0V   31  -0.611   0.546  -0.005
    1UNK    H0W   32  -0.714   0.409   0.040
    1UNK    H0X   33  -0.643   0.217  -0.182
    1UNK    H0Y   34  -0.650   0.175  -0.010
    1UNK    H0Z   35  -0.507   0.136  -0.104
    1UNK    H10   36  -0.300   0.426   0.093
    1UNK    H11   37  -0.334   0.597   0.063
    1UNK    H12   38  -0.175   0.529   0.027
    1UNK    H13   39  -0.341   0.594  -0.308
    1UNK    H14   40  -0.189   0.618  -0.219
    1UNK    H15   41  -0.340   0.693  -0.162
   1.00000   1.00000   1.00000

