
;
; GENERATED BY LigParGen Server
; Jorgensen Lab @ Yale University 
;
[ atomtypes ]
  opls_818  H818     1.0080     0.000    A    2.50000E-01   1.25520E-01
  opls_805  C805    12.0110     0.000    A    3.45000E-01   3.47272E-01
  opls_824  H824     1.0080     0.000    A    2.50000E-01   1.25520E-01
  opls_804  C804    12.0110     0.000    A    3.50000E-01   2.76144E-01
  opls_833  H833     1.0080     0.000    A    2.50000E-01   1.25520E-01
  opls_836  H836     1.0080     0.000    A    2.50000E-01   1.25520E-01
  opls_834  H834     1.0080     0.000    A    2.50000E-01   1.25520E-01
  opls_828  H828     1.0080     0.000    A    2.50000E-01   1.25520E-01
  opls_812  C812    12.0110     0.000    A    3.50000E-01   2.76144E-01
  opls_802  C802    12.0110     0.000    A    3.50000E-01   2.76144E-01
  opls_815  H815     1.0080     0.000    A    2.50000E-01   1.25520E-01
  opls_801  C801    12.0110     0.000    A    3.50000E-01   2.76144E-01
  opls_830  H830     1.0080     0.000    A    2.50000E-01   1.25520E-01
  opls_822  H822     1.0080     0.000    A    2.50000E-01   1.25520E-01
  opls_803  C803    12.0110     0.000    A    3.50000E-01   2.76144E-01
  opls_838  H838     1.0080     0.000    A    2.50000E-01   1.25520E-01
  opls_825  H825     1.0080     0.000    A    2.50000E-01   1.25520E-01
  opls_826  H826     1.0080     0.000    A    2.50000E-01   1.25520E-01
  opls_814  H814     1.0080     0.000    A    2.50000E-01   1.25520E-01
  opls_821  H821     1.0080     0.000    A    2.50000E-01   1.25520E-01
  opls_820  H820     1.0080     0.000    A    2.50000E-01   1.25520E-01
  opls_837  H837     1.0080     0.000    A    2.50000E-01   1.25520E-01
  opls_829  H829     1.0080     0.000    A    2.50000E-01   1.25520E-01
  opls_831  H831     1.0080     0.000    A    2.50000E-01   1.25520E-01
  opls_832  H832     1.0080     0.000    A    2.50000E-01   1.25520E-01
  opls_816  H816     1.0080     0.000    A    2.50000E-01   1.25520E-01
  opls_800  C800    12.0110     0.000    A    3.50000E-01   2.76144E-01
  opls_806  C806    12.0110     0.000    A    3.50000E-01   2.76144E-01
  opls_823  H823     1.0080     0.000    A    2.50000E-01   1.25520E-01
  opls_813  C813    12.0110     0.000    A    3.50000E-01   2.76144E-01
  opls_811  C811    12.0110     0.000    A    3.45000E-01   3.47272E-01
  opls_835  H835     1.0080     0.000    A    2.50000E-01   1.25520E-01
  opls_807  N807    14.0070     0.000    A    3.25000E-01   7.11280E-01
  opls_819  H819     1.0080     0.000    A    2.50000E-01   1.25520E-01
  opls_810  C810    12.0110     0.000    A    3.50000E-01   2.76144E-01
  opls_827  H827     1.0080     0.000    A    2.50000E-01   1.25520E-01
  opls_839  H839     1.0080     0.000    A    2.50000E-01   1.25520E-01
  opls_809  C809    12.0110     0.000    A    3.50000E-01   2.76144E-01
  opls_808  C808    12.0110     0.000    A    3.50000E-01   2.76144E-01
  opls_817  H817     1.0080     0.000    A    2.50000E-01   1.25520E-01
  opls_840  H840     1.0080     0.000    A    2.50000E-01   1.25520E-01
[ moleculetype ]
; Name               nrexcl
UNK                   3
[ atoms ]
;   nr       type  resnr residue  atom   cgnr     charge       mass  
     1   opls_800      1    UNK   C00      1    -0.2362    12.0110 
     2   opls_801      1    UNK   C01      1    -0.1182    12.0110 
     3   opls_802      1    UNK   C02      1    -0.2346    12.0110 
     4   opls_803      1    UNK   C03      1    -0.1686    12.0110 
     5   opls_804      1    UNK   C04      1    -0.1535    12.0110 
     6   opls_805      1    UNK   C05      1    -0.0111    12.0110 
     7   opls_806      1    UNK   C06      1    -0.1938    12.0110 
     8   opls_807      1    UNK   N07      1    -0.4043    14.0070 
     9   opls_808      1    UNK   C08      1     0.0241    12.0110 
    10   opls_809      1    UNK   C09      1    -0.2298    12.0110 
    11   opls_810      1    UNK   C0A      1    -0.2381    12.0110 
    12   opls_811      1    UNK   C0B      1    -0.0108    12.0110 
    13   opls_812      1    UNK   C0C      1     -0.218    12.0110 
    14   opls_813      1    UNK   C0D      1    -0.1939    12.0110 
    15   opls_814      1    UNK   H0E      1     0.0818     1.0080 
    16   opls_815      1    UNK   H0F      1     0.0818     1.0080 
    17   opls_816      1    UNK   H0G      1     0.0818     1.0080 
    18   opls_817      1    UNK   H0H      1     0.0966     1.0080 
    19   opls_818      1    UNK   H0I      1      0.081     1.0080 
    20   opls_819      1    UNK   H0J      1      0.081     1.0080 
    21   opls_820      1    UNK   H0K      1      0.081     1.0080 
    22   opls_821      1    UNK   H0M      1     0.0926     1.0080 
    23   opls_822      1    UNK   H0N      1     0.0926     1.0080 
    24   opls_823      1    UNK   H0O      1     0.0964     1.0080 
    25   opls_824      1    UNK   H0P      1     0.0964     1.0080 
    26   opls_825      1    UNK   H0Q      1     0.0903     1.0080 
    27   opls_826      1    UNK   H0R      1     0.0903     1.0080 
    28   opls_827      1    UNK   H0S      1     0.0903     1.0080 
    29   opls_828      1    UNK   H0T      1     0.0857     1.0080 
    30   opls_829      1    UNK   H0U      1     0.0867     1.0080 
    31   opls_830      1    UNK   H0V      1     0.0867     1.0080 
    32   opls_831      1    UNK   H0W      1     0.0867     1.0080 
    33   opls_832      1    UNK   H0X      2     0.0874     1.0080 
    34   opls_833      1    UNK   H0Y      2     0.0874     1.0080 
    35   opls_834      1    UNK   H0Z      2     0.0874     1.0080 
    36   opls_835      1    UNK   H10      2     0.0915     1.0080 
    37   opls_836      1    UNK   H11      2     0.0915     1.0080 
    38   opls_837      1    UNK   H12      2     0.0915     1.0080 
    39   opls_838      1    UNK   H13      2     0.0902     1.0080 
    40   opls_839      1    UNK   H14      2     0.0902     1.0080 
    41   opls_840      1    UNK   H15      2     0.0902     1.0080 
[ bonds ]
    2     1     1      0.1529 224262.400
    3     2     1      0.1529 224262.400
    4     2     1      0.1529 224262.400
    5     4     1      0.1529 224262.400
    6     5     1      0.1510 234304.000
    7     6     1      0.1510 234304.000
    8     6     1      0.1449 282001.600
    9     8     1      0.1449 282001.600
   10     9     1      0.1529 224262.400
   11     9     1      0.1529 224262.400
   12     6     1      0.1520 217568.000
   13    12     1      0.1510 234304.000
   14    12     1      0.1510 234304.000
   15     1     1      0.1090 284512.000
   16     1     1      0.1090 284512.000
   17     1     1      0.1090 284512.000
   18     2     1      0.1090 284512.000
   19     3     1      0.1090 284512.000
   20     3     1      0.1090 284512.000
   21     3     1      0.1090 284512.000
   22     4     1      0.1090 284512.000
   23     4     1      0.1090 284512.000
   24     5     1      0.1090 284512.000
   25     5     1      0.1090 284512.000
   26     7     1      0.1090 284512.000
   27     7     1      0.1090 284512.000
   28     7     1      0.1090 284512.000
   29     9     1      0.1090 284512.000
   30    10     1      0.1090 284512.000
   31    10     1      0.1090 284512.000
   32    10     1      0.1090 284512.000
   33    11     1      0.1090 284512.000
   34    11     1      0.1090 284512.000
   35    11     1      0.1090 284512.000
   36    13     1      0.1090 284512.000
   37    13     1      0.1090 284512.000
   38    13     1      0.1090 284512.000
   39    14     1      0.1090 284512.000
   40    14     1      0.1090 284512.000
   41    14     1      0.1090 284512.000
   12     8     1      0.1449 282001.600

[ angles ]
;  ai    aj    ak funct            c0            c1            c2            c3 
    1     2     3     1    112.700    488.273
    1     2     4     1    112.700    488.273
    2     4     5     1    112.700    488.273
    4     5     6     1    112.700    488.273
    5     6     7     1    114.300    292.880
    5     6     8     1    110.000    669.440
    6     8     9     1    126.000    418.400
    8     9    10     1    110.000    669.440
    8     9    11     1    110.000    669.440
    5     6    12     1    117.200    313.800
    6    12    13     1    117.200    313.800
    6    12    14     1    117.200    313.800
    2     1    15     1    110.700    313.800
    2     1    16     1    110.700    313.800
    2     1    17     1    110.700    313.800
    1     2    18     1    110.700    313.800
    2     3    19     1    110.700    313.800
    2     3    20     1    110.700    313.800
    2     3    21     1    110.700    313.800
    2     4    22     1    110.700    313.800
    2     4    23     1    110.700    313.800
    4     5    24     1    110.700    313.800
    4     5    25     1    110.700    313.800
    6     7    26     1    110.700    313.800
    6     7    27     1    110.700    313.800
    6     7    28     1    110.700    313.800
    8     9    29     1    109.500    292.880
    9    10    30     1    110.700    313.800
    9    10    31     1    110.700    313.800
    9    10    32     1    110.700    313.800
    9    11    33     1    110.700    313.800
    9    11    34     1    110.700    313.800
    9    11    35     1    110.700    313.800
   12    13    36     1    110.700    313.800
   12    13    37     1    110.700    313.800
   12    13    38     1    110.700    313.800
   12    14    39     1    110.700    313.800
   12    14    40     1    110.700    313.800
   12    14    41     1    110.700    313.800
   40    14    41     1    107.800    276.144
    6    12     8     1     89.000    669.440
   39    14    40     1    107.800    276.144
    6     5    24     1    110.700    313.800
   33    11    34     1    107.800    276.144
   13    12    14     1    114.300    292.880
    8    12    14     1    110.000    669.440
    3     2    18     1    110.700    313.800
   11     9    29     1    110.700    313.800
   33    11    35     1    107.800    276.144
   10     9    29     1    110.700    313.800
   26     7    28     1    107.800    276.144
   36    13    38     1    107.800    276.144
   22     4    23     1    107.800    276.144
   10     9    11     1    112.700    488.273
   31    10    32     1    107.800    276.144
    9     8    12     1    126.000    418.400
    6     8    12     1    126.000    418.400
   19     3    21     1    107.800    276.144
    6     5    25     1    110.700    313.800
   30    10    32     1    107.800    276.144
   34    11    35     1    107.800    276.144
   39    14    41     1    107.800    276.144
    5     4    22     1    110.700    313.800
   30    10    31     1    107.800    276.144
   15     1    16     1    107.800    276.144
    3     2     4     1    112.700    488.273
    7     6     8     1    110.000    669.440
   26     7    27     1    107.800    276.144
   24     5    25     1    107.800    276.144
   19     3    20     1    107.800    276.144
   15     1    17     1    107.800    276.144
   16     1    17     1    107.800    276.144
    4     2    18     1    110.700    313.800
    8    12    13     1    110.000    669.440
    8     6    12     1     89.000    669.440
   27     7    28     1    107.800    276.144
    5     4    23     1    110.700    313.800
   37    13    38     1    107.800    276.144
   36    13    37     1    107.800    276.144
    7     6    12     1    117.200    313.800
   20     3    21     1    107.800    276.144

[ dihedrals ]
; IMPROPER DIHEDRAL ANGLES 
;  ai    aj    ak    al funct            c0            c1            c2            c3            c4            c5

[ dihedrals ]
; PROPER DIHEDRAL ANGLES
;  ai    aj    ak    al funct            c0            c1            c2            c3            c4            c5
    5    4    2    1        3       2.301  -1.464   0.837  -1.674  -0.000   0.000
    5    4    2    3        3       2.301  -1.464   0.837  -1.674  -0.000   0.000
   10    9    8    6        3       0.000   0.000   0.000  -0.000  -0.000   0.000
   11    9    8    6        3       0.000   0.000   0.000  -0.000  -0.000   0.000
    7    6    5    4        3       2.301  -1.464   0.837  -1.674  -0.000   0.000
   13   12    6    5        3       0.000   0.000   0.000  -0.000  -0.000   0.000
   14   12    6    5        3       0.000   0.000   0.000  -0.000  -0.000   0.000
   14   12    6    7        3       0.000   0.000   0.000  -0.000  -0.000   0.000
   13   12    6    7        3       0.000   0.000   0.000  -0.000  -0.000   0.000
   13   12    6    8        3       0.000   0.000   0.000  -0.000  -0.000   0.000
   14   12    6    8        3       0.000   0.000   0.000  -0.000  -0.000   0.000
   14   12    8    9        3       0.000   0.000   0.000  -0.000  -0.000   0.000
   13   12    8    9        3       0.000   0.000   0.000  -0.000  -0.000   0.000
   13   12    8    6        3       0.000   0.000   0.000  -0.000  -0.000   0.000
   14   12    8    6        3       0.000   0.000   0.000  -0.000  -0.000   0.000
    9    8    6    5        3       0.000   0.000   0.000  -0.000  -0.000   0.000
    9    8    6    7        3       0.000   0.000   0.000  -0.000  -0.000   0.000
    9    8   12    6        3       0.000   0.000   0.000  -0.000  -0.000   0.000
    6    5    4    2        3       2.301  -1.464   0.837  -1.674  -0.000   0.000
   12    6    5    4        3       0.000   0.000   0.000  -0.000  -0.000   0.000
   12    8    9   11        3       0.000   0.000   0.000  -0.000  -0.000   0.000
   12    8    9   10        3       0.000   0.000   0.000  -0.000  -0.000   0.000
   24    5    4    2        3       0.628   1.883   0.000  -2.510  -0.000   0.000
   15    1    2    3        3       0.628   1.883   0.000  -2.510  -0.000   0.000
   20    3    2    1        3       0.628   1.883   0.000  -2.510  -0.000   0.000
   32   10    9   11        3       0.628   1.883   0.000  -2.510  -0.000   0.000
   17    1    2    4        3       0.628   1.883   0.000  -2.510  -0.000   0.000
   35   11    9   10        3       0.628   1.883   0.000  -2.510  -0.000   0.000
   21    3    2    1        3       0.628   1.883   0.000  -2.510  -0.000   0.000
   34   11    9   10        3       0.628   1.883   0.000  -2.510  -0.000   0.000
   18    2    4    5        3       0.628   1.883   0.000  -2.510  -0.000   0.000
   22    4    2    1        3       0.628   1.883   0.000  -2.510  -0.000   0.000
   22    4    2    3        3       0.628   1.883   0.000  -2.510  -0.000   0.000
   23    4    2    1        3       0.628   1.883   0.000  -2.510  -0.000   0.000
   30   10    9   11        3       0.628   1.883   0.000  -2.510  -0.000   0.000
   25    5    4    2        3       0.628   1.883   0.000  -2.510  -0.000   0.000
   23    4    2    3        3       0.628   1.883   0.000  -2.510  -0.000   0.000
   20    3    2    4        3       0.628   1.883   0.000  -2.510  -0.000   0.000
   16    1    2    4        3       0.628   1.883   0.000  -2.510  -0.000   0.000
   17    1    2    3        3       0.628   1.883   0.000  -2.510  -0.000   0.000
   21    3    2    4        3       0.628   1.883   0.000  -2.510  -0.000   0.000
   19    3    2    4        3       0.628   1.883   0.000  -2.510  -0.000   0.000
   15    1    2    4        3       0.628   1.883   0.000  -2.510  -0.000   0.000
   16    1    2    3        3       0.628   1.883   0.000  -2.510  -0.000   0.000
   33   11    9   10        3       0.628   1.883   0.000  -2.510  -0.000   0.000
   31   10    9   11        3       0.628   1.883   0.000  -2.510  -0.000   0.000
   19    3    2    1        3       0.628   1.883   0.000  -2.510  -0.000   0.000
   22    4    5    6        3       0.628   1.883   0.000  -2.510  -0.000   0.000
   23    4    5    6        3       0.628   1.883   0.000  -2.510  -0.000   0.000
   25    5    4   22        3       0.628   1.883   0.000  -2.510  -0.000   0.000
   34   11    9   29        3       0.628   1.883   0.000  -2.510  -0.000   0.000
   23    4    2   18        3       0.628   1.883   0.000  -2.510  -0.000   0.000
   32   10    9   29        3       0.628   1.883   0.000  -2.510  -0.000   0.000
   35   11    9   29        3       0.628   1.883   0.000  -2.510  -0.000   0.000
   24    5    4   23        3       0.628   1.883   0.000  -2.510  -0.000   0.000
   30   10    9   29        3       0.628   1.883   0.000  -2.510  -0.000   0.000
   25    5    4   23        3       0.628   1.883   0.000  -2.510  -0.000   0.000
   21    3    2   18        3       0.628   1.883   0.000  -2.510  -0.000   0.000
   18    2    1   17        3       0.628   1.883   0.000  -2.510  -0.000   0.000
   24    5    4   22        3       0.628   1.883   0.000  -2.510  -0.000   0.000
   33   11    9   29        3       0.628   1.883   0.000  -2.510  -0.000   0.000
   22    4    2   18        3       0.628   1.883   0.000  -2.510  -0.000   0.000
   20    3    2   18        3       0.628   1.883   0.000  -2.510  -0.000   0.000
   18    2    1   16        3       0.628   1.883   0.000  -2.510  -0.000   0.000
   18    2    1   15        3       0.628   1.883   0.000  -2.510  -0.000   0.000
   31   10    9   29        3       0.628   1.883   0.000  -2.510  -0.000   0.000
   19    3    2   18        3       0.628   1.883   0.000  -2.510  -0.000   0.000
   30   10    9    8        3      -4.096   5.088   2.966  -3.958  -0.000   0.000
   33   11    9    8        3      -4.096   5.088   2.966  -3.958  -0.000   0.000
   35   11    9    8        3      -4.096   5.088   2.966  -3.958  -0.000   0.000
   31   10    9    8        3      -4.096   5.088   2.966  -3.958  -0.000   0.000
   34   11    9    8        3      -4.096   5.088   2.966  -3.958  -0.000   0.000
   32   10    9    8        3      -4.096   5.088   2.966  -3.958  -0.000   0.000
   25    5    6    7        3       0.628   1.883   0.000  -2.510  -0.000   0.000
   41   14   12   13        3       0.628   1.883   0.000  -2.510  -0.000   0.000
   26    7    6    5        3       0.628   1.883   0.000  -2.510  -0.000   0.000
   38   13   12   14        3       0.628   1.883   0.000  -2.510  -0.000   0.000
   28    7    6    5        3       0.628   1.883   0.000  -2.510  -0.000   0.000
   37   13   12   14        3       0.628   1.883   0.000  -2.510  -0.000   0.000
   27    7    6    5        3       0.628   1.883   0.000  -2.510  -0.000   0.000
   40   14   12   13        3       0.628   1.883   0.000  -2.510  -0.000   0.000
   39   14   12   13        3       0.628   1.883   0.000  -2.510  -0.000   0.000
   36   13   12   14        3       0.628   1.883   0.000  -2.510  -0.000   0.000
   24    5    6    7        3       0.628   1.883   0.000  -2.510  -0.000   0.000
   26    7    6   12        3       0.628   1.883   0.000  -2.510  -0.000   0.000
   25    5    6   12        3       0.628   1.883   0.000  -2.510  -0.000   0.000
   39   14   12    6        3       0.628   1.883   0.000  -2.510  -0.000   0.000
   38   13   12    6        3       0.628   1.883   0.000  -2.510  -0.000   0.000
   24    5    6   12        3       0.628   1.883   0.000  -2.510  -0.000   0.000
   37   13   12    6        3       0.628   1.883   0.000  -2.510  -0.000   0.000
   40   14   12    6        3       0.628   1.883   0.000  -2.510  -0.000   0.000
   41   14   12    6        3       0.628   1.883   0.000  -2.510  -0.000   0.000
   36   13   12    6        3       0.628   1.883   0.000  -2.510  -0.000   0.000
   27    7    6   12        3       0.628   1.883   0.000  -2.510  -0.000   0.000
   28    7    6   12        3       0.628   1.883   0.000  -2.510  -0.000   0.000
   38   13   12    8        3       0.877   2.630   0.000  -3.506  -0.000   0.000
   41   14   12    8        3       0.877   2.630   0.000  -3.506  -0.000   0.000
   25    5    6    8        3       0.877   2.630   0.000  -3.506  -0.000   0.000
   27    7    6    8        3       0.877   2.630   0.000  -3.506  -0.000   0.000
   40   14   12    8        3       0.877   2.630   0.000  -3.506  -0.000   0.000
   24    5    6    8        3       0.877   2.630   0.000  -3.506  -0.000   0.000
   36   13   12    8        3       0.877   2.630   0.000  -3.506  -0.000   0.000
   28    7    6    8        3       0.877   2.630   0.000  -3.506  -0.000   0.000
   26    7    6    8        3       0.877   2.630   0.000  -3.506  -0.000   0.000
   37   13   12    8        3       0.877   2.630   0.000  -3.506  -0.000   0.000
   39   14   12    8        3       0.877   2.630   0.000  -3.506  -0.000   0.000
   29    9    8   12        3       0.000   0.000   0.000  -0.000  -0.000   0.000
   29    9    8    6        3       0.000   0.000   0.000  -0.000  -0.000   0.000
    8    6    5    4        3       4.910  -1.780   1.096  -4.226  -0.000   0.000

[ pairs ]
     1     5    1
     3     5    1
     2     6    1
     4     7    1
     4     8    1
     5     9    1
     7     9    1
     6    10    1
     4    12    1
     6    11    1
     5    13    1
     3    15    1
     5    14    1
     4    15    1
     3    16    1
     7    13    1
     4    16    1
     3    17    1
     1    19    1
     7    14    1
     4    17    1
     1    20    1
    10    12    1
     9    13    1
     1    21    1
    11    12    1
     9    14    1
     5    18    1
     4    19    1
     1    22    1
     4    20    1
     1    23    1
     4    21    1
     3    22    1
     3    23    1
     2    24    1
     2    25    1
     6    22    1
     6    23    1
     7    24    1
     5    26    1
     8    24    1
     7    25    1
     5    27    1
    15    18    1
     8    25    1
     5    28    1
    16    18    1
     8    26    1
    17    18    1
     8    27    1
     6    29    1
    12    24    1
     8    28    1
    18    19    1
    12    25    1
    18    20    1
    12    26    1
     8    30    1
    18    21    1
    12    27    1
     8    31    1
    18    22    1
    12    28    1
     8    32    1
    18    23    1
    12    29    1
    11    30    1
     8    33    1
    11    31    1
     8    34    1
     6    36    1
    11    32    1
    10    33    1
     8    35    1
     6    37    1
    10    34    1
     8    36    1
     6    38    1
    10    35    1
     8    37    1
     6    39    1
    22    24    1
     8    38    1
     6    40    1
    23    24    1
    22    25    1
     8    39    1
     6    41    1
    23    25    1
     8    40    1
     8    41    1
    14    36    1
    14    37    1
    14    38    1
    13    39    1
    13    40    1
    13    41    1
    29    30    1
    29    31    1
    29    32    1
    29    33    1
    29    34    1
    29    35    1

