LIGPARGEN GENERATED GRO FILE
   41
    1UNK    C00    1   0.100   0.100   0.000
    1UNK    C01    2  -0.052   0.100   0.000
    1UNK    C02    3  -0.119   0.100   0.139
    1UNK    C03    4  -0.081   0.227   0.217
    1UNK    C04    5  -0.274   0.080   0.141
    1UNK    C05    6  -0.362   0.192   0.078
    1UNK    C06    7  -0.356   0.206  -0.074
    1UNK    C07    8  -0.439   0.321  -0.131
    1UNK    C08    9  -0.402   0.453  -0.071
    1UNK    C09   10  -0.468   0.580  -0.118
    1UNK    C0A   11  -0.502   0.524   0.018
    1UNK    C0B   12  -0.458   0.590   0.143
    1UNK    O0C   13  -0.340   0.617   0.164
    1UNK    S0D   14  -0.333  -0.083   0.087
    1UNK    C0E   15  -0.250  -0.200   0.192
    1UNK    O0F   16  -0.474  -0.093   0.120
    1UNK    O0G   17  -0.288  -0.109  -0.049
    1UNK    H0H   18   0.136   0.088  -0.103
    1UNK    H0I   19   0.141   0.019   0.060
    1UNK    H0J   20   0.140   0.195   0.036
    1UNK    H0K   21  -0.085   0.013  -0.057
    1UNK    H0M   22  -0.080   0.189  -0.056
    1UNK    H0N   23  -0.075   0.017   0.195
    1UNK    H0O   24  -0.121   0.317   0.170
    1UNK    H0P   25   0.028   0.240   0.224
    1UNK    H0Q   26  -0.118   0.223   0.320
    1UNK    H0R   27  -0.302   0.080   0.248
    1UNK    H0S   28  -0.337   0.287   0.126
    1UNK    H0T   29  -0.467   0.173   0.106
    1UNK    H0U   30  -0.389   0.113  -0.122
    1UNK    H0V   31  -0.254   0.224  -0.107
    1UNK    H0W   32  -0.546   0.300  -0.119
    1UNK    H0X   33  -0.420   0.326  -0.239
    1UNK    H0Y   34  -0.296   0.461  -0.049
    1UNK    H0Z   35  -0.541   0.574  -0.197
    1UNK    H10   36  -0.406   0.670  -0.122
    1UNK    H11   37  -0.601   0.480   0.026
    1UNK    H12   38  -0.537   0.614   0.215
    1UNK    H13   39  -0.275  -0.179   0.296
    1UNK    H14   40  -0.142  -0.195   0.176
    1UNK    H15   41  -0.286  -0.300   0.165
   1.00000   1.00000   1.00000

