LIGPARGEN GENERATED GRO FILE
   29
    1UNK    C00    1   0.100   0.100   0.000
    1UNK    C01    2  -0.052   0.100   0.000
    1UNK    C02    3  -0.107   0.100   0.143
    1UNK    C03    4  -0.260   0.100   0.145
    1UNK    C04    5  -0.314   0.100   0.288
    1UNK    O05    6  -0.240   0.100   0.386
    1UNK    C06    7  -0.466   0.099   0.304
    1UNK    C07    8  -0.509  -0.048   0.309
    1UNK    C08    9  -0.507   0.178   0.431
    1UNK    C09   10  -0.461   0.324   0.425
    1UNK    C0A   11  -0.653   0.176   0.448
    1UNK    N0B   12  -0.769   0.174   0.461
    1UNK    H0C   13   0.138   0.100  -0.103
    1UNK    H0D   14   0.139   0.011   0.051
    1UNK    H0E   15   0.139   0.189   0.051
    1UNK    H0F   16  -0.088   0.012  -0.054
    1UNK    H0G   17  -0.088   0.188  -0.054
    1UNK    H0H   18  -0.070   0.188   0.196
    1UNK    H0I   19  -0.069   0.012   0.196
    1UNK    H0J   20  -0.298   0.011   0.094
    1UNK    H0K   21  -0.298   0.189   0.094
    1UNK    H0M   22  -0.510   0.147   0.216
    1UNK    H0N   23  -0.462  -0.100   0.392
    1UNK    H0O   24  -0.480  -0.100   0.217
    1UNK    H0P   25  -0.618  -0.057   0.319
    1UNK    H0Q   26  -0.461   0.131   0.519
    1UNK    H0R   27  -0.505   0.376   0.339
    1UNK    H0S   28  -0.352   0.333   0.418
    1UNK    H0T   29  -0.492   0.378   0.516
   1.00000   1.00000   1.00000

