LIGPARGEN GENERATED GRO FILE
   34
    1UNK    C00    1   0.100   0.100   0.000
    1UNK    C01    2  -0.052   0.100   0.000
    1UNK    C02    3  -0.110   0.100   0.142
    1UNK    C03    4  -0.266   0.107   0.144
    1UNK    C04    5  -0.323  -0.021   0.077
    1UNK    C05    6  -0.469  -0.051   0.109
    1UNK    C06    7  -0.514  -0.032   0.257
    1UNK    C07    8  -0.585   0.102   0.276
    1UNK    C08    9  -0.704   0.132   0.186
    1UNK    C09   10  -0.469   0.198   0.259
    1UNK    O0A   11  -0.485   0.314   0.219
    1UNK    C0B   12  -0.330   0.135   0.287
    1UNK    C0C   13  -0.248   0.245   0.352
    1UNK    N0D   14  -0.180   0.337   0.406
    1UNK    S0E   15  -0.372  -0.009   0.369
    1UNK    O0F   16  -0.274  -0.113   0.347
    1UNK    O0G   17  -0.420   0.021   0.502
    1UNK    H0H   18   0.138   0.100  -0.103
    1UNK    H0I   19   0.139   0.011   0.050
    1UNK    H0J   20   0.140   0.189   0.050
    1UNK    H0K   21  -0.086   0.012  -0.056
    1UNK    H0M   22  -0.087   0.189  -0.054
    1UNK    H0N   23  -0.067   0.187   0.194
    1UNK    H0O   24  -0.076   0.011   0.196
    1UNK    H0P   25  -0.293   0.192   0.079
    1UNK    H0Q   26  -0.263  -0.108   0.104
    1UNK    H0R   27  -0.312  -0.011  -0.032
    1UNK    H0S   28  -0.492  -0.153   0.076
    1UNK    H0T   29  -0.529   0.013   0.042
    1UNK    H0U   30  -0.574  -0.117   0.291
    1UNK    H0V   31  -0.620   0.112   0.380
    1UNK    H0W   32  -0.677   0.150   0.082
    1UNK    H0X   33  -0.754   0.224   0.219
    1UNK    H0Y   34  -0.778   0.051   0.190
   1.00000   1.00000   1.00000

