
;
; GENERATED BY LigParGen Server
; Jorgensen Lab @ Yale University 
;
[ atomtypes ]
  opls_818  H818     1.0080     0.000    A    2.50000E-01   1.25520E-01
  opls_824  H824     1.0080     0.000    A    2.50000E-01   1.25520E-01
  opls_805  C805    12.0110     0.000    A    3.50000E-01   2.76144E-01
  opls_816  O816    15.9990     0.000    A    2.96000E-01   7.11280E-01
  opls_828  H828     1.0080     0.000    A    2.50000E-01   1.25520E-01
  opls_802  C802    12.0110     0.000    A    3.50000E-01   2.76144E-01
  opls_827  H827     1.0080     0.000    A    2.50000E-01   1.25520E-01
  opls_801  C801    12.0110     0.000    A    3.50000E-01   2.76144E-01
  opls_806  C806    12.0110     0.000    A    3.50000E-01   2.76144E-01
  opls_822  H822     1.0080     0.000    A    2.50000E-01   1.25520E-01
  opls_803  C803    12.0110     0.000    A    3.50000E-01   2.76144E-01
  opls_813  N813    14.0070     0.000    A    3.20000E-01   7.11280E-01
  opls_825  H825     1.0080     0.000    A    2.50000E-01   1.25520E-01
  opls_830  H830     1.0080     0.000    A    2.50000E-01   1.25520E-01
  opls_810  O810    15.9990     0.000    A    2.96000E-01   8.78640E-01
  opls_821  H821     1.0080     0.000    A    2.50000E-01   1.25520E-01
  opls_820  H820     1.0080     0.000    A    2.50000E-01   1.25520E-01
  opls_809  C809    12.0110     0.000    A    3.55000E-01   2.92880E-01
  opls_814  S814    32.0600     0.000    A    3.55000E-01   1.04600E+00
  opls_831  H831     1.0080     0.000    A    2.50000E-01   1.25520E-01
  opls_832  H832     1.0080     0.000    A    2.50000E-01   1.25520E-01
  opls_800  C800    12.0110     0.000    A    3.50000E-01   2.76144E-01
  opls_811  C811    12.0110     0.000    A    3.50000E-01   2.76144E-01
  opls_823  H823     1.0080     0.000    A    2.50000E-01   1.25520E-01
  opls_826  H826     1.0080     0.000    A    2.50000E-01   1.25520E-01
  opls_819  H819     1.0080     0.000    A    2.50000E-01   1.25520E-01
  opls_804  C804    12.0110     0.000    A    3.50000E-01   2.76144E-01
  opls_833  H833     1.0080     0.000    A    2.50000E-01   1.25520E-01
  opls_808  C808    12.0110     0.000    A    3.50000E-01   2.76144E-01
  opls_817  H817     1.0080     0.000    A    2.50000E-01   1.25520E-01
  opls_815  O815    15.9990     0.000    A    2.96000E-01   7.11280E-01
  opls_829  H829     1.0080     0.000    A    2.50000E-01   1.25520E-01
  opls_812  C812    12.0110     0.000    A    3.30000E-01   2.76144E-01
  opls_807  C807    12.0110     0.000    A    3.50000E-01   2.76144E-01
[ moleculetype ]
; Name               nrexcl
UNK                   3
[ atoms ]
;   nr       type  resnr residue  atom   cgnr     charge       mass  
     1   opls_800      1    UNK   C00      1    -0.2393    12.0110 
     2   opls_801      1    UNK   C01      1    -0.1761    12.0110 
     3   opls_802      1    UNK   C02      1    -0.1798    12.0110 
     4   opls_803      1    UNK   C03      1    -0.0595    12.0110 
     5   opls_804      1    UNK   C04      1     -0.214    12.0110 
     6   opls_805      1    UNK   C05      1     -0.149    12.0110 
     7   opls_806      1    UNK   C06      1    -0.3933    12.0110 
     8   opls_807      1    UNK   C07      1    -0.1476    12.0110 
     9   opls_808      1    UNK   C08      1    -0.2093    12.0110 
    10   opls_809      1    UNK   C09      1     0.3775    12.0110 
    11   opls_810      1    UNK   O0A      1    -0.3703    15.9990 
    12   opls_811      1    UNK   C0B      1    -0.3663    12.0110 
    13   opls_812      1    UNK   C0C      1     0.1895    12.0110 
    14   opls_813      1    UNK   N0D      1     -0.322    14.0070 
    15   opls_814      1    UNK   S0E      1     1.3531    32.0600 
    16   opls_815      1    UNK   O0F      1    -0.5172    15.9990 
    17   opls_816      1    UNK   O0G      1    -0.5172    15.9990 
    18   opls_817      1    UNK   H0H      1     0.0869     1.0080 
    19   opls_818      1    UNK   H0I      1     0.0869     1.0080 
    20   opls_819      1    UNK   H0J      1     0.0869     1.0080 
    21   opls_820      1    UNK   H0K      1     0.0891     1.0080 
    22   opls_821      1    UNK   H0M      1     0.0891     1.0080 
    23   opls_822      1    UNK   H0N      1     0.1133     1.0080 
    24   opls_823      1    UNK   H0O      1     0.1133     1.0080 
    25   opls_824      1    UNK   H0P      1     0.1306     1.0080 
    26   opls_825      1    UNK   H0Q      1     0.1288     1.0080 
    27   opls_826      1    UNK   H0R      1     0.1288     1.0080 
    28   opls_827      1    UNK   H0S      1     0.1122     1.0080 
    29   opls_828      1    UNK   H0T      1     0.1122     1.0080 
    30   opls_829      1    UNK   H0U      1     0.1826     1.0080 
    31   opls_830      1    UNK   H0V      1     0.1686     1.0080 
    32   opls_831      1    UNK   H0W      1     0.1037     1.0080 
    33   opls_832      1    UNK   H0X      2     0.1037     1.0080 
    34   opls_833      1    UNK   H0Y      2     0.1037     1.0080 
[ bonds ]
    2     1     1      0.1529 224262.400
    3     2     1      0.1529 224262.400
    4     3     1      0.1529 224262.400
    5     4     1      0.1529 224262.400
    6     5     1      0.1529 224262.400
    7     6     1      0.1529 224262.400
    8     7     1      0.1529 224262.400
    9     8     1      0.1529 224262.400
   10     8     1      0.1522 265265.600
   11    10     1      0.1229 476976.000
   12     4     1      0.1529 224262.400
   13    12     1      0.1470 326352.000
   14    13     1      0.1157 543920.000
   15     7     1      0.1770 284512.000
   16    15     1      0.1440 585760.000
   17    15     1      0.1440 585760.000
   18     1     1      0.1090 284512.000
   19     1     1      0.1090 284512.000
   20     1     1      0.1090 284512.000
   21     2     1      0.1090 284512.000
   22     2     1      0.1090 284512.000
   23     3     1      0.1090 284512.000
   24     3     1      0.1090 284512.000
   25     4     1      0.1090 284512.000
   26     5     1      0.1090 284512.000
   27     5     1      0.1090 284512.000
   28     6     1      0.1090 284512.000
   29     6     1      0.1090 284512.000
   30     7     1      0.1090 284512.000
   31     8     1      0.1090 284512.000
   32     9     1      0.1090 284512.000
   33     9     1      0.1090 284512.000
   34     9     1      0.1090 284512.000
   12    10     1      0.1522 265265.600
   15    12     1      0.1770 284512.000

[ angles ]
;  ai    aj    ak funct            c0            c1            c2            c3 
    1     2     3     1    112.700    488.273
    2     3     4     1    112.700    488.273
    3     4     5     1    112.700    488.273
    4     5     6     1    112.700    488.273
    5     6     7     1    112.700    488.273
    6     7     8     1    112.700    488.273
    7     8     9     1    112.700    488.273
    7     8    10     1    111.100    527.184
    8    10    11     1    120.400    669.440
    3     4    12     1    112.700    488.273
    4    12    13     1    112.700    488.273
   12    13    14     1    180.000   1255.200
    6     7    15     1    108.600    418.400
    7    15    16     1    108.900    619.232
    7    15    17     1    108.900    619.232
    2     1    18     1    110.700    313.800
    2     1    19     1    110.700    313.800
    2     1    20     1    110.700    313.800
    1     2    21     1    110.700    313.800
    1     2    22     1    110.700    313.800
    2     3    23     1    110.700    313.800
    2     3    24     1    110.700    313.800
    3     4    25     1    110.700    313.800
    4     5    26     1    110.700    313.800
    4     5    27     1    110.700    313.800
    5     6    28     1    110.700    313.800
    5     6    29     1    110.700    313.800
    6     7    30     1    110.700    313.800
    7     8    31     1    110.700    313.800
    8     9    32     1    110.700    313.800
    8     9    33     1    110.700    313.800
    8     9    34     1    110.700    313.800
   11    10    12     1    120.400    669.440
    5     4    12     1    112.700    488.273
   12    15    16     1    108.900    619.232
    3     2    21     1    110.700    313.800
   28     6    29     1    107.800    276.144
    8     7    15     1    108.600    418.400
    7    15    12     1    102.000    518.816
   10     8    31     1    109.500    292.880
    9     8    31     1    110.700    313.800
    7     6    28     1    110.700    313.800
    4     3    23     1    110.700    313.800
    3     2    22     1    110.700    313.800
    8    10    12     1    116.000    585.760
    6     5    27     1    110.700    313.800
    4    12    15     1    108.600    418.400
   26     5    27     1    107.800    276.144
   23     3    24     1    107.800    276.144
    7     6    29     1    110.700    313.800
    4     3    24     1    110.700    313.800
    5     4    25     1    110.700    313.800
   16    15    17     1    119.000    870.272
   13    12    15     1    110.580    432.207
   21     2    22     1    107.800    276.144
    6     5    26     1    110.700    313.800
   18     1    20     1    107.800    276.144
   33     9    34     1    107.800    276.144
   15     7    30     1    109.500    292.880
   18     1    19     1    107.800    276.144
   32     9    34     1    107.800    276.144
   32     9    33     1    107.800    276.144
   12    15    17     1    108.900    619.232
   12     4    25     1    110.700    313.800
   19     1    20     1    107.800    276.144
    8     7    30     1    110.700    313.800
   10    12    13     1    110.580    432.207
   10    12    15     1    110.580    432.207
    9     8    10     1    111.100    527.184
    4    12    10     1    111.100    527.184

[ dihedrals ]
; IMPROPER DIHEDRAL ANGLES 
;  ai    aj    ak    al funct            c0            c1            c2            c3            c4            c5
     8    10    11    12    4        180.000     43.932     2  

[ dihedrals ]
; PROPER DIHEDRAL ANGLES
;  ai    aj    ak    al funct            c0            c1            c2            c3            c4            c5
   10    8    7    6        3      -4.960   6.286   1.310  -2.636  -0.000   0.000
   10   12    4    5        3      -4.960   6.286   1.310  -2.636  -0.000   0.000
   10   12    4    3        3      -4.960   6.286   1.310  -2.636  -0.000   0.000
   10   12   15    7        3       0.000   0.000   0.000  -0.000  -0.000   0.000
   12   10    8    9        3       0.818  -7.906   0.602   6.485  -0.000   0.000
    8   10   12    4        3       0.818  -7.906   0.602   6.485  -0.000   0.000
   12   10    8    7        3       0.818  -7.906   0.602   6.485  -0.000   0.000
   12    4    5    6        3       2.301  -1.464   0.837  -1.674  -0.000   0.000
   12    4    3    2        3       2.301  -1.464   0.837  -1.674  -0.000   0.000
    4    3    2    1        3       2.301  -1.464   0.837  -1.674  -0.000   0.000
    5    4    3    2        3       2.301  -1.464   0.837  -1.674  -0.000   0.000
    6    5    4    3        3       2.301  -1.464   0.837  -1.674  -0.000   0.000
    9    8    7    6        3       2.301  -1.464   0.837  -1.674  -0.000   0.000
    8    7    6    5        3       2.301  -1.464   0.837  -1.674  -0.000   0.000
    7    6    5    4        3       2.301  -1.464   0.837  -1.674  -0.000   0.000
   12   15    7    6        3       0.000   0.000   0.000  -0.000  -0.000   0.000
   12   15    7    8        3       0.000   0.000   0.000  -0.000  -0.000   0.000
    7   15   12    4        3       0.000   0.000   0.000  -0.000  -0.000   0.000
   13   12   10    8        3       0.818  -7.906   0.602   6.485  -0.000   0.000
   13   12   10   11        3       0.000   0.000   0.000  -0.000  -0.000   0.000
   13   12    4    5        3      -2.720   0.000   2.720  -0.000  -0.000   0.000
   13   12    4    3        3      -2.720   0.000   2.720  -0.000  -0.000   0.000
   13   12   15    7        3       0.000   0.000   0.000  -0.000  -0.000   0.000
   31    8   10   12        3       0.575   1.726   0.000  -2.301  -0.000   0.000
   31    8   10   11        3       0.000   0.000   0.000  -0.000  -0.000   0.000
   30    7    8   10        3      -0.209  -0.628   0.000   0.837  -0.000   0.000
   33    9    8   10        3      -0.209  -0.628   0.000   0.837  -0.000   0.000
   25    4   12   10        3      -0.209  -0.628   0.000   0.837  -0.000   0.000
   32    9    8   10        3      -0.209  -0.628   0.000   0.837  -0.000   0.000
   34    9    8   10        3      -0.209  -0.628   0.000   0.837  -0.000   0.000
   26    5    6    7        3       0.628   1.883   0.000  -2.510  -0.000   0.000
   27    5    4   12        3       0.628   1.883   0.000  -2.510  -0.000   0.000
   30    7    6    5        3       0.628   1.883   0.000  -2.510  -0.000   0.000
   22    2    3    4        3       0.628   1.883   0.000  -2.510  -0.000   0.000
   27    5    4    3        3       0.628   1.883   0.000  -2.510  -0.000   0.000
   29    6    5    4        3       0.628   1.883   0.000  -2.510  -0.000   0.000
   24    3    4   12        3       0.628   1.883   0.000  -2.510  -0.000   0.000
   23    3    2    1        3       0.628   1.883   0.000  -2.510  -0.000   0.000
   25    4    3    2        3       0.628   1.883   0.000  -2.510  -0.000   0.000
   20    1    2    3        3       0.628   1.883   0.000  -2.510  -0.000   0.000
   24    3    2    1        3       0.628   1.883   0.000  -2.510  -0.000   0.000
   30    7    8    9        3       0.628   1.883   0.000  -2.510  -0.000   0.000
   24    3    4    5        3       0.628   1.883   0.000  -2.510  -0.000   0.000
   21    2    3    4        3       0.628   1.883   0.000  -2.510  -0.000   0.000
   29    6    7    8        3       0.628   1.883   0.000  -2.510  -0.000   0.000
   34    9    8    7        3       0.628   1.883   0.000  -2.510  -0.000   0.000
   26    5    4    3        3       0.628   1.883   0.000  -2.510  -0.000   0.000
   27    5    6    7        3       0.628   1.883   0.000  -2.510  -0.000   0.000
   26    5    4   12        3       0.628   1.883   0.000  -2.510  -0.000   0.000
   23    3    4   12        3       0.628   1.883   0.000  -2.510  -0.000   0.000
   19    1    2    3        3       0.628   1.883   0.000  -2.510  -0.000   0.000
   28    6    5    4        3       0.628   1.883   0.000  -2.510  -0.000   0.000
   28    6    7    8        3       0.628   1.883   0.000  -2.510  -0.000   0.000
   32    9    8    7        3       0.628   1.883   0.000  -2.510  -0.000   0.000
   31    8    7    6        3       0.628   1.883   0.000  -2.510  -0.000   0.000
   33    9    8    7        3       0.628   1.883   0.000  -2.510  -0.000   0.000
   23    3    4    5        3       0.628   1.883   0.000  -2.510  -0.000   0.000
   18    1    2    3        3       0.628   1.883   0.000  -2.510  -0.000   0.000
   25    4    5    6        3       0.628   1.883   0.000  -2.510  -0.000   0.000
   25    4   12   13        3       0.766   2.297   0.000  -3.063  -0.000   0.000
   23    3    2   21        3       0.628   1.883   0.000  -2.510  -0.000   0.000
   21    2    1   20        3       0.628   1.883   0.000  -2.510  -0.000   0.000
   25    4    3   23        3       0.628   1.883   0.000  -2.510  -0.000   0.000
   31    8    7   30        3       0.628   1.883   0.000  -2.510  -0.000   0.000
   28    6    5   26        3       0.628   1.883   0.000  -2.510  -0.000   0.000
   29    6    5   27        3       0.628   1.883   0.000  -2.510  -0.000   0.000
   22    2    1   19        3       0.628   1.883   0.000  -2.510  -0.000   0.000
   34    9    8   31        3       0.628   1.883   0.000  -2.510  -0.000   0.000
   22    2    1   18        3       0.628   1.883   0.000  -2.510  -0.000   0.000
   32    9    8   31        3       0.628   1.883   0.000  -2.510  -0.000   0.000
   23    3    2   22        3       0.628   1.883   0.000  -2.510  -0.000   0.000
   26    5    4   25        3       0.628   1.883   0.000  -2.510  -0.000   0.000
   30    7    6   28        3       0.628   1.883   0.000  -2.510  -0.000   0.000
   21    2    1   19        3       0.628   1.883   0.000  -2.510  -0.000   0.000
   30    7    6   29        3       0.628   1.883   0.000  -2.510  -0.000   0.000
   24    3    2   21        3       0.628   1.883   0.000  -2.510  -0.000   0.000
   29    6    5   26        3       0.628   1.883   0.000  -2.510  -0.000   0.000
   28    6    5   27        3       0.628   1.883   0.000  -2.510  -0.000   0.000
   25    4    3   24        3       0.628   1.883   0.000  -2.510  -0.000   0.000
   21    2    1   18        3       0.628   1.883   0.000  -2.510  -0.000   0.000
   24    3    2   22        3       0.628   1.883   0.000  -2.510  -0.000   0.000
   27    5    4   25        3       0.628   1.883   0.000  -2.510  -0.000   0.000
   22    2    1   20        3       0.628   1.883   0.000  -2.510  -0.000   0.000
   33    9    8   31        3       0.628   1.883   0.000  -2.510  -0.000   0.000
   29    6    7   15        3       0.946   2.837   0.000  -3.782  -0.000   0.000
   25    4   12   15        3       0.946   2.837   0.000  -3.782  -0.000   0.000
   28    6    7   15        3       0.946   2.837   0.000  -3.782  -0.000   0.000
   31    8    7   15        3       0.946   2.837   0.000  -3.782  -0.000   0.000
   30    7   15   12        3       0.732   2.197   0.000  -2.929  -0.000   0.000
   30    7   15   17        3       0.732   2.197   0.000  -2.929  -0.000   0.000
   30    7   15   16        3       0.732   2.197   0.000  -2.929  -0.000   0.000
   14   13   12   10        3       0.000   0.000   0.000  -0.000  -0.000   0.000
   14   13   12    4        3       0.000   0.000   0.000  -0.000  -0.000   0.000
   11   10    8    9        3       0.000   0.000   0.000  -0.000  -0.000   0.000
   11   10    8    7        3       0.000   0.000   0.000  -0.000  -0.000   0.000
   11   10   12    4        3       0.000   0.000   0.000  -0.000  -0.000   0.000
   17   15   12   10        3       0.000   0.000   0.000  -0.000  -0.000   0.000
   16   15   12   10        3       0.000   0.000   0.000  -0.000  -0.000   0.000
   16   15    7    8        3       0.000   0.000   0.000  -0.000  -0.000   0.000
   17   15    7    6        3       0.000   0.000   0.000  -0.000  -0.000   0.000
   16   15    7    6        3       0.000   0.000   0.000  -0.000  -0.000   0.000
   17   15   12    4        3       0.000   0.000   0.000  -0.000  -0.000   0.000
   16   15   12    4        3       0.000   0.000   0.000  -0.000  -0.000   0.000
   17   15    7    8        3       0.000   0.000   0.000  -0.000  -0.000   0.000
   17   15   12   13        3       0.000   0.000   0.000  -0.000  -0.000   0.000
   16   15   12   13        3       0.000   0.000   0.000  -0.000  -0.000   0.000
   15   12   10    8        3       2.784   0.278   0.828  -3.891  -0.000   0.000
   15   12   10   11        3       0.000   0.000   0.000  -0.000  -0.000   0.000
   15    7    8   10        3      -16.259   9.088   7.171  -0.000  -0.000   0.000
   15    7    6    5        3       2.784   0.278   0.828  -3.891  -0.000   0.000
   15    7    8    9        3       2.784   0.278   0.828  -3.891  -0.000   0.000
   15   12    4    3        3       2.784   0.278   0.828  -3.891  -0.000   0.000
   15   12    4    5        3       2.784   0.278   0.828  -3.891  -0.000   0.000
   15   12   13   14        3       0.000   0.000   0.000  -0.000  -0.000   0.000

[ pairs ]
     1     4    1
     2     5    1
     3     6    1
     4     7    1
     4     8    1
     5     8    1
     3    10    1
     2    12    1
     6     9    1
     5    10    1
     4    11    1
     6    10    1
     3    13    1
     7    11    1
     6    12    1
     5    13    1
     4    14    1
     3    15    1
     9    11    1
     7    13    1
     5    15    1
     4    16    1
     9    12    1
     8    13    1
     4    17    1
     3    18    1
     6    16    1
     3    19    1
     6    17    1
     3    20    1
    11    13    1
    10    14    1
     9    15    1
     8    16    1
     1    23    1
     8    17    1
     4    21    1
     1    24    1
    11    15    1
    10    16    1
     4    22    1
    10    17    1
     2    25    1
     5    23    1
    14    15    1
    13    16    1
     5    24    1
     3    26    1
    13    17    1
     3    27    1
     6    25    1
     4    28    1
     7    26    1
     4    29    1
     7    27    1
    12    23    1
    10    25    1
     5    30    1
    12    24    1
     8    28    1
     8    29    1
     6    31    1
    13    25    1
    12    26    1
    18    21    1
    12    27    1
     9    30    1
     7    32    1
    19    21    1
    18    22    1
    15    25    1
    10    30    1
     7    33    1
    20    21    1
    19    22    1
     7    34    1
    20    22    1
    12    30    1
    11    31    1
    10    32    1
    15    28    1
    12    31    1
    10    33    1
    21    23    1
    15    29    1
    10    34    1
    22    23    1
    21    24    1
    22    24    1
    16    30    1
    15    31    1
    17    30    1
    23    25    1
    24    25    1
    25    26    1
    25    27    1
    26    28    1
    27    28    1
    26    29    1
    27    29    1
    28    30    1
    29    30    1
    30    31    1
    31    32    1
    31    33    1
    31    34    1

