LIGPARGEN GENERATED GRO FILE
   43
    1UNK    C00    1   0.100   0.100   0.000
    1UNK    C01    2  -0.053   0.100   0.000
    1UNK    C02    3  -0.102   0.100   0.145
    1UNK    C03    4  -0.254   0.091   0.162
    1UNK    C04    5  -0.310   0.066   0.308
    1UNK    C05    6  -0.250  -0.070   0.357
    1UNK    C06    7  -0.261   0.176   0.419
    1UNK    C07    8  -0.110   0.174   0.455
    1UNK    S08    9  -0.314   0.347   0.392
    1UNK    O09   10  -0.270   0.391   0.261
    1UNK    O0A   11  -0.451   0.364   0.438
    1UNK    C0B   12  -0.221   0.448   0.505
    1UNK    O0C   13  -0.219   0.423   0.626
    1UNK    C0D   14  -0.473   0.046   0.299
    1UNK    C0E   15  -0.513  -0.082   0.217
    1UNK    C0F   16  -0.537   0.026   0.439
    1UNK    C0G   17  -0.548   0.159   0.225
    1UNK    H0H   18   0.139   0.113  -0.101
    1UNK    H0I   19   0.139   0.006   0.040
    1UNK    H0J   20   0.139   0.181   0.063
    1UNK    H0K   21  -0.090   0.013  -0.055
    1UNK    H0M   22  -0.089   0.190  -0.052
    1UNK    H0N   23  -0.068   0.195   0.186
    1UNK    H0O   24  -0.053   0.017   0.197
    1UNK    H0P   25  -0.288   0.009   0.098
    1UNK    H0Q   26  -0.299   0.182   0.120
    1UNK    H0R   27  -0.141  -0.069   0.366
    1UNK    H0S   28  -0.271  -0.152   0.287
    1UNK    H0T   29  -0.288  -0.098   0.455
    1UNK    H0U   30  -0.310   0.149   0.514
    1UNK    H0V   31  -0.044   0.200   0.373
    1UNK    H0W   32  -0.079   0.077   0.495
    1UNK    H0X   33  -0.085   0.245   0.533
    1UNK    H0Y   34  -0.165   0.532   0.461
    1UNK    H0Z   35  -0.479  -0.175   0.264
    1UNK    H10   36  -0.476  -0.078   0.115
    1UNK    H11   37  -0.622  -0.090   0.210
    1UNK    H12   38  -0.500  -0.065   0.488
    1UNK    H13   39  -0.646   0.013   0.431
    1UNK    H14   40  -0.520   0.110   0.505
    1UNK    H15   41  -0.530   0.156   0.117
    1UNK    H16   42  -0.523   0.259   0.258
    1UNK    H17   43  -0.657   0.148   0.239
   1.00000   1.00000   1.00000

