LIGPARGEN GENERATED GRO FILE
   35
    1UNK    C00    1   0.100   0.100   0.000
    1UNK    C01    2  -0.049   0.100   0.000
    1UNK    C02    3  -0.125   0.100   0.130
    1UNK    C03    4  -0.127   0.224   0.042
    1UNK    C04    5  -0.255   0.269  -0.029
    1UNK    S05    6  -0.199   0.418  -0.123
    1UNK    O06    7  -0.147   0.515  -0.028
    1UNK    O07    8  -0.118   0.375  -0.235
    1UNK    C08    9  -0.344   0.495  -0.193
    1UNK    C09   10  -0.305   0.619  -0.272
    1UNK    C0A   11  -0.428   0.685  -0.331
    1UNK    N0B   12  -0.530   0.740  -0.381
    1UNK    C0C   13  -0.317   0.163  -0.121
    1UNK    C0D   14  -0.466   0.191  -0.123
    1UNK    C0E   15  -0.498   0.254   0.011
    1UNK    C0F   16  -0.366   0.305   0.071
    1UNK    H0G   17   0.137  -0.001  -0.022
    1UNK    H0H   18   0.142   0.131   0.096
    1UNK    H0I   19   0.138   0.167  -0.078
    1UNK    H0J   20  -0.086   0.038  -0.081
    1UNK    H0K   21  -0.069   0.106   0.223
    1UNK    H0M   22  -0.214   0.039   0.138
    1UNK    H0N   23  -0.070   0.307   0.083
    1UNK    H0O   24  -0.413   0.521  -0.112
    1UNK    H0P   25  -0.391   0.423  -0.260
    1UNK    H0Q   26  -0.236   0.593  -0.353
    1UNK    H0R   27  -0.254   0.692  -0.208
    1UNK    H0S   28  -0.305   0.062  -0.079
    1UNK    H0T   29  -0.274   0.162  -0.221
    1UNK    H0U   30  -0.524   0.099  -0.139
    1UNK    H0V   31  -0.493   0.258  -0.205
    1UNK    H0W   32  -0.542   0.179   0.078
    1UNK    H0X   33  -0.571   0.335   0.000
    1UNK    H0Y   34  -0.351   0.256   0.168
    1UNK    H0Z   35  -0.372   0.412   0.092
   1.00000   1.00000   1.00000

