
;
; GENERATED BY LigParGen Server
; Jorgensen Lab @ Yale University 
;
[ atomtypes ]
  opls_818  H818     1.0080     0.000    A    2.50000E-01   1.25520E-01
  opls_824  H824     1.0080     0.000    A    2.50000E-01   1.25520E-01
  opls_805  C805    12.0110     0.000    A    3.50000E-01   2.76144E-01
  opls_834  H834     1.0080     0.000    A    2.50000E-01   1.25520E-01
  opls_810  C810    12.0110     0.000    A    3.50000E-01   2.76144E-01
  opls_828  H828     1.0080     0.000    A    2.50000E-01   1.25520E-01
  opls_812  C812    12.0110     0.000    A    3.50000E-01   2.76144E-01
  opls_803  O803    15.9990     0.000    A    2.96000E-01   8.78640E-01
  opls_806  C806    12.0110     0.000    A    3.50000E-01   2.76144E-01
  opls_815  H815     1.0080     0.000    A    2.50000E-01   1.25520E-01
  opls_809  C809    12.0110     0.000    A    3.50000E-01   2.76144E-01
  opls_830  H830     1.0080     0.000    A    2.50000E-01   1.25520E-01
  opls_822  H822     1.0080     0.000    A    2.50000E-01   1.25520E-01
  opls_807  C807    12.0110     0.000    A    3.50000E-01   2.76144E-01
  opls_825  H825     1.0080     0.000    A    2.50000E-01   1.25520E-01
  opls_814  H814     1.0080     0.000    A    2.50000E-01   1.25520E-01
  opls_821  H821     1.0080     0.000    A    2.50000E-01   1.25520E-01
  opls_820  H820     1.0080     0.000    A    2.50000E-01   1.25520E-01
  opls_829  H829     1.0080     0.000    A    2.50000E-01   1.25520E-01
  opls_831  H831     1.0080     0.000    A    2.50000E-01   1.25520E-01
  opls_832  H832     1.0080     0.000    A    2.50000E-01   1.25520E-01
  opls_816  H816     1.0080     0.000    A    2.50000E-01   1.25520E-01
  opls_800  C800    12.0110     0.000    A    3.50000E-01   2.76144E-01
  opls_811  S811    32.0600     0.000    A    3.60000E-01   1.48532E+00
  opls_823  H823     1.0080     0.000    A    2.50000E-01   1.25520E-01
  opls_802  C802    12.0110     0.000    A    3.55000E-01   2.92880E-01
  opls_833  H833     1.0080     0.000    A    2.50000E-01   1.25520E-01
  opls_813  C813    12.0110     0.000    A    3.50000E-01   2.76144E-01
  opls_826  H826     1.0080     0.000    A    2.50000E-01   1.25520E-01
  opls_835  H835     1.0080     0.000    A    2.50000E-01   1.25520E-01
  opls_819  H819     1.0080     0.000    A    2.50000E-01   1.25520E-01
  opls_804  C804    12.0110     0.000    A    3.50000E-01   2.76144E-01
  opls_827  H827     1.0080     0.000    A    2.50000E-01   1.25520E-01
  opls_801  C801    12.0110     0.000    A    3.50000E-01   2.76144E-01
  opls_808  C808    12.0110     0.000    A    3.50000E-01   2.76144E-01
  opls_817  H817     1.0080     0.000    A    2.50000E-01   1.25520E-01
[ moleculetype ]
; Name               nrexcl
UNK                   3
[ atoms ]
;   nr       type  resnr residue  atom   cgnr     charge       mass  
     1   opls_800      1    UNK   C00      1    -0.2334    12.0110 
     2   opls_801      1    UNK   C01      1    -0.2298    12.0110 
     3   opls_802      1    UNK   C02      1     0.3685    12.0110 
     4   opls_803      1    UNK   O03      1    -0.4487    15.9990 
     5   opls_804      1    UNK   C04      1    -0.0812    12.0110 
     6   opls_805      1    UNK   C05      1    -0.1621    12.0110 
     7   opls_806      1    UNK   C06      1    -0.1132    12.0110 
     8   opls_807      1    UNK   C07      1    -0.2369    12.0110 
     9   opls_808      1    UNK   C08      1    -0.2411    12.0110 
    10   opls_809      1    UNK   C09      1    -0.1607    12.0110 
    11   opls_810      1    UNK   C0A      1    -0.0927    12.0110 
    12   opls_811      1    UNK   S0B      1    -0.3676    32.0600 
    13   opls_812      1    UNK   C0C      1    -0.0935    12.0110 
    14   opls_813      1    UNK   C0D      1    -0.1676    12.0110 
    15   opls_814      1    UNK   H0E      1     0.0922     1.0080 
    16   opls_815      1    UNK   H0F      1     0.0922     1.0080 
    17   opls_816      1    UNK   H0G      1     0.0922     1.0080 
    18   opls_817      1    UNK   H0H      1     0.1189     1.0080 
    19   opls_818      1    UNK   H0I      1     0.1189     1.0080 
    20   opls_819      1    UNK   H0J      1     0.0935     1.0080 
    21   opls_820      1    UNK   H0K      1     0.0935     1.0080 
    22   opls_821      1    UNK   H0M      1     0.1006     1.0080 
    23   opls_822      1    UNK   H0N      1     0.0859     1.0080 
    24   opls_823      1    UNK   H0O      1     0.0859     1.0080 
    25   opls_824      1    UNK   H0P      1     0.0859     1.0080 
    26   opls_825      1    UNK   H0Q      1     0.0834     1.0080 
    27   opls_826      1    UNK   H0R      1     0.0834     1.0080 
    28   opls_827      1    UNK   H0S      1     0.0834     1.0080 
    29   opls_828      1    UNK   H0T      1     0.1118     1.0080 
    30   opls_829      1    UNK   H0U      1     0.1118     1.0080 
    31   opls_830      1    UNK   H0V      1     0.1343     1.0080 
    32   opls_831      1    UNK   H0W      1     0.1343     1.0080 
    33   opls_832      1    UNK   H0X      2     0.1255     1.0080 
    34   opls_833      1    UNK   H0Y      2     0.1255     1.0080 
    35   opls_834      1    UNK   H0Z      2     0.1035     1.0080 
    36   opls_835      1    UNK   H10      2     0.1035     1.0080 
[ bonds ]
    2     1     1      0.1529 224262.400
    3     2     1      0.1522 265265.600
    4     3     1      0.1229 476976.000
    5     3     1      0.1522 265265.600
    6     5     1      0.1529 224262.400
    7     6     1      0.1529 224262.400
    8     7     1      0.1529 224262.400
    9     7     1      0.1529 224262.400
   10     5     1      0.1529 224262.400
   11    10     1      0.1529 224262.400
   12    11     1      0.1810 185769.600
   13    12     1      0.1810 185769.600
   14     5     1      0.1529 224262.400
   15     1     1      0.1090 284512.000
   16     1     1      0.1090 284512.000
   17     1     1      0.1090 284512.000
   18     2     1      0.1090 284512.000
   19     2     1      0.1090 284512.000
   20     6     1      0.1090 284512.000
   21     6     1      0.1090 284512.000
   22     7     1      0.1090 284512.000
   23     8     1      0.1090 284512.000
   24     8     1      0.1090 284512.000
   25     8     1      0.1090 284512.000
   26     9     1      0.1090 284512.000
   27     9     1      0.1090 284512.000
   28     9     1      0.1090 284512.000
   29    10     1      0.1090 284512.000
   30    10     1      0.1090 284512.000
   31    11     1      0.1090 284512.000
   32    11     1      0.1090 284512.000
   33    13     1      0.1090 284512.000
   34    13     1      0.1090 284512.000
   35    14     1      0.1090 284512.000
   36    14     1      0.1090 284512.000
   14    13     1      0.1529 224262.400

[ angles ]
;  ai    aj    ak funct            c0            c1            c2            c3 
    1     2     3     1    111.100    527.184
    2     3     4     1    120.400    669.440
    2     3     5     1    116.000    585.760
    3     5     6     1    111.100    527.184
    5     6     7     1    112.700    488.273
    6     7     8     1    112.700    488.273
    6     7     9     1    112.700    488.273
    3     5    10     1    111.100    527.184
    5    10    11     1    112.700    488.273
   10    11    12     1    114.700    418.400
   11    12    13     1     98.900    518.816
    3     5    14     1    111.100    527.184
    2     1    15     1    110.700    313.800
    2     1    16     1    110.700    313.800
    2     1    17     1    110.700    313.800
    1     2    18     1    110.700    313.800
    1     2    19     1    110.700    313.800
    5     6    20     1    110.700    313.800
    5     6    21     1    110.700    313.800
    6     7    22     1    110.700    313.800
    7     8    23     1    110.700    313.800
    7     8    24     1    110.700    313.800
    7     8    25     1    110.700    313.800
    7     9    26     1    110.700    313.800
    7     9    27     1    110.700    313.800
    7     9    28     1    110.700    313.800
    5    10    29     1    110.700    313.800
    5    10    30     1    110.700    313.800
   10    11    31     1    110.700    313.800
   10    11    32     1    110.700    313.800
   12    13    33     1    109.500    292.880
   12    13    34     1    109.500    292.880
    5    14    35     1    110.700    313.800
    5    14    36     1    110.700    313.800
   23     8    25     1    107.800    276.144
   26     9    28     1    107.800    276.144
   23     8    24     1    107.800    276.144
    3     2    18     1    109.500    292.880
    6     5    10     1    112.700    488.273
    6     5    14     1    112.700    488.273
   26     9    27     1    107.800    276.144
   27     9    28     1    107.800    276.144
    8     7     9     1    112.700    488.273
   12    13    14     1    114.700    418.400
   12    11    32     1    109.500    292.880
   31    11    32     1    107.800    276.144
    9     7    22     1    110.700    313.800
   14    13    34     1    110.700    313.800
    4     3     5     1    120.400    669.440
   18     2    19     1    107.800    276.144
    3     2    19     1    109.500    292.880
   15     1    16     1    107.800    276.144
   14    13    33     1    110.700    313.800
   11    10    29     1    110.700    313.800
   10     5    14     1    112.700    488.273
    8     7    22     1    110.700    313.800
   15     1    17     1    107.800    276.144
   16     1    17     1    107.800    276.144
    7     6    20     1    110.700    313.800
   20     6    21     1    107.800    276.144
   35    14    36     1    107.800    276.144
   24     8    25     1    107.800    276.144
   13    14    36     1    110.700    313.800
   13    14    35     1    110.700    313.800
   12    11    31     1    109.500    292.880
   33    13    34     1    107.800    276.144
    7     6    21     1    110.700    313.800
    5    14    13     1    112.700    488.273
   11    10    30     1    110.700    313.800
   29    10    30     1    107.800    276.144

[ dihedrals ]
; IMPROPER DIHEDRAL ANGLES 
;  ai    aj    ak    al funct            c0            c1            c2            c3            c4            c5
     5     3     2     4    4        180.000     43.932     2  

[ dihedrals ]
; PROPER DIHEDRAL ANGLES
;  ai    aj    ak    al funct            c0            c1            c2            c3            c4            c5
    5    3    2    1        3       0.818  -7.906   0.602   6.485  -0.000   0.000
    6    5    3    2        3       0.818  -7.906   0.602   6.485  -0.000   0.000
   14    5    3    2        3       0.818  -7.906   0.602   6.485  -0.000   0.000
   10    5    3    2        3       0.818  -7.906   0.602   6.485  -0.000   0.000
   10    5    3    4        3       0.000   0.000   0.000  -0.000  -0.000   0.000
   14    5    3    4        3       0.000   0.000   0.000  -0.000  -0.000   0.000
    6    5    3    4        3       0.000   0.000   0.000  -0.000  -0.000   0.000
    7    6    5    3        3      -4.960   6.286   1.310  -2.636  -0.000   0.000
   11   10    5    3        3      -4.960   6.286   1.310  -2.636  -0.000   0.000
   13   14    5    3        3      -4.960   6.286   1.310  -2.636  -0.000   0.000
    9    7    6    5        3       2.301  -1.464   0.837  -1.674  -0.000   0.000
   10    5    6    7        3       2.301  -1.464   0.837  -1.674  -0.000   0.000
   14    5    6    7        3       2.301  -1.464   0.837  -1.674  -0.000   0.000
   13   14    5    6        3       2.301  -1.464   0.837  -1.674  -0.000   0.000
   11   10    5    6        3       2.301  -1.464   0.837  -1.674  -0.000   0.000
   14    5   10   11        3       2.301  -1.464   0.837  -1.674  -0.000   0.000
    8    7    6    5        3       2.301  -1.464   0.837  -1.674  -0.000   0.000
   13   14    5   10        3       2.301  -1.464   0.837  -1.674  -0.000   0.000
   14   13   12   11        3       0.941   2.314   2.410  -5.665  -0.000   0.000
   13   12   11   10        3       0.941   2.314   2.410  -5.665  -0.000   0.000
   18    2    3    5        3       0.575   1.726   0.000  -2.301  -0.000   0.000
   19    2    3    5        3       0.575   1.726   0.000  -2.301  -0.000   0.000
   19    2    3    4        3       0.000   0.000   0.000  -0.000  -0.000   0.000
   18    2    3    4        3       0.000   0.000   0.000  -0.000  -0.000   0.000
   17    1    2    3        3      -0.209  -0.628   0.000   0.837  -0.000   0.000
   15    1    2    3        3      -0.209  -0.628   0.000   0.837  -0.000   0.000
   35   14    5    3        3      -0.209  -0.628   0.000   0.837  -0.000   0.000
   30   10    5    3        3      -0.209  -0.628   0.000   0.837  -0.000   0.000
   20    6    5    3        3      -0.209  -0.628   0.000   0.837  -0.000   0.000
   29   10    5    3        3      -0.209  -0.628   0.000   0.837  -0.000   0.000
   36   14    5    3        3      -0.209  -0.628   0.000   0.837  -0.000   0.000
   16    1    2    3        3      -0.209  -0.628   0.000   0.837  -0.000   0.000
   21    6    5    3        3      -0.209  -0.628   0.000   0.837  -0.000   0.000
   30   10    5    6        3       0.628   1.883   0.000  -2.510  -0.000   0.000
   28    9    7    8        3       0.628   1.883   0.000  -2.510  -0.000   0.000
   21    6    5   14        3       0.628   1.883   0.000  -2.510  -0.000   0.000
   26    9    7    8        3       0.628   1.883   0.000  -2.510  -0.000   0.000
   27    9    7    8        3       0.628   1.883   0.000  -2.510  -0.000   0.000
   21    6    7    8        3       0.628   1.883   0.000  -2.510  -0.000   0.000
   22    7    6    5        3       0.628   1.883   0.000  -2.510  -0.000   0.000
   21    6    7    9        3       0.628   1.883   0.000  -2.510  -0.000   0.000
   29   10    5    6        3       0.628   1.883   0.000  -2.510  -0.000   0.000
   30   10    5   14        3       0.628   1.883   0.000  -2.510  -0.000   0.000
   24    8    7    6        3       0.628   1.883   0.000  -2.510  -0.000   0.000
   34   13   14    5        3       0.628   1.883   0.000  -2.510  -0.000   0.000
   29   10    5   14        3       0.628   1.883   0.000  -2.510  -0.000   0.000
   27    9    7    6        3       0.628   1.883   0.000  -2.510  -0.000   0.000
   24    8    7    9        3       0.628   1.883   0.000  -2.510  -0.000   0.000
   32   11   10    5        3       0.628   1.883   0.000  -2.510  -0.000   0.000
   23    8    7    6        3       0.628   1.883   0.000  -2.510  -0.000   0.000
   36   14    5   10        3       0.628   1.883   0.000  -2.510  -0.000   0.000
   26    9    7    6        3       0.628   1.883   0.000  -2.510  -0.000   0.000
   31   11   10    5        3       0.628   1.883   0.000  -2.510  -0.000   0.000
   20    6    5   14        3       0.628   1.883   0.000  -2.510  -0.000   0.000
   20    6    7    9        3       0.628   1.883   0.000  -2.510  -0.000   0.000
   25    8    7    9        3       0.628   1.883   0.000  -2.510  -0.000   0.000
   36   14    5    6        3       0.628   1.883   0.000  -2.510  -0.000   0.000
   33   13   14    5        3       0.628   1.883   0.000  -2.510  -0.000   0.000
   21    6    5   10        3       0.628   1.883   0.000  -2.510  -0.000   0.000
   23    8    7    9        3       0.628   1.883   0.000  -2.510  -0.000   0.000
   20    6    7    8        3       0.628   1.883   0.000  -2.510  -0.000   0.000
   35   14    5    6        3       0.628   1.883   0.000  -2.510  -0.000   0.000
   28    9    7    6        3       0.628   1.883   0.000  -2.510  -0.000   0.000
   35   14    5   10        3       0.628   1.883   0.000  -2.510  -0.000   0.000
   25    8    7    6        3       0.628   1.883   0.000  -2.510  -0.000   0.000
   20    6    5   10        3       0.628   1.883   0.000  -2.510  -0.000   0.000
   27    9    7   22        3       0.628   1.883   0.000  -2.510  -0.000   0.000
   36   14   13   34        3       0.628   1.883   0.000  -2.510  -0.000   0.000
   36   14   13   33        3       0.628   1.883   0.000  -2.510  -0.000   0.000
   19    2    1   17        3       0.628   1.883   0.000  -2.510  -0.000   0.000
   31   11   10   29        3       0.628   1.883   0.000  -2.510  -0.000   0.000
   35   14   13   34        3       0.628   1.883   0.000  -2.510  -0.000   0.000
   18    2    1   16        3       0.628   1.883   0.000  -2.510  -0.000   0.000
   19    2    1   15        3       0.628   1.883   0.000  -2.510  -0.000   0.000
   18    2    1   17        3       0.628   1.883   0.000  -2.510  -0.000   0.000
   22    7    6   20        3       0.628   1.883   0.000  -2.510  -0.000   0.000
   25    8    7   22        3       0.628   1.883   0.000  -2.510  -0.000   0.000
   19    2    1   16        3       0.628   1.883   0.000  -2.510  -0.000   0.000
   24    8    7   22        3       0.628   1.883   0.000  -2.510  -0.000   0.000
   32   11   10   30        3       0.628   1.883   0.000  -2.510  -0.000   0.000
   28    9    7   22        3       0.628   1.883   0.000  -2.510  -0.000   0.000
   23    8    7   22        3       0.628   1.883   0.000  -2.510  -0.000   0.000
   35   14   13   33        3       0.628   1.883   0.000  -2.510  -0.000   0.000
   26    9    7   22        3       0.628   1.883   0.000  -2.510  -0.000   0.000
   22    7    6   21        3       0.628   1.883   0.000  -2.510  -0.000   0.000
   32   11   10   29        3       0.628   1.883   0.000  -2.510  -0.000   0.000
   31   11   10   30        3       0.628   1.883   0.000  -2.510  -0.000   0.000
   18    2    1   15        3       0.628   1.883   0.000  -2.510  -0.000   0.000
   36   14   13   12        3       0.946   2.837   0.000  -3.782  -0.000   0.000
   29   10   11   12        3       0.946   2.837   0.000  -3.782  -0.000   0.000
   35   14   13   12        3       0.946   2.837   0.000  -3.782  -0.000   0.000
   30   10   11   12        3       0.946   2.837   0.000  -3.782  -0.000   0.000
   34   13   12   11        3       1.354   4.061   0.000  -5.414  -0.000   0.000
   32   11   12   13        3       1.354   4.061   0.000  -5.414  -0.000   0.000
   33   13   12   11        3       1.354   4.061   0.000  -5.414  -0.000   0.000
   31   11   12   13        3       1.354   4.061   0.000  -5.414  -0.000   0.000
    4    3    2    1        3       0.000   0.000   0.000  -0.000  -0.000   0.000
   12   13   14    5        3       3.425  -3.860   2.594  -2.159  -0.000   0.000
   12   11   10    5        3       3.425  -3.860   2.594  -2.159  -0.000   0.000

[ pairs ]
     1     4    1
     1     5    1
     2     6    1
     4     6    1
     3     7    1
     2    10    1
     5     8    1
     5     9    1
     4    10    1
     3    11    1
     3    13    1
     2    14    1
     7    10    1
     6    11    1
     5    12    1
     4    14    1
     3    15    1
     6    13    1
     3    16    1
     3    17    1
     7    14    1
     4    18    1
    10    13    1
     5    18    1
     4    19    1
     3    20    1
     5    19    1
     3    21    1
    11    14    1
     5    22    1
     8    20    1
     9    20    1
     8    21    1
     6    23    1
    10    20    1
     9    21    1
     6    24    1
    10    21    1
     6    25    1
     9    23    1
     6    26    1
     3    29    1
    15    18    1
     9    24    1
     6    27    1
     3    30    1
    16    18    1
    15    19    1
    14    20    1
     9    25    1
     8    26    1
     6    28    1
    17    18    1
    16    19    1
    14    21    1
     8    27    1
     6    29    1
    17    19    1
     8    28    1
     6    30    1
     5    31    1
     5    32    1
     5    33    1
     3    35    1
     5    34    1
     3    36    1
    12    29    1
     6    35    1
    20    22    1
    12    30    1
     6    36    1
    21    22    1
    14    29    1
    14    30    1
    13    31    1
    11    33    1
    22    23    1
    13    32    1
    11    34    1
    10    35    1
    22    24    1
    10    36    1
    22    25    1
    12    35    1
    22    26    1
    12    36    1
    22    27    1
    22    28    1
    29    31    1
    30    31    1
    29    32    1
    30    32    1
    33    35    1
    34    35    1
    33    36    1
    34    36    1

