LIGPARGEN GENERATED GRO FILE
   36
    1UNK    C00    1   0.100   0.100   0.000
    1UNK    C01    2  -0.052   0.100   0.000
    1UNK    C02    3  -0.111   0.100   0.141
    1UNK    O03    4  -0.036   0.100   0.239
    1UNK    C04    5  -0.266   0.100   0.158
    1UNK    C05    6  -0.327  -0.026   0.086
    1UNK    C06    7  -0.281  -0.169   0.125
    1UNK    C07    8  -0.319  -0.212   0.267
    1UNK    C08    9  -0.346  -0.268   0.028
    1UNK    C09   10  -0.303   0.098   0.309
    1UNK    C0A   11  -0.279   0.225   0.389
    1UNK    S0B   12  -0.373   0.363   0.322
    1UNK    C0C   13  -0.304   0.359   0.155
    1UNK    C0D   14  -0.328   0.225   0.088
    1UNK    H0E   15   0.138   0.109  -0.102
    1UNK    H0F   16   0.139   0.007   0.042
    1UNK    H0G   17   0.140   0.183   0.059
    1UNK    H0H   18  -0.087   0.011  -0.054
    1UNK    H0I   19  -0.086   0.190  -0.053
    1UNK    H0J   20  -0.308  -0.014  -0.022
    1UNK    H0K   21  -0.436  -0.021   0.096
    1UNK    H0M   22  -0.173  -0.177   0.114
    1UNK    H0N   23  -0.418  -0.175   0.296
    1UNK    H0O   24  -0.244  -0.178   0.340
    1UNK    H0P   25  -0.321  -0.321   0.276
    1UNK    H0Q   26  -0.455  -0.264   0.034
    1UNK    H0R   27  -0.315  -0.371   0.050
    1UNK    H0S   28  -0.317  -0.247  -0.076
    1UNK    H0T   29  -0.244   0.021   0.360
    1UNK    H0U   30  -0.408   0.069   0.320
    1UNK    H0V   31  -0.173   0.252   0.391
    1UNK    H0W   32  -0.310   0.209   0.492
    1UNK    H0X   33  -0.198   0.384   0.159
    1UNK    H0Y   34  -0.354   0.438   0.098
    1UNK    H0Z   35  -0.292   0.232  -0.015
    1UNK    H10   36  -0.437   0.210   0.079
   1.00000   1.00000   1.00000

