
;
; GENERATED BY LigParGen Server
; Jorgensen Lab @ Yale University 
;
[ atomtypes ]
  opls_803  O803    15.9990     0.000    A    2.90000E-01   5.85760E-01
  opls_824  H824     1.0080     0.000    A    2.50000E-01   1.25520E-01
  opls_805  C805    12.0110     0.000    A    3.50000E-01   2.76144E-01
  opls_818  C818    12.0110     0.000    A    3.50000E-01   2.76144E-01
  opls_843  H843     1.0080     0.000    A    2.50000E-01   1.25520E-01
  opls_807  N807    14.0070     0.000    A    3.30000E-01   7.11280E-01
  opls_836  H836     1.0080     0.000    A    2.50000E-01   1.25520E-01
  opls_834  H834     1.0080     0.000    A    2.50000E-01   1.25520E-01
  opls_810  C810    12.0110     0.000    A    3.50000E-01   2.76144E-01
  opls_828  H828     1.0080     0.000    A    2.50000E-01   1.25520E-01
  opls_814  C814    12.0110     0.000    A    3.55000E-01   2.92880E-01
  opls_812  C812    12.0110     0.000    A    3.50000E-01   2.76144E-01
  opls_802  C802    12.0110     0.000    A    3.50000E-01   2.76144E-01
  opls_827  H827     1.0080     0.000    A    2.50000E-01   1.25520E-01
  opls_809  C809    12.0110     0.000    A    3.50000E-01   2.76144E-01
  opls_806  C806    12.0110     0.000    A    3.50000E-01   2.76144E-01
  opls_822  H822     1.0080     0.000    A    2.50000E-01   1.25520E-01
  opls_838  H838     1.0080     0.000    A    2.50000E-01   1.25520E-01
  opls_825  H825     1.0080     0.000    A    2.50000E-01   1.25520E-01
  opls_830  H830     1.0080     0.000    A    2.50000E-01   1.25520E-01
  opls_821  H821     1.0080     0.000    A    2.50000E-01   1.25520E-01
  opls_842  H842     1.0080     0.000    A    2.50000E-01   1.25520E-01
  opls_820  H820     1.0080     0.000    A    2.50000E-01   1.25520E-01
  opls_837  H837     1.0080     0.000    A    2.50000E-01   1.25520E-01
  opls_829  H829     1.0080     0.000    A    2.50000E-01   1.25520E-01
  opls_831  H831     1.0080     0.000    A    2.50000E-01   1.25520E-01
  opls_832  H832     1.0080     0.000    A    2.50000E-01   1.25520E-01
  opls_800  C800    12.0110     0.000    A    3.50000E-01   2.76144E-01
  opls_811  C811    12.0110     0.000    A    3.50000E-01   2.76144E-01
  opls_823  H823     1.0080     0.000    A    2.50000E-01   1.25520E-01
  opls_813  O813    15.9990     0.000    A    2.90000E-01   5.85760E-01
  opls_816  O816    15.9990     0.000    A    2.90000E-01   5.85760E-01
  opls_826  H826     1.0080     0.000    A    2.50000E-01   1.25520E-01
  opls_835  H835     1.0080     0.000    A    2.50000E-01   1.25520E-01
  opls_841  H841     1.0080     0.000    A    2.50000E-01   1.25520E-01
  opls_819  H819     1.0080     0.000    A    2.50000E-01   1.25520E-01
  opls_804  C804    12.0110     0.000    A    3.50000E-01   2.76144E-01
  opls_833  H833     1.0080     0.000    A    2.50000E-01   1.25520E-01
  opls_839  H839     1.0080     0.000    A    2.50000E-01   1.25520E-01
  opls_817  C817    12.0110     0.000    A    3.50000E-01   2.76144E-01
  opls_801  C801    12.0110     0.000    A    3.50000E-01   2.76144E-01
  opls_808  C808    12.0110     0.000    A    3.50000E-01   2.76144E-01
  opls_815  O815    15.9990     0.000    A    2.96000E-01   8.78640E-01
  opls_840  H840     1.0080     0.000    A    2.50000E-01   1.25520E-01
[ moleculetype ]
; Name               nrexcl
UNK                   3
[ atoms ]
;   nr       type  resnr residue  atom   cgnr     charge       mass  
     1   opls_800      1    UNK   C00      1    -0.2389    12.0110 
     2   opls_801      1    UNK   C01      1    -0.1823    12.0110 
     3   opls_802      1    UNK   C02      1     0.0114    12.0110 
     4   opls_803      1    UNK   O03      1    -0.3926    15.9990 
     5   opls_804      1    UNK   C04      1      0.183    12.0110 
     6   opls_805      1    UNK   C05      1     0.1109    12.0110 
     7   opls_806      1    UNK   C06      1    -0.2528    12.0110 
     8   opls_807      1    UNK   N07      1    -0.5916    14.0070 
     9   opls_808      1    UNK   C08      1    -0.0521    12.0110 
    10   opls_809      1    UNK   C09      1    -0.0526    12.0110 
    11   opls_810      1    UNK   C0A      1    -0.2226    12.0110 
    12   opls_811      1    UNK   C0B      1    -0.1827    12.0110 
    13   opls_812      1    UNK   C0C      1     0.0664    12.0110 
    14   opls_813      1    UNK   O0D      1    -0.3632    15.9990 
    15   opls_814      1    UNK   C0E      1     0.6012    12.0110 
    16   opls_815      1    UNK   O0F      1    -0.3818    15.9990 
    17   opls_816      1    UNK   O0G      1    -0.3939    15.9990 
    18   opls_817      1    UNK   C0H      1     0.0508    12.0110 
    19   opls_818      1    UNK   C0I      1    -0.2278    12.0110 
    20   opls_819      1    UNK   H0J      1     0.0866     1.0080 
    21   opls_820      1    UNK   H0K      1     0.0866     1.0080 
    22   opls_821      1    UNK   H0M      1     0.0866     1.0080 
    23   opls_822      1    UNK   H0N      1     0.1031     1.0080 
    24   opls_823      1    UNK   H0O      1     0.1031     1.0080 
    25   opls_824      1    UNK   H0P      1     0.0781     1.0080 
    26   opls_825      1    UNK   H0Q      1     0.0781     1.0080 
    27   opls_826      1    UNK   H0R      1     0.0865     1.0080 
    28   opls_827      1    UNK   H0S      1     0.0945     1.0080 
    29   opls_828      1    UNK   H0T      1     0.0945     1.0080 
    30   opls_829      1    UNK   H0U      1     0.0945     1.0080 
    31   opls_830      1    UNK   H0V      1     0.0887     1.0080 
    32   opls_831      1    UNK   H0W      1     0.0887     1.0080 
    33   opls_832      1    UNK   H0X      2     0.0887     1.0080 
    34   opls_833      1    UNK   H0Y      2     0.0849     1.0080 
    35   opls_834      1    UNK   H0Z      2     0.0849     1.0080 
    36   opls_835      1    UNK   H10      2     0.0849     1.0080 
    37   opls_836      1    UNK   H11      2     0.1152     1.0080 
    38   opls_837      1    UNK   H12      2     0.1152     1.0080 
    39   opls_838      1    UNK   H13      2     0.1164     1.0080 
    40   opls_839      1    UNK   H14      2     0.1164     1.0080 
    41   opls_840      1    UNK   H15      2     0.1244     1.0080 
    42   opls_841      1    UNK   H16      2     0.1385     1.0080 
    43   opls_842      1    UNK   H17      2     0.1385     1.0080 
    44   opls_843      1    UNK   H18      2     0.1334     1.0080 
[ bonds ]
    2     1     1      0.1529 224262.400
    3     2     1      0.1529 224262.400
    4     3     1      0.1410 267776.000
    5     4     1      0.1410 267776.000
    6     5     1      0.1529 224262.400
    7     6     1      0.1529 224262.400
    8     6     1      0.1448 319657.600
    9     8     1      0.1448 319657.600
   10     8     1      0.1448 319657.600
   11     5     1      0.1529 224262.400
   12    11     1      0.1529 224262.400
   13    12     1      0.1529 224262.400
   14    13     1      0.1410 267776.000
   15    14     1      0.1327 179075.200
   16    15     1      0.1229 476976.000
   17    15     1      0.1327 179075.200
   18    17     1      0.1410 267776.000
   19     5     1      0.1529 224262.400
   20     1     1      0.1090 284512.000
   21     1     1      0.1090 284512.000
   22     1     1      0.1090 284512.000
   23     2     1      0.1090 284512.000
   24     2     1      0.1090 284512.000
   25     3     1      0.1090 284512.000
   26     3     1      0.1090 284512.000
   27     6     1      0.1090 284512.000
   28     7     1      0.1090 284512.000
   29     7     1      0.1090 284512.000
   30     7     1      0.1090 284512.000
   31     9     1      0.1090 284512.000
   32     9     1      0.1090 284512.000
   33     9     1      0.1090 284512.000
   34    10     1      0.1090 284512.000
   35    10     1      0.1090 284512.000
   36    10     1      0.1090 284512.000
   37    11     1      0.1090 284512.000
   38    11     1      0.1090 284512.000
   39    12     1      0.1090 284512.000
   40    12     1      0.1090 284512.000
   41    13     1      0.1090 284512.000
   42    18     1      0.1090 284512.000
   43    18     1      0.1090 284512.000
   44    19     1      0.1090 284512.000
   19    13     1      0.1529 224262.400
   19    18     1      0.1529 224262.400

[ angles ]
;  ai    aj    ak funct            c0            c1            c2            c3 
    1     2     3     1    112.700    488.273
    2     3     4     1    109.500    418.400
    3     4     5     1    109.500    502.080
    4     5     6     1    109.500    418.400
    5     6     7     1    112.700    488.273
    5     6     8     1    109.470    470.282
    6     8     9     1    107.200    433.462
    6     8    10     1    107.200    433.462
    4     5    11     1    109.500    418.400
    5    11    12     1    112.700    488.273
   11    12    13     1    112.700    488.273
   12    13    14     1    109.500    418.400
   13    14    15     1    116.900    694.544
   14    15    16     1    123.400    694.544
   14    15    17     1    118.180    584.923
   15    17    18     1    116.900    694.544
    4     5    19     1    109.500    418.400
    2     1    20     1    110.700    313.800
    2     1    21     1    110.700    313.800
    2     1    22     1    110.700    313.800
    1     2    23     1    110.700    313.800
    1     2    24     1    110.700    313.800
    2     3    25     1    110.700    313.800
    2     3    26     1    110.700    313.800
    5     6    27     1    110.700    313.800
    6     7    28     1    110.700    313.800
    6     7    29     1    110.700    313.800
    6     7    30     1    110.700    313.800
    8     9    31     1    109.500    292.880
    8     9    32     1    109.500    292.880
    8     9    33     1    109.500    292.880
    8    10    34     1    109.500    292.880
    8    10    35     1    109.500    292.880
    8    10    36     1    109.500    292.880
    5    11    37     1    110.700    313.800
    5    11    38     1    110.700    313.800
   11    12    39     1    110.700    313.800
   11    12    40     1    110.700    313.800
   12    13    41     1    110.700    313.800
   17    18    42     1    109.500    292.880
   17    18    43     1    109.500    292.880
    5    19    44     1    110.700    313.800
   12    11    37     1    110.700    313.800
   14    13    19     1    109.500    418.400
   31     9    33     1    107.800    276.144
   11     5    19     1    112.700    488.273
   14    13    41     1    109.500    292.880
   16    15    17     1    123.400    694.544
   35    10    36     1    107.800    276.144
   12    11    38     1    110.700    313.800
   34    10    35     1    107.800    276.144
   20     1    21     1    107.800    276.144
   29     7    30     1    107.800    276.144
   13    19    18     1    112.700    488.273
    5    19    13     1    112.700    488.273
    6     5    19     1    112.700    488.273
   39    12    40     1    107.800    276.144
   19    18    42     1    110.700    313.800
    6     5    11     1    112.700    488.273
   19    18    43     1    110.700    313.800
   28     7    29     1    107.800    276.144
    7     6    27     1    110.700    313.800
   32     9    33     1    107.800    276.144
   20     1    22     1    107.800    276.144
    9     8    10     1    107.200    433.462
   13    12    39     1    110.700    313.800
   19    13    41     1    110.700    313.800
   42    18    43     1    107.800    276.144
    4     3    25     1    109.500    292.880
   21     1    22     1    107.800    276.144
   17    18    19     1    109.500    418.400
   31     9    32     1    107.800    276.144
    5    19    18     1    112.700    488.273
    8     6    27     1    109.500    292.880
   34    10    36     1    107.800    276.144
   13    19    44     1    110.700    313.800
    4     3    26     1    109.500    292.880
   13    12    40     1    110.700    313.800
   37    11    38     1    107.800    276.144
   25     3    26     1    107.800    276.144
   12    13    19     1    112.700    488.273
    3     2    23     1    110.700    313.800
   18    19    44     1    110.700    313.800
    7     6     8     1    109.470    470.282
   23     2    24     1    107.800    276.144
   28     7    30     1    107.800    276.144
    3     2    24     1    110.700    313.800

[ dihedrals ]
; IMPROPER DIHEDRAL ANGLES 
;  ai    aj    ak    al funct            c0            c1            c2            c3            c4            c5
    17    15    14    16    4        180.000     43.932     2  

[ dihedrals ]
; PROPER DIHEDRAL ANGLES
;  ai    aj    ak    al funct            c0            c1            c2            c3            c4            c5
   15   14   13   12        3      -2.197   5.201   0.527  -3.531  -0.000   0.000
   13   19    5    6        3       2.301  -1.464   0.837  -1.674  -0.000   0.000
   19    5   11   12        3       2.301  -1.464   0.837  -1.674  -0.000   0.000
   18   19    5   11        3       2.301  -1.464   0.837  -1.674  -0.000   0.000
   18   19   13   12        3       2.301  -1.464   0.837  -1.674  -0.000   0.000
   12   11    5    6        3       2.301  -1.464   0.837  -1.674  -0.000   0.000
   12   13   19    5        3       2.301  -1.464   0.837  -1.674  -0.000   0.000
   13   19    5   11        3       2.301  -1.464   0.837  -1.674  -0.000   0.000
   13   12   11    5        3       2.301  -1.464   0.837  -1.674  -0.000   0.000
   19   13   12   11        3       2.301  -1.464   0.837  -1.674  -0.000   0.000
   19    5    6    7        3       2.301  -1.464   0.837  -1.674  -0.000   0.000
   11    5    6    7        3       2.301  -1.464   0.837  -1.674  -0.000   0.000
   18   19    5    6        3       2.301  -1.464   0.837  -1.674  -0.000   0.000
   19    5    6    8        3       3.335  -1.552   2.820  -4.602  -0.000   0.000
   11    5    6    8        3       3.335  -1.552   2.820  -4.602  -0.000   0.000
   18   19   13   14        3       2.874   0.582   2.092  -5.548  -0.000   0.000
    7    6    5    4        3       2.874   0.582   2.092  -5.548  -0.000   0.000
   18   19    5    4        3       2.874   0.582   2.092  -5.548  -0.000   0.000
   12   11    5    4        3       2.874   0.582   2.092  -5.548  -0.000   0.000
   13   19    5    4        3       2.874   0.582   2.092  -5.548  -0.000   0.000
   19   18   17   15        3      -2.197   5.201   0.527  -3.531  -0.000   0.000
   19   13   14   15        3      -2.197   5.201   0.527  -3.531  -0.000   0.000
   11    5    4    3        3       1.715   2.845   1.046  -5.607  -0.000   0.000
   19    5    4    3        3       1.715   2.845   1.046  -5.607  -0.000   0.000
    6    5    4    3        3       1.715   2.845   1.046  -5.607  -0.000   0.000
    9    8    6    7        3       1.789   3.492   0.536  -5.816  -0.000   0.000
   10    8    6    7        3       1.789   3.492   0.536  -5.816  -0.000   0.000
    9    8    6    5        3       1.789   3.492   0.536  -5.816  -0.000   0.000
   10    8    6    5        3       1.789   3.492   0.536  -5.816  -0.000   0.000
   18   17   15   16        3      21.439   0.000  -21.439  -0.000  -0.000   0.000
   18   17   15   14        3      31.206  -9.768  -21.439  -0.000  -0.000   0.000
    5    4    3    2        3       1.715   2.845   1.046  -5.607  -0.000   0.000
   21    1    2    3        3       0.628   1.883   0.000  -2.510  -0.000   0.000
   41   13   19    5        3       0.628   1.883   0.000  -2.510  -0.000   0.000
   37   11    5   19        3       0.628   1.883   0.000  -2.510  -0.000   0.000
   40   12   11    5        3       0.628   1.883   0.000  -2.510  -0.000   0.000
   30    7    6    5        3       0.628   1.883   0.000  -2.510  -0.000   0.000
   38   11    5    6        3       0.628   1.883   0.000  -2.510  -0.000   0.000
   44   19    5    6        3       0.628   1.883   0.000  -2.510  -0.000   0.000
   29    7    6    5        3       0.628   1.883   0.000  -2.510  -0.000   0.000
   27    6    5   11        3       0.628   1.883   0.000  -2.510  -0.000   0.000
   42   18   19    5        3       0.628   1.883   0.000  -2.510  -0.000   0.000
   41   13   12   11        3       0.628   1.883   0.000  -2.510  -0.000   0.000
   39   12   11    5        3       0.628   1.883   0.000  -2.510  -0.000   0.000
   38   11   12   13        3       0.628   1.883   0.000  -2.510  -0.000   0.000
   26    3    2    1        3       0.628   1.883   0.000  -2.510  -0.000   0.000
   37   11   12   13        3       0.628   1.883   0.000  -2.510  -0.000   0.000
   44   19    5   11        3       0.628   1.883   0.000  -2.510  -0.000   0.000
   22    1    2    3        3       0.628   1.883   0.000  -2.510  -0.000   0.000
   43   18   19   13        3       0.628   1.883   0.000  -2.510  -0.000   0.000
   42   18   19   13        3       0.628   1.883   0.000  -2.510  -0.000   0.000
   40   12   13   19        3       0.628   1.883   0.000  -2.510  -0.000   0.000
   41   13   19   18        3       0.628   1.883   0.000  -2.510  -0.000   0.000
   25    3    2    1        3       0.628   1.883   0.000  -2.510  -0.000   0.000
   39   12   13   19        3       0.628   1.883   0.000  -2.510  -0.000   0.000
   38   11    5   19        3       0.628   1.883   0.000  -2.510  -0.000   0.000
   27    6    5   19        3       0.628   1.883   0.000  -2.510  -0.000   0.000
   43   18   19    5        3       0.628   1.883   0.000  -2.510  -0.000   0.000
   20    1    2    3        3       0.628   1.883   0.000  -2.510  -0.000   0.000
   28    7    6    5        3       0.628   1.883   0.000  -2.510  -0.000   0.000
   44   19   13   12        3       0.628   1.883   0.000  -2.510  -0.000   0.000
   37   11    5    6        3       0.628   1.883   0.000  -2.510  -0.000   0.000
   39   12   11   38        3       0.628   1.883   0.000  -2.510  -0.000   0.000
   23    2    1   22        3       0.628   1.883   0.000  -2.510  -0.000   0.000
   44   19   13   41        3       0.628   1.883   0.000  -2.510  -0.000   0.000
   44   19   18   43        3       0.628   1.883   0.000  -2.510  -0.000   0.000
   25    3    2   23        3       0.628   1.883   0.000  -2.510  -0.000   0.000
   24    2    1   21        3       0.628   1.883   0.000  -2.510  -0.000   0.000
   39   12   11   37        3       0.628   1.883   0.000  -2.510  -0.000   0.000
   40   12   11   37        3       0.628   1.883   0.000  -2.510  -0.000   0.000
   41   13   12   39        3       0.628   1.883   0.000  -2.510  -0.000   0.000
   44   19   18   42        3       0.628   1.883   0.000  -2.510  -0.000   0.000
   23    2    1   21        3       0.628   1.883   0.000  -2.510  -0.000   0.000
   40   12   11   38        3       0.628   1.883   0.000  -2.510  -0.000   0.000
   41   13   12   40        3       0.628   1.883   0.000  -2.510  -0.000   0.000
   26    3    2   23        3       0.628   1.883   0.000  -2.510  -0.000   0.000
   30    7    6   27        3       0.628   1.883   0.000  -2.510  -0.000   0.000
   24    2    1   22        3       0.628   1.883   0.000  -2.510  -0.000   0.000
   23    2    1   20        3       0.628   1.883   0.000  -2.510  -0.000   0.000
   28    7    6   27        3       0.628   1.883   0.000  -2.510  -0.000   0.000
   29    7    6   27        3       0.628   1.883   0.000  -2.510  -0.000   0.000
   25    3    2   24        3       0.628   1.883   0.000  -2.510  -0.000   0.000
   24    2    1   20        3       0.628   1.883   0.000  -2.510  -0.000   0.000
   26    3    2   24        3       0.628   1.883   0.000  -2.510  -0.000   0.000
   29    7    6    8        3      -4.096   5.088   2.966  -3.958  -0.000   0.000
   28    7    6    8        3      -4.096   5.088   2.966  -3.958  -0.000   0.000
   30    7    6    8        3      -4.096   5.088   2.966  -3.958  -0.000   0.000
   38   11    5    4        3       0.979   2.937   0.000  -3.916  -0.000   0.000
   40   12   13   14        3       0.979   2.937   0.000  -3.916  -0.000   0.000
   37   11    5    4        3       0.979   2.937   0.000  -3.916  -0.000   0.000
   44   19    5    4        3       0.979   2.937   0.000  -3.916  -0.000   0.000
   27    6    5    4        3       0.979   2.937   0.000  -3.916  -0.000   0.000
   44   19   18   17        3       0.979   2.937   0.000  -3.916  -0.000   0.000
   24    2    3    4        3       0.979   2.937   0.000  -3.916  -0.000   0.000
   39   12   13   14        3       0.979   2.937   0.000  -3.916  -0.000   0.000
   23    2    3    4        3       0.979   2.937   0.000  -3.916  -0.000   0.000
   44   19   13   14        3       0.979   2.937   0.000  -3.916  -0.000   0.000
   31    9    8   10        3       1.172   3.515   0.000  -4.686  -0.000   0.000
   33    9    8   10        3       1.172   3.515   0.000  -4.686  -0.000   0.000
   32    9    8   10        3       1.172   3.515   0.000  -4.686  -0.000   0.000
   36   10    8    9        3       1.172   3.515   0.000  -4.686  -0.000   0.000
   35   10    8    9        3       1.172   3.515   0.000  -4.686  -0.000   0.000
   31    9    8    6        3       1.172   3.515   0.000  -4.686  -0.000   0.000
   27    6    8    9        3       1.172   3.515   0.000  -4.686  -0.000   0.000
   36   10    8    6        3       1.172   3.515   0.000  -4.686  -0.000   0.000
   33    9    8    6        3       1.172   3.515   0.000  -4.686  -0.000   0.000
   34   10    8    6        3       1.172   3.515   0.000  -4.686  -0.000   0.000
   34   10    8    9        3       1.172   3.515   0.000  -4.686  -0.000   0.000
   35   10    8    6        3       1.172   3.515   0.000  -4.686  -0.000   0.000
   32    9    8    6        3       1.172   3.515   0.000  -4.686  -0.000   0.000
   27    6    8   10        3       1.172   3.515   0.000  -4.686  -0.000   0.000
   42   18   17   15        3       0.414   1.243   0.000  -1.657  -0.000   0.000
   43   18   17   15        3       0.414   1.243   0.000  -1.657  -0.000   0.000
   41   13   14   15        3       0.414   1.243   0.000  -1.657  -0.000   0.000
   26    3    4    5        3       1.590   4.770   0.000  -6.360  -0.000   0.000
   25    3    4    5        3       1.590   4.770   0.000  -6.360  -0.000   0.000
    8    6    5    4        3      16.736  -16.736   0.000  -0.000  -0.000   0.000
   16   15   14   13        3      21.439   0.000  -21.439  -0.000  -0.000   0.000
   17   15   14   13        3      31.206  -9.768  -21.439  -0.000  -0.000   0.000
   17   18   19    5        3       2.874   0.582   2.092  -5.548  -0.000   0.000
   14   13   19    5        3       2.874   0.582   2.092  -5.548  -0.000   0.000
   17   18   19   13        3       2.874   0.582   2.092  -5.548  -0.000   0.000
   14   13   12   11        3       2.874   0.582   2.092  -5.548  -0.000   0.000
    4    3    2    1        3       2.874   0.582   2.092  -5.548  -0.000   0.000

[ pairs ]
     1     4    1
     2     5    1
     3     6    1
     4     7    1
     4     8    1
     5     9    1
     3    11    1
     5    10    1
     7     9    1
     4    12    1
     7    10    1
     4    13    1
     7    11    1
     6    12    1
     8    11    1
     6    13    1
     5    14    1
     5    17    1
     4    18    1
     3    19    1
     3    20    1
     6    18    1
     3    21    1
    11    14    1
     3    22    1
     7    19    1
     1    25    1
    12    15    1
     8    19    1
     4    23    1
     1    26    1
     4    24    1
    13    16    1
    11    18    1
    13    17    1
    12    18    1
     5    25    1
     5    26    1
     4    27    1
    14    18    1
     5    28    1
    16    18    1
    15    19    1
     5    29    1
     5    30    1
     9    27    1
     8    28    1
    10    27    1
     8    29    1
     6    31    1
    11    27    1
     8    30    1
     6    32    1
     6    33    1
     6    34    1
    10    31    1
     6    35    1
     4    37    1
    10    32    1
     6    36    1
     4    38    1
    20    23    1
    10    33    1
     9    34    1
     6    37    1
    21    23    1
    20    24    1
     9    35    1
     6    38    1
     5    39    1
    22    23    1
    21    24    1
     9    36    1
     5    40    1
    22    24    1
    19    27    1
     5    41    1
     5    42    1
    23    25    1
     5    43    1
     4    44    1
    24    25    1
    23    26    1
    24    26    1
    13    37    1
     6    44    1
    13    38    1
    11    41    1
    14    39    1
    14    40    1
    27    28    1
    13    42    1
    11    44    1
    27    29    1
    19    37    1
    15    41    1
    13    43    1
    12    44    1
    27    30    1
    19    38    1
    15    42    1
    19    39    1
    15    43    1
    14    44    1
    19    40    1
    18    41    1
    17    44    1
    37    39    1
    38    39    1
    37    40    1
    38    40    1
    39    41    1
    40    41    1
    41    44    1
    42    44    1
    43    44    1

