LIGPARGEN GENERATED GRO FILE
   44
    1UNK    C00    1   0.100   0.100   0.000
    1UNK    C01    2  -0.052   0.100   0.000
    1UNK    C02    3  -0.105   0.100   0.143
    1UNK    O03    4  -0.248   0.100   0.146
    1UNK    C04    5  -0.315   0.094   0.275
    1UNK    C05    6  -0.476   0.085   0.253
    1UNK    C06    7  -0.550   0.069   0.388
    1UNK    N07    8  -0.545   0.195   0.176
    1UNK    C08    9  -0.495   0.209   0.039
    1UNK    C09   10  -0.691   0.172   0.166
    1UNK    C0A   11  -0.267  -0.037   0.349
    1UNK    C0B   12  -0.198   0.009   0.477
    1UNK    C0C   13  -0.264   0.143   0.507
    1UNK    O0D   14  -0.192   0.225   0.595
    1UNK    C0E   15  -0.246   0.349   0.614
    1UNK    O0F   16  -0.230   0.411   0.718
    1UNK    O0G   17  -0.320   0.399   0.511
    1UNK    C0H   18  -0.334   0.339   0.379
    1UNK    C0I   19  -0.266   0.207   0.371
    1UNK    H0J   20   0.139   0.105  -0.102
    1UNK    H0K   21   0.139   0.009   0.048
    1UNK    H0M   22   0.139   0.186   0.056
    1UNK    H0N   23  -0.090   0.013  -0.054
    1UNK    H0O   24  -0.090   0.189  -0.053
    1UNK    H0P   25  -0.066   0.190   0.191
    1UNK    H0Q   26  -0.065   0.012   0.194
    1UNK    H0R   27  -0.492  -0.008   0.196
    1UNK    H0S   28  -0.558   0.164   0.443
    1UNK    H0T   29  -0.505  -0.004   0.455
    1UNK    H0U   30  -0.653   0.033   0.375
    1UNK    H0V   31  -0.392   0.242   0.036
    1UNK    H0W   32  -0.551   0.288  -0.014
    1UNK    H0X   33  -0.506   0.116  -0.019
    1UNK    H0Y   34  -0.740   0.188   0.263
    1UNK    H0Z   35  -0.715   0.071   0.131
    1UNK    H10   36  -0.738   0.244   0.099
    1UNK    H11   37  -0.201  -0.101   0.288
    1UNK    H12   38  -0.350  -0.103   0.374
    1UNK    H13   39  -0.090   0.022   0.461
    1UNK    H14   40  -0.209  -0.062   0.559
    1UNK    H15   41  -0.363   0.126   0.551
    1UNK    H16   42  -0.289   0.409   0.307
    1UNK    H17   43  -0.441   0.337   0.358
    1UNK    H18   44  -0.162   0.232   0.350
   1.00000   1.00000   1.00000

