LIGPARGEN GENERATED GRO FILE
   32
    1UNK    C00    1   0.100   0.100   0.000
    1UNK    C01    2  -0.052   0.100   0.000
    1UNK    C02    3  -0.110   0.100   0.142
    1UNK    C03    4  -0.263   0.100   0.136
    1UNK    C04    5  -0.327   0.100   0.275
    1UNK    C05    6  -0.483   0.100   0.275
    1UNK    C06    7  -0.537   0.224   0.201
    1UNK    C07    8  -0.544  -0.026   0.207
    1UNK    C08    9  -0.514  -0.160   0.273
    1UNK    S09   10  -0.542   0.108   0.450
    1UNK    O0A   11  -0.687   0.108   0.451
    1UNK    O0B   12  -0.467   0.015   0.531
    1UNK    Cl0   13  -0.491   0.292   0.525
    1UNK    H0D   14   0.138   0.100  -0.103
    1UNK    H0E   15   0.139   0.011   0.050
    1UNK    H0F   16   0.139   0.189   0.050
    1UNK    H0G   17  -0.088   0.012  -0.055
    1UNK    H0H   18  -0.087   0.188  -0.055
    1UNK    H0I   19  -0.075   0.189   0.196
    1UNK    H0J   20  -0.075   0.012   0.196
    1UNK    H0K   21  -0.295   0.012   0.080
    1UNK    H0M   22  -0.295   0.188   0.080
    1UNK    H0N   23  -0.291   0.189   0.329
    1UNK    H0O   24  -0.289   0.014   0.332
    1UNK    H0P   25  -0.514   0.219   0.094
    1UNK    H0Q   26  -0.493   0.317   0.239
    1UNK    H0R   27  -0.646   0.232   0.210
    1UNK    H0S   28  -0.510  -0.030   0.103
    1UNK    H0T   29  -0.653  -0.015   0.202
    1UNK    H0U   30  -0.409  -0.171   0.299
    1UNK    H0V   31  -0.540  -0.241   0.204
    1UNK    H0W   32  -0.575  -0.174   0.363
   1.00000   1.00000   1.00000

