
;
; GENERATED BY LigParGen Server
; Jorgensen Lab @ Yale University 
;
[ atomtypes ]
  opls_818  H818     1.0080     0.000    A    2.50000E-01   1.25520E-01
  opls_831  H831     1.0080     0.000    A    2.50000E-01   1.25520E-01
  opls_824  H824     1.0080     0.000    A    2.50000E-01   1.25520E-01
  opls_805  C805    12.0110     0.000    A    3.50000E-01   2.76144E-01
  opls_828  H828     1.0080     0.000    A    2.50000E-01   1.25520E-01
  opls_813  H813     1.0080     0.000    A    2.50000E-01   1.25520E-01
  opls_802  C802    12.0110     0.000    A    3.50000E-01   2.76144E-01
  opls_815  H815     1.0080     0.000    A    2.50000E-01   1.25520E-01
  opls_801  C801    12.0110     0.000    A    3.50000E-01   2.76144E-01
  opls_830  H830     1.0080     0.000    A    2.50000E-01   1.25520E-01
  opls_822  H822     1.0080     0.000    A    2.50000E-01   1.25520E-01
  opls_803  C803    12.0110     0.000    A    3.50000E-01   2.76144E-01
  opls_825  H825     1.0080     0.000    A    2.50000E-01   1.25520E-01
  opls_814  H814     1.0080     0.000    A    2.50000E-01   1.25520E-01
  opls_821  H821     1.0080     0.000    A    2.50000E-01   1.25520E-01
  opls_820  H820     1.0080     0.000    A    2.50000E-01   1.25520E-01
  opls_809  S809    32.0600     0.000    A    3.55000E-01   1.04600E+00
  opls_812 Cl812    35.4500     0.000    A    3.40000E-01   1.25520E+00
  opls_816  H816     1.0080     0.000    A    2.50000E-01   1.25520E-01
  opls_800  C800    12.0110     0.000    A    3.50000E-01   2.76144E-01
  opls_807  C807    12.0110     0.000    A    3.50000E-01   2.76144E-01
  opls_806  C806    12.0110     0.000    A    3.50000E-01   2.76144E-01
  opls_823  H823     1.0080     0.000    A    2.50000E-01   1.25520E-01
  opls_826  H826     1.0080     0.000    A    2.50000E-01   1.25520E-01
  opls_819  H819     1.0080     0.000    A    2.50000E-01   1.25520E-01
  opls_804  C804    12.0110     0.000    A    3.50000E-01   2.76144E-01
  opls_827  H827     1.0080     0.000    A    2.50000E-01   1.25520E-01
  opls_808  C808    12.0110     0.000    A    3.50000E-01   2.76144E-01
  opls_810  O810    15.9990     0.000    A    2.96000E-01   7.11280E-01
  opls_817  H817     1.0080     0.000    A    2.50000E-01   1.25520E-01
  opls_829  H829     1.0080     0.000    A    2.50000E-01   1.25520E-01
  opls_811  O811    15.9990     0.000    A    2.96000E-01   7.11280E-01
[ moleculetype ]
; Name               nrexcl
UNK                   3
[ atoms ]
;   nr       type  resnr residue  atom   cgnr     charge       mass  
     1   opls_800      1    UNK   C00      1    -0.2388    12.0110 
     2   opls_801      1    UNK   C01      1    -0.1788    12.0110 
     3   opls_802      1    UNK   C02      1    -0.1784    12.0110 
     4   opls_803      1    UNK   C03      1    -0.1652    12.0110 
     5   opls_804      1    UNK   C04      1    -0.1588    12.0110 
     6   opls_805      1    UNK   C05      1    -0.2621    12.0110 
     7   opls_806      1    UNK   C06      1    -0.2437    12.0110 
     8   opls_807      1    UNK   C07      1    -0.1567    12.0110 
     9   opls_808      1    UNK   C08      1    -0.2605    12.0110 
    10   opls_809      1    UNK   S09      1     1.2205    32.0600 
    11   opls_810      1    UNK   O0A      1    -0.5131    15.9990 
    12   opls_811      1    UNK   O0B      1    -0.5131    15.9990 
    13   opls_812      1    UNK   Cl0      1     -0.262    35.4500 
    14   opls_813      1    UNK   H0D      1     0.0836     1.0080 
    15   opls_814      1    UNK   H0E      1     0.0836     1.0080 
    16   opls_815      1    UNK   H0F      1     0.0836     1.0080 
    17   opls_816      1    UNK   H0G      1     0.0885     1.0080 
    18   opls_817      1    UNK   H0H      1     0.0885     1.0080 
    19   opls_818      1    UNK   H0I      1     0.0953     1.0080 
    20   opls_819      1    UNK   H0J      1     0.0953     1.0080 
    21   opls_820      1    UNK   H0K      1     0.0941     1.0080 
    22   opls_821      1    UNK   H0M      1     0.0941     1.0080 
    23   opls_822      1    UNK   H0N      1      0.112     1.0080 
    24   opls_823      1    UNK   H0O      1      0.112     1.0080 
    25   opls_824      1    UNK   H0P      1      0.114     1.0080 
    26   opls_825      1    UNK   H0Q      1      0.114     1.0080 
    27   opls_826      1    UNK   H0R      1      0.114     1.0080 
    28   opls_827      1    UNK   H0S      1      0.119     1.0080 
    29   opls_828      1    UNK   H0T      1      0.119     1.0080 
    30   opls_829      1    UNK   H0U      1        0.1     1.0080 
    31   opls_830      1    UNK   H0V      1        0.1     1.0080 
    32   opls_831      1    UNK   H0W      1        0.1     1.0080 
[ bonds ]
    2     1     1      0.1529 224262.400
    3     2     1      0.1529 224262.400
    4     3     1      0.1529 224262.400
    5     4     1      0.1529 224262.400
    6     5     1      0.1529 224262.400
    7     6     1      0.1529 224262.400
    8     6     1      0.1529 224262.400
    9     8     1      0.1529 224262.400
   10     6     1      0.1770 284512.000
   11    10     1      0.1440 585760.000
   12    10     1      0.1440 585760.000
   13    10     1      0.2040 166849.552
   14     1     1      0.1090 284512.000
   15     1     1      0.1090 284512.000
   16     1     1      0.1090 284512.000
   17     2     1      0.1090 284512.000
   18     2     1      0.1090 284512.000
   19     3     1      0.1090 284512.000
   20     3     1      0.1090 284512.000
   21     4     1      0.1090 284512.000
   22     4     1      0.1090 284512.000
   23     5     1      0.1090 284512.000
   24     5     1      0.1090 284512.000
   25     7     1      0.1090 284512.000
   26     7     1      0.1090 284512.000
   27     7     1      0.1090 284512.000
   28     8     1      0.1090 284512.000
   29     8     1      0.1090 284512.000
   30     9     1      0.1090 284512.000
   31     9     1      0.1090 284512.000
   32     9     1      0.1090 284512.000

[ angles ]
;  ai    aj    ak funct            c0            c1            c2            c3 
    1     2     3     1    112.700    488.273
    2     3     4     1    112.700    488.273
    3     4     5     1    112.700    488.273
    4     5     6     1    112.700    488.273
    5     6     7     1    112.700    488.273
    5     6     8     1    112.700    488.273
    6     8     9     1    112.700    488.273
    5     6    10     1    108.600    418.400
    6    10    11     1    108.900    619.232
    6    10    12     1    108.900    619.232
    6    10    13     1    104.360    658.311
    2     1    14     1    110.700    313.800
    2     1    15     1    110.700    313.800
    2     1    16     1    110.700    313.800
    1     2    17     1    110.700    313.800
    1     2    18     1    110.700    313.800
    2     3    19     1    110.700    313.800
    2     3    20     1    110.700    313.800
    3     4    21     1    110.700    313.800
    3     4    22     1    110.700    313.800
    4     5    23     1    110.700    313.800
    4     5    24     1    110.700    313.800
    6     7    25     1    110.700    313.800
    6     7    26     1    110.700    313.800
    6     7    27     1    110.700    313.800
    6     8    28     1    110.700    313.800
    6     8    29     1    110.700    313.800
    8     9    30     1    110.700    313.800
    8     9    31     1    110.700    313.800
    8     9    32     1    110.700    313.800
    9     8    28     1    110.700    313.800
   30     9    31     1    107.800    276.144
    6     5    24     1    110.700    313.800
   21     4    22     1    107.800    276.144
    3     2    18     1    110.700    313.800
   11    10    12     1    119.000    870.272
    8     6    10     1    108.600    418.400
    9     8    29     1    110.700    313.800
    3     2    17     1    110.700    313.800
   26     7    27     1    107.800    276.144
   23     5    24     1    107.800    276.144
    4     3    19     1    110.700    313.800
   25     7    27     1    107.800    276.144
   30     9    32     1    107.800    276.144
    5     4    22     1    110.700    313.800
   15     1    16     1    107.800    276.144
   14     1    15     1    107.800    276.144
   25     7    26     1    107.800    276.144
    7     6     8     1    112.700    488.273
   12    10    13     1    104.360    658.311
   17     2    18     1    107.800    276.144
    7     6    10     1    108.600    418.400
   19     3    20     1    107.800    276.144
   11    10    13     1    104.360    658.311
   28     8    29     1    107.800    276.144
    6     5    23     1    110.700    313.800
   31     9    32     1    107.800    276.144
   14     1    16     1    107.800    276.144
    5     4    21     1    110.700    313.800
    4     3    20     1    110.700    313.800

[ dihedrals ]
; IMPROPER DIHEDRAL ANGLES 
;  ai    aj    ak    al funct            c0            c1            c2            c3            c4            c5

[ dihedrals ]
; PROPER DIHEDRAL ANGLES
;  ai    aj    ak    al funct            c0            c1            c2            c3            c4            c5
    4    3    2    1        3       2.301  -1.464   0.837  -1.674  -0.000   0.000
    8    6    5    4        3       2.301  -1.464   0.837  -1.674  -0.000   0.000
    9    8    6    5        3       2.301  -1.464   0.837  -1.674  -0.000   0.000
    9    8    6    7        3       2.301  -1.464   0.837  -1.674  -0.000   0.000
    6    5    4    3        3       2.301  -1.464   0.837  -1.674  -0.000   0.000
    5    4    3    2        3       2.301  -1.464   0.837  -1.674  -0.000   0.000
    7    6    5    4        3       2.301  -1.464   0.837  -1.674  -0.000   0.000
   13   10    6    8        3       0.000   0.000   0.000  -0.000  -0.000   0.000
   13   10    6    5        3       0.000   0.000   0.000  -0.000  -0.000   0.000
   13   10    6    7        3       0.000   0.000   0.000  -0.000  -0.000   0.000
   28    8    6    5        3       0.628   1.883   0.000  -2.510  -0.000   0.000
   23    5    4    3        3       0.628   1.883   0.000  -2.510  -0.000   0.000
   29    8    6    7        3       0.628   1.883   0.000  -2.510  -0.000   0.000
   26    7    6    8        3       0.628   1.883   0.000  -2.510  -0.000   0.000
   21    4    3    2        3       0.628   1.883   0.000  -2.510  -0.000   0.000
   31    9    8    6        3       0.628   1.883   0.000  -2.510  -0.000   0.000
   20    3    2    1        3       0.628   1.883   0.000  -2.510  -0.000   0.000
   27    7    6    5        3       0.628   1.883   0.000  -2.510  -0.000   0.000
   15    1    2    3        3       0.628   1.883   0.000  -2.510  -0.000   0.000
   23    5    6    8        3       0.628   1.883   0.000  -2.510  -0.000   0.000
   22    4    3    2        3       0.628   1.883   0.000  -2.510  -0.000   0.000
   21    4    5    6        3       0.628   1.883   0.000  -2.510  -0.000   0.000
   32    9    8    6        3       0.628   1.883   0.000  -2.510  -0.000   0.000
   28    8    6    7        3       0.628   1.883   0.000  -2.510  -0.000   0.000
   24    5    6    8        3       0.628   1.883   0.000  -2.510  -0.000   0.000
   18    2    3    4        3       0.628   1.883   0.000  -2.510  -0.000   0.000
   25    7    6    8        3       0.628   1.883   0.000  -2.510  -0.000   0.000
   26    7    6    5        3       0.628   1.883   0.000  -2.510  -0.000   0.000
   24    5    4    3        3       0.628   1.883   0.000  -2.510  -0.000   0.000
   22    4    5    6        3       0.628   1.883   0.000  -2.510  -0.000   0.000
   29    8    6    5        3       0.628   1.883   0.000  -2.510  -0.000   0.000
   16    1    2    3        3       0.628   1.883   0.000  -2.510  -0.000   0.000
   23    5    6    7        3       0.628   1.883   0.000  -2.510  -0.000   0.000
   27    7    6    8        3       0.628   1.883   0.000  -2.510  -0.000   0.000
   19    3    4    5        3       0.628   1.883   0.000  -2.510  -0.000   0.000
   17    2    3    4        3       0.628   1.883   0.000  -2.510  -0.000   0.000
   19    3    2    1        3       0.628   1.883   0.000  -2.510  -0.000   0.000
   30    9    8    6        3       0.628   1.883   0.000  -2.510  -0.000   0.000
   25    7    6    5        3       0.628   1.883   0.000  -2.510  -0.000   0.000
   20    3    4    5        3       0.628   1.883   0.000  -2.510  -0.000   0.000
   14    1    2    3        3       0.628   1.883   0.000  -2.510  -0.000   0.000
   24    5    6    7        3       0.628   1.883   0.000  -2.510  -0.000   0.000
   17    2    1   14        3       0.628   1.883   0.000  -2.510  -0.000   0.000
   23    5    4   22        3       0.628   1.883   0.000  -2.510  -0.000   0.000
   22    4    3   19        3       0.628   1.883   0.000  -2.510  -0.000   0.000
   24    5    4   21        3       0.628   1.883   0.000  -2.510  -0.000   0.000
   17    2    1   16        3       0.628   1.883   0.000  -2.510  -0.000   0.000
   23    5    4   21        3       0.628   1.883   0.000  -2.510  -0.000   0.000
   18    2    1   15        3       0.628   1.883   0.000  -2.510  -0.000   0.000
   18    2    1   16        3       0.628   1.883   0.000  -2.510  -0.000   0.000
   21    4    3   20        3       0.628   1.883   0.000  -2.510  -0.000   0.000
   24    5    4   22        3       0.628   1.883   0.000  -2.510  -0.000   0.000
   19    3    2   17        3       0.628   1.883   0.000  -2.510  -0.000   0.000
   31    9    8   28        3       0.628   1.883   0.000  -2.510  -0.000   0.000
   32    9    8   29        3       0.628   1.883   0.000  -2.510  -0.000   0.000
   17    2    1   15        3       0.628   1.883   0.000  -2.510  -0.000   0.000
   32    9    8   28        3       0.628   1.883   0.000  -2.510  -0.000   0.000
   30    9    8   29        3       0.628   1.883   0.000  -2.510  -0.000   0.000
   20    3    2   17        3       0.628   1.883   0.000  -2.510  -0.000   0.000
   31    9    8   29        3       0.628   1.883   0.000  -2.510  -0.000   0.000
   18    2    1   14        3       0.628   1.883   0.000  -2.510  -0.000   0.000
   19    3    2   18        3       0.628   1.883   0.000  -2.510  -0.000   0.000
   20    3    2   18        3       0.628   1.883   0.000  -2.510  -0.000   0.000
   22    4    3   20        3       0.628   1.883   0.000  -2.510  -0.000   0.000
   21    4    3   19        3       0.628   1.883   0.000  -2.510  -0.000   0.000
   30    9    8   28        3       0.628   1.883   0.000  -2.510  -0.000   0.000
   23    5    6   10        3       0.946   2.837   0.000  -3.782  -0.000   0.000
   27    7    6   10        3       0.946   2.837   0.000  -3.782  -0.000   0.000
   25    7    6   10        3       0.946   2.837   0.000  -3.782  -0.000   0.000
   24    5    6   10        3       0.946   2.837   0.000  -3.782  -0.000   0.000
   28    8    6   10        3       0.946   2.837   0.000  -3.782  -0.000   0.000
   26    7    6   10        3       0.946   2.837   0.000  -3.782  -0.000   0.000
   29    8    6   10        3       0.946   2.837   0.000  -3.782  -0.000   0.000
   11   10    6    8        3       0.000   0.000   0.000  -0.000  -0.000   0.000
   12   10    6    5        3       0.000   0.000   0.000  -0.000  -0.000   0.000
   11   10    6    7        3       0.000   0.000   0.000  -0.000  -0.000   0.000
   12   10    6    8        3       0.000   0.000   0.000  -0.000  -0.000   0.000
   11   10    6    5        3       0.000   0.000   0.000  -0.000  -0.000   0.000
   12   10    6    7        3       0.000   0.000   0.000  -0.000  -0.000   0.000
   10    6    5    4        3       2.784   0.278   0.828  -3.891  -0.000   0.000
   10    6    8    9        3       2.784   0.278   0.828  -3.891  -0.000   0.000

[ pairs ]
     1     4    1
     2     5    1
     3     6    1
     4     7    1
     4     8    1
     5     9    1
     4    10    1
     7     9    1
     5    11    1
     5    12    1
     3    14    1
     7    11    1
     5    13    1
     3    15    1
     9    10    1
     8    11    1
     7    12    1
     3    16    1
     8    12    1
     7    13    1
     1    19    1
     8    13    1
     4    17    1
     1    20    1
     4    18    1
     2    21    1
     5    19    1
     2    22    1
     5    20    1
     3    23    1
     6    21    1
     3    24    1
     6    22    1
     7    23    1
     5    25    1
    14    17    1
     8    23    1
     7    24    1
     5    26    1
    15    17    1
    14    18    1
     8    24    1
     5    27    1
    16    17    1
    15    18    1
    10    23    1
     8    25    1
     5    28    1
    16    18    1
    10    24    1
     8    26    1
     5    29    1
    10    25    1
     8    27    1
     7    28    1
    17    19    1
    10    26    1
     7    29    1
     6    30    1
    18    19    1
    17    20    1
    10    27    1
     6    31    1
    18    20    1
    10    28    1
     6    32    1
    10    29    1
    19    21    1
    20    21    1
    19    22    1
    20    22    1
    21    23    1
    22    23    1
    21    24    1
    22    24    1
    28    30    1
    29    30    1
    28    31    1
    29    31    1
    28    32    1
    29    32    1

