LIGPARGEN GENERATED GRO FILE
   53
    1UNK    C00    1   0.100   0.100   0.000
    1UNK    C01    2  -0.053   0.100   0.000
    1UNK    C02    3  -0.103   0.100   0.145
    1UNK    C03    4  -0.256   0.091   0.173
    1UNK    C04    5  -0.324   0.212   0.104
    1UNK    C05    6  -0.313  -0.038   0.111
    1UNK    C06    7  -0.282   0.096   0.330
    1UNK    C07    8  -0.433   0.097   0.365
    1UNK    C08    9  -0.218  -0.019   0.415
    1UNK    C09   10  -0.066  -0.020   0.439
    1UNK    C0A   11  -0.006   0.114   0.484
    1UNK    C0B   12  -0.051   0.145   0.626
    1UNK    C0C   13  -0.003   0.279   0.677
    1UNK    O0D   14   0.101   0.331   0.637
    1UNK    C0E   15  -0.090   0.345   0.781
    1UNK    C0F   16  -0.108   0.253   0.901
    1UNK    S0G   17  -0.213   0.334   1.025
    1UNK    C0H   18  -0.214   0.201   1.149
    1UNK    C0I   19  -0.298   0.244   1.268
    1UNK    H0J   20   0.139   0.095  -0.102
    1UNK    H0K   21   0.139   0.014   0.055
    1UNK    H0M   22   0.139   0.191   0.048
    1UNK    H0N   23  -0.087   0.010  -0.052
    1UNK    H0O   24  -0.089   0.187  -0.055
    1UNK    H0P   25  -0.063   0.189   0.195
    1UNK    H0Q   26  -0.057   0.012   0.188
    1UNK    H0R   27  -0.305   0.214  -0.003
    1UNK    H0S   28  -0.287   0.307   0.146
    1UNK    H0T   29  -0.433   0.210   0.116
    1UNK    H0U   30  -0.297  -0.041   0.003
    1UNK    H0V   31  -0.421  -0.045   0.126
    1UNK    H0W   32  -0.267  -0.127   0.154
    1UNK    H0X   33  -0.244   0.192   0.366
    1UNK    H0Y   34  -0.482   0.003   0.337
    1UNK    H0Z   35  -0.486   0.179   0.318
    1UNK    H10   36  -0.447   0.109   0.473
    1UNK    H11   37  -0.246  -0.116   0.373
    1UNK    H12   38  -0.264  -0.016   0.514
    1UNK    H13   39  -0.011  -0.057   0.353
    1UNK    H14   40  -0.045  -0.095   0.516
    1UNK    H15   41  -0.033   0.196   0.417
    1UNK    H16   42   0.103   0.107   0.481
    1UNK    H17   43  -0.016   0.068   0.695
    1UNK    H18   44  -0.161   0.147   0.629
    1UNK    H19   45  -0.185   0.369   0.734
    1UNK    H1A   46  -0.041   0.439   0.811
    1UNK    H1B   47  -0.011   0.228   0.945
    1UNK    H1C   48  -0.157   0.160   0.871
    1UNK    H1D   49  -0.112   0.180   1.181
    1UNK    H1E   50  -0.257   0.110   1.105
    1UNK    H1F   51  -0.257   0.335   1.314
    1UNK    H1G   52  -0.298   0.166   1.344
    1UNK    H1H   53  -0.401   0.264   1.239
   1.00000   1.00000   1.00000

