LIGPARGEN GENERATED GRO FILE
   28
    1UNK    C00    1   0.100   0.100   0.000
    1UNK    C01    2  -0.051   0.100   0.000
    1UNK    O02    3  -0.111   0.100   0.108
    1UNK    S03    4  -0.156   0.110  -0.148
    1UNK    O04    5  -0.067   0.150  -0.256
    1UNK    O05    6  -0.232  -0.014  -0.151
    1UNK    C06    7  -0.265   0.245  -0.109
    1UNK    C07    8  -0.360   0.276  -0.223
    1UNK    C08    9  -0.452   0.161  -0.257
    1UNK    O09   10  -0.452   0.113  -0.370
    1UNK    C0A   11  -0.548   0.113  -0.148
    1UNK    O0B   12  -0.666   0.052  -0.201
    1UNK    C0C   13  -0.745   0.140  -0.269
    1UNK    O0D   14  -0.718   0.259  -0.282
    1UNK    C0E   15  -0.868   0.071  -0.322
    1UNK    C0F   16  -0.976   0.177  -0.338
    1UNK    N0G   17  -1.065   0.266  -0.351
    1UNK    H0H   18   0.138   0.082   0.101
    1UNK    H0I   19   0.135   0.198  -0.035
    1UNK    H0J   20   0.136   0.021  -0.067
    1UNK    H0K   21  -0.201   0.332  -0.088
    1UNK    H0M   22  -0.319   0.218  -0.018
    1UNK    H0N   23  -0.303   0.302  -0.313
    1UNK    H0O   24  -0.422   0.363  -0.198
    1UNK    H0P   25  -0.576   0.196  -0.083
    1UNK    H0Q   26  -0.496   0.038  -0.087
    1UNK    H0R   27  -0.903  -0.004  -0.251
    1UNK    H0S   28  -0.845   0.024  -0.418
   1.00000   1.00000   1.00000

