
;
; GENERATED BY LigParGen Server
; Jorgensen Lab @ Yale University 
;
[ atomtypes ]
  opls_818  H818     1.0080     0.000    A    2.50000E-01   1.25520E-01
  opls_814  C814    12.0110     0.000    A    3.50000E-01   2.76144E-01
  opls_815  C815    12.0110     0.000    A    3.30000E-01   2.76144E-01
  opls_824  H824     1.0080     0.000    A    2.50000E-01   1.25520E-01
  opls_805  O805    15.9990     0.000    A    2.96000E-01   7.11280E-01
  opls_806  C806    12.0110     0.000    A    3.50000E-01   2.76144E-01
  opls_804  O804    15.9990     0.000    A    2.96000E-01   7.11280E-01
  opls_802  O802    15.9990     0.000    A    2.96000E-01   8.78640E-01
  opls_822  H822     1.0080     0.000    A    2.50000E-01   1.25520E-01
  opls_807  C807    12.0110     0.000    A    3.50000E-01   2.76144E-01
  opls_825  H825     1.0080     0.000    A    2.50000E-01   1.25520E-01
  opls_801  C801    12.0110     0.000    A    3.55000E-01   2.92880E-01
  opls_809  O809    15.9990     0.000    A    2.96000E-01   8.78640E-01
  opls_821  H821     1.0080     0.000    A    2.50000E-01   1.25520E-01
  opls_820  H820     1.0080     0.000    A    2.50000E-01   1.25520E-01
  opls_812  C812    12.0110     0.000    A    3.55000E-01   2.92880E-01
  opls_800  C800    12.0110     0.000    A    3.50000E-01   2.76144E-01
  opls_823  H823     1.0080     0.000    A    2.50000E-01   1.25520E-01
  opls_826  H826     1.0080     0.000    A    2.50000E-01   1.25520E-01
  opls_813  O813    15.9990     0.000    A    2.96000E-01   8.78640E-01
  opls_816  N816    14.0070     0.000    A    3.20000E-01   7.11280E-01
  opls_819  H819     1.0080     0.000    A    2.50000E-01   1.25520E-01
  opls_810  C810    12.0110     0.000    A    3.50000E-01   2.76144E-01
  opls_827  H827     1.0080     0.000    A    2.50000E-01   1.25520E-01
  opls_811  O811    15.9990     0.000    A    2.90000E-01   5.85760E-01
  opls_817  H817     1.0080     0.000    A    2.50000E-01   1.25520E-01
  opls_803  S803    32.0600     0.000    A    3.55000E-01   1.04600E+00
  opls_808  C808    12.0110     0.000    A    3.55000E-01   2.92880E-01
[ moleculetype ]
; Name               nrexcl
UNK                   3
[ atoms ]
;   nr       type  resnr residue  atom   cgnr     charge       mass  
     1   opls_800      1    UNK   C00      1    -0.2572    12.0110 
     2   opls_801      1    UNK   C01      1     0.0721    12.0110 
     3   opls_802      1    UNK   O02      1    -0.3596    15.9990 
     4   opls_803      1    UNK   S03      1     1.2627    32.0600 
     5   opls_804      1    UNK   O04      1    -0.5343    15.9990 
     6   opls_805      1    UNK   O05      1    -0.5343    15.9990 
     7   opls_806      1    UNK   C06      1    -0.4868    12.0110 
     8   opls_807      1    UNK   C07      1    -0.2066    12.0110 
     9   opls_808      1    UNK   C08      1     0.3324    12.0110 
    10   opls_809      1    UNK   O09      1    -0.3978    15.9990 
    11   opls_810      1    UNK   C0A      1    -0.0426    12.0110 
    12   opls_811      1    UNK   O0B      1    -0.3214    15.9990 
    13   opls_812      1    UNK   C0C      1     0.4367    12.0110 
    14   opls_813      1    UNK   O0D      1    -0.4269    15.9990 
    15   opls_814      1    UNK   C0E      1    -0.0378    12.0110 
    16   opls_815      1    UNK   C0F      1     0.1261    12.0110 
    17   opls_816      1    UNK   N0G      1     -0.346    14.0070 
    18   opls_817      1    UNK   H0H      1     0.1347     1.0080 
    19   opls_818      1    UNK   H0I      1     0.1347     1.0080 
    20   opls_819      1    UNK   H0J      1     0.1347     1.0080 
    21   opls_820      1    UNK   H0K      1     0.1763     1.0080 
    22   opls_821      1    UNK   H0M      1     0.1763     1.0080 
    23   opls_822      1    UNK   H0N      1     0.1569     1.0080 
    24   opls_823      1    UNK   H0O      1     0.1569     1.0080 
    25   opls_824      1    UNK   H0P      1     0.1505     1.0080 
    26   opls_825      1    UNK   H0Q      1     0.1505     1.0080 
    27   opls_826      1    UNK   H0R      1      0.175     1.0080 
    28   opls_827      1    UNK   H0S      1      0.175     1.0080 
[ bonds ]
    2     1     1      0.1522 265265.600
    3     2     1      0.1229 476976.000
    4     2     1      0.1690 191618.832
    5     4     1      0.1440 585760.000
    6     4     1      0.1440 585760.000
    7     4     1      0.1770 284512.000
    8     7     1      0.1529 224262.400
    9     8     1      0.1522 265265.600
   10     9     1      0.1229 476976.000
   11     9     1      0.1522 265265.600
   12    11     1      0.1410 267776.000
   13    12     1      0.1327 179075.200
   14    13     1      0.1229 476976.000
   15    13     1      0.1522 265265.600
   16    15     1      0.1470 326352.000
   17    16     1      0.1157 543920.000
   18     1     1      0.1090 284512.000
   19     1     1      0.1090 284512.000
   20     1     1      0.1090 284512.000
   21     7     1      0.1090 284512.000
   22     7     1      0.1090 284512.000
   23     8     1      0.1090 284512.000
   24     8     1      0.1090 284512.000
   25    11     1      0.1090 284512.000
   26    11     1      0.1090 284512.000
   27    15     1      0.1090 284512.000
   28    15     1      0.1090 284512.000

[ angles ]
;  ai    aj    ak funct            c0            c1            c2            c3 
    1     2     3     1    120.400    669.440
    1     2     4     1    118.180    584.923
    2     4     5     1    104.360    658.311
    2     4     6     1    104.360    658.311
    2     4     7     1    104.360    658.311
    4     7     8     1    108.600    418.400
    7     8     9     1    111.100    527.184
    8     9    10     1    120.400    669.440
    8     9    11     1    116.000    585.760
    9    11    12     1    109.500    418.400
   11    12    13     1    116.900    694.544
   12    13    14     1    123.400    694.544
   12    13    15     1    111.400    677.808
   13    15    16     1    110.580    432.207
   15    16    17     1    180.000   1255.200
    2     1    18     1    109.500    292.880
    2     1    19     1    109.500    292.880
    2     1    20     1    109.500    292.880
    4     7    21     1    109.500    292.880
    4     7    22     1    109.500    292.880
    7     8    23     1    110.700    313.800
    7     8    24     1    110.700    313.800
    9    11    25     1    109.500    292.880
    9    11    26     1    109.500    292.880
   13    15    27     1    109.500    292.880
   13    15    28     1    109.500    292.880
    5     4     6     1    119.000    870.272
   27    15    28     1    107.800    276.144
   12    11    25     1    109.500    292.880
    5     4     7     1    108.900    619.232
   16    15    28     1    108.500    292.880
    6     4     7     1    108.900    619.232
    9     8    23     1    109.500    292.880
   10     9    11     1    120.400    669.440
   18     1    20     1    107.800    276.144
   14    13    15     1    120.400    669.440
    9     8    24     1    109.500    292.880
   21     7    22     1    107.800    276.144
    3     2     4     1    118.180    584.923
    8     7    22     1    110.700    313.800
   16    15    27     1    108.500    292.880
    8     7    21     1    110.700    313.800
   23     8    24     1    107.800    276.144
   25    11    26     1    107.800    276.144
   18     1    19     1    107.800    276.144
   19     1    20     1    107.800    276.144
   12    11    26     1    109.500    292.880

[ dihedrals ]
; IMPROPER DIHEDRAL ANGLES 
;  ai    aj    ak    al funct            c0            c1            c2            c3            c4            c5
    11     9     8    10    4        180.000     43.932     2  
    15    13    12    14    4        180.000     43.932     2  
     4     2     1     3    4        180.000     43.932     2  

[ dihedrals ]
; PROPER DIHEDRAL ANGLES
;  ai    aj    ak    al funct            c0            c1            c2            c3            c4            c5
    9    8    7    4        3      -16.259   9.088   7.171  -0.000  -0.000   0.000
   13   12   11    9        3      -2.197   5.201   0.527  -3.531  -0.000   0.000
   11    9    8    7        3       0.818  -7.906   0.602   6.485  -0.000   0.000
   15   13   12   11        3      31.206  -9.768  -21.439  -0.000  -0.000   0.000
    8    7    4    2        3       0.000   0.000   0.000  -0.000  -0.000   0.000
    8    7    4    5        3       0.000   0.000   0.000  -0.000  -0.000   0.000
    8    7    4    6        3       0.000   0.000   0.000  -0.000  -0.000   0.000
    7    4    2    1        3       0.000   0.000   0.000  -0.000  -0.000   0.000
    7    4    2    3        3       0.000   0.000   0.000  -0.000  -0.000   0.000
   16   15   13   14        3       0.000   0.000   0.000  -0.000  -0.000   0.000
   16   15   13   12        3      -1.157  -3.471   0.000   4.628  -0.000   0.000
   25   11    9    8        3       0.575   1.726   0.000  -2.301  -0.000   0.000
   24    8    9   11        3       0.575   1.726   0.000  -2.301  -0.000   0.000
   26   11    9    8        3       0.575   1.726   0.000  -2.301  -0.000   0.000
   23    8    9   11        3       0.575   1.726   0.000  -2.301  -0.000   0.000
   28   15   13   14        3       0.000   0.000   0.000  -0.000  -0.000   0.000
   23    8    9   10        3       0.000   0.000   0.000  -0.000  -0.000   0.000
   25   11    9   10        3       0.000   0.000   0.000  -0.000  -0.000   0.000
   26   11    9   10        3       0.000   0.000   0.000  -0.000  -0.000   0.000
   19    1    2    3        3       0.000   0.000   0.000  -0.000  -0.000   0.000
   18    1    2    3        3       0.000   0.000   0.000  -0.000  -0.000   0.000
   20    1    2    3        3       0.000   0.000   0.000  -0.000  -0.000   0.000
   24    8    9   10        3       0.000   0.000   0.000  -0.000  -0.000   0.000
   27   15   13   14        3       0.000   0.000   0.000  -0.000  -0.000   0.000
   28   15   13   12        3       0.276   0.828   0.000  -1.105  -0.000   0.000
   27   15   13   12        3       0.276   0.828   0.000  -1.105  -0.000   0.000
   20    1    2    4        3       0.000   0.000   0.000  -0.000  -0.000   0.000
   18    1    2    4        3       0.000   0.000   0.000  -0.000  -0.000   0.000
   19    1    2    4        3       0.000   0.000   0.000  -0.000  -0.000   0.000
   22    7    8    9        3      -0.209  -0.628   0.000   0.837  -0.000   0.000
   21    7    8    9        3      -0.209  -0.628   0.000   0.837  -0.000   0.000
   24    8    7   21        3       0.628   1.883   0.000  -2.510  -0.000   0.000
   23    8    7   22        3       0.628   1.883   0.000  -2.510  -0.000   0.000
   24    8    7   22        3       0.628   1.883   0.000  -2.510  -0.000   0.000
   23    8    7   21        3       0.628   1.883   0.000  -2.510  -0.000   0.000
   24    8    7    4        3       0.946   2.837   0.000  -3.782  -0.000   0.000
   23    8    7    4        3       0.946   2.837   0.000  -3.782  -0.000   0.000
   27   15   16   17        3       0.000   0.000   0.000  -0.000  -0.000   0.000
   28   15   16   17        3       0.000   0.000   0.000  -0.000  -0.000   0.000
   26   11   12   13        3       0.414   1.243   0.000  -1.657  -0.000   0.000
   25   11   12   13        3       0.414   1.243   0.000  -1.657  -0.000   0.000
   22    7    4    2        3       0.732   2.197   0.000  -2.929  -0.000   0.000
   21    7    4    2        3       0.732   2.197   0.000  -2.929  -0.000   0.000
   21    7    4    6        3       0.732   2.197   0.000  -2.929  -0.000   0.000
   22    7    4    6        3       0.732   2.197   0.000  -2.929  -0.000   0.000
   22    7    4    5        3       0.732   2.197   0.000  -2.929  -0.000   0.000
   21    7    4    5        3       0.732   2.197   0.000  -2.929  -0.000   0.000
   17   16   15   13        3       0.000   0.000   0.000  -0.000  -0.000   0.000
   10    9    8    7        3       0.000   0.000   0.000  -0.000  -0.000   0.000
   14   13   12   11        3      21.439   0.000  -21.439  -0.000  -0.000   0.000
   12   11    9    8        3       2.874   0.582   2.092  -5.548  -0.000   0.000
   12   11    9   10        3       0.000   0.000   0.000  -0.000  -0.000   0.000
    6    4    2    1        3       0.000   0.000   0.000  -0.000  -0.000   0.000
    5    4    2    1        3       0.000   0.000   0.000  -0.000  -0.000   0.000
    6    4    2    3        3       0.000   0.000   0.000  -0.000  -0.000   0.000
    5    4    2    3        3       0.000   0.000   0.000  -0.000  -0.000   0.000

[ pairs ]
     1     5    1
     1     6    1
     3     5    1
     1     7    1
     3     6    1
     3     7    1
     2     8    1
     5     8    1
     4     9    1
     6     8    1
     7    10    1
     7    11    1
     8    12    1
     3    18    1
    10    12    1
     9    13    1
     4    18    1
     3    19    1
     4    19    1
     3    20    1
     2    21    1
     4    20    1
     2    22    1
    11    14    1
    11    15    1
     5    21    1
     6    21    1
     5    22    1
     4    23    1
    12    16    1
     6    22    1
     4    24    1
    14    16    1
    13    17    1
     9    21    1
     9    22    1
    10    23    1
     8    25    1
    11    23    1
    10    24    1
     8    26    1
    11    24    1
    10    25    1
    10    26    1
    13    25    1
    13    26    1
    12    27    1
    12    28    1
    14    27    1
    14    28    1
    21    23    1
    17    27    1
    22    23    1
    21    24    1
    17    28    1
    22    24    1

