LIGPARGEN GENERATED GRO FILE
   44
    1UNK    C00    1   0.100   0.100   0.000
    1UNK    O01    2  -0.042   0.100   0.000
    1UNK    C02    3  -0.094   0.100   0.133
    1UNK    C03    4  -0.246   0.100   0.127
    1UNK    O04    5  -0.297   0.100   0.260
    1UNK    C05    6  -0.433   0.113   0.278
    1UNK    C06    7  -0.522   0.114   0.177
    1UNK    N07    8  -0.659   0.136   0.189
    1UNK    C08    9  -0.741   0.143   0.068
    1UNK    C09   10  -0.711   0.157   0.319
    1UNK    C0A   11  -0.861   0.182   0.339
    1UNK    C0B   12  -0.910   0.249   0.465
    1UNK    O0C   13  -0.943   0.149   0.254
    1UNK    C0D   14  -0.631   0.157   0.427
    1UNK    C0E   15  -0.484   0.133   0.418
    1UNK    C0F   16  -0.406   0.136   0.532
    1UNK    C0G   17  -0.463   0.167   0.667
    1UNK    C0H   18  -0.382   0.193   0.770
    1UNK    N0I   19  -0.243   0.190   0.762
    1UNK    C0J   20  -0.158   0.225   0.875
    1UNK    C0K   21  -0.188   0.142   0.643
    1UNK    C0M   22  -0.260   0.111   0.534
    1UNK    H0N   23   0.134   0.100  -0.104
    1UNK    H0O   24   0.138   0.010   0.050
    1UNK    H0P   25   0.138   0.190   0.050
    1UNK    H0Q   26  -0.059   0.189   0.187
    1UNK    H0R   27  -0.059   0.012   0.187
    1UNK    H0S   28  -0.280   0.011   0.073
    1UNK    H0T   29  -0.279   0.189   0.072
    1UNK    H0U   30  -0.492   0.097   0.074
    1UNK    H0V   31  -0.683   0.122  -0.023
    1UNK    H0W   32  -0.783   0.244   0.056
    1UNK    H0X   33  -0.822   0.069   0.069
    1UNK    H0Y   34  -0.832   0.298   0.522
    1UNK    H0Z   35  -0.960   0.174   0.528
    1UNK    H10   36  -0.982   0.327   0.437
    1UNK    H11   37  -0.674   0.174   0.524
    1UNK    H12   38  -0.570   0.169   0.686
    1UNK    H13   39  -0.421   0.220   0.868
    1UNK    H14   40  -0.216   0.262   0.960
    1UNK    H15   41  -0.088   0.304   0.846
    1UNK    H16   42  -0.101   0.137   0.908
    1UNK    H17   43  -0.081   0.126   0.646
    1UNK    H18   44  -0.208   0.068   0.450
   1.00000   1.00000   1.00000

