
;
; GENERATED BY LigParGen Server
; Jorgensen Lab @ Yale University 
;
[ atomtypes ]
  opls_836  H836     1.0080     0.000    A    2.42000E-01   1.25520E-01
  opls_823  H823     1.0080     0.000    A    2.50000E-01   1.25520E-01
  opls_824  H824     1.0080     0.000    A    2.50000E-01   1.25520E-01
  opls_816  C816    12.0110     0.000    A    3.55000E-01   3.17984E-01
  opls_834  H834     1.0080     0.000    A    2.50000E-01   1.25520E-01
  opls_828  H828     1.0080     0.000    A    2.50000E-01   1.25520E-01
  opls_814  C814    12.0110     0.000    A    3.55000E-01   2.92880E-01
  opls_806  C806    12.0110     0.000    A    3.55000E-01   3.17984E-01
  opls_801  O801    15.9990     0.000    A    2.90000E-01   5.85760E-01
  opls_829  H829     1.0080     0.000    A    2.42000E-01   1.25520E-01
  opls_802  C802    12.0110     0.000    A    3.50000E-01   2.76144E-01
  opls_827  H827     1.0080     0.000    A    2.50000E-01   1.25520E-01
  opls_822  H822     1.0080     0.000    A    2.50000E-01   1.25520E-01
  opls_803  C803    12.0110     0.000    A    3.50000E-01   2.76144E-01
  opls_841  H841     1.0080     0.000    A    2.50000E-01   1.25520E-01
  opls_830  H830     1.0080     0.000    A    2.50000E-01   1.25520E-01
  opls_826  H826     1.0080     0.000    A    2.50000E-01   1.25520E-01
  opls_831  H831     1.0080     0.000    A    2.50000E-01   1.25520E-01
  opls_810  C810    12.0110     0.000    A    3.55000E-01   2.92880E-01
  opls_812  O812    15.9990     0.000    A    2.96000E-01   8.78640E-01
  opls_832  H832     1.0080     0.000    A    2.50000E-01   1.25520E-01
  opls_800  C800    12.0110     0.000    A    3.50000E-01   2.76144E-01
  opls_820  C820    12.0110     0.000    A    3.55000E-01   3.17984E-01
  opls_837  H837     1.0080     0.000    A    2.42000E-01   1.25520E-01
  opls_813  C813    12.0110     0.000    A    3.55000E-01   3.17984E-01
  opls_811  C811    12.0110     0.000    A    3.50000E-01   2.76144E-01
  opls_815  C815    12.0110     0.000    A    3.55000E-01   2.92880E-01
  opls_805  C805    12.0110     0.000    A    3.55000E-01   3.17984E-01
  opls_819  C819    12.0110     0.000    A    3.50000E-01   2.76144E-01
  opls_821  C821    12.0110     0.000    A    3.55000E-01   3.17984E-01
  opls_842  H842     1.0080     0.000    A    2.42000E-01   1.25520E-01
  opls_809  C809    12.0110     0.000    A    3.55000E-01   3.17984E-01
  opls_835  H835     1.0080     0.000    A    2.50000E-01   1.25520E-01
  opls_807  N807    14.0070     0.000    A    3.25000E-01   7.11280E-01
  opls_817  C817    12.0110     0.000    A    3.55000E-01   3.17984E-01
  opls_843  H843     1.0080     0.000    A    2.42000E-01   1.25520E-01
  opls_825  H825     1.0080     0.000    A    2.50000E-01   1.25520E-01
  opls_833  H833     1.0080     0.000    A    2.50000E-01   1.25520E-01
  opls_839  H839     1.0080     0.000    A    2.50000E-01   1.25520E-01
  opls_818  N818    14.0070     0.000    A    3.25000E-01   7.11280E-01
  opls_808  C808    12.0110     0.000    A    3.50000E-01   2.76144E-01
  opls_840  H840     1.0080     0.000    A    2.50000E-01   1.25520E-01
  opls_804  O804    15.9990     0.000    A    2.90000E-01   5.85760E-01
  opls_838  H838     1.0080     0.000    A    2.42000E-01   1.25520E-01
[ moleculetype ]
; Name               nrexcl
UNK                   3
[ atoms ]
;   nr       type  resnr residue  atom   cgnr     charge       mass  
     1   opls_800      1    UNK   C00      1    -0.0485    12.0110 
     2   opls_801      1    UNK   O01      1    -0.3791    15.9990 
     3   opls_802      1    UNK   C02      1     0.0002    12.0110 
     4   opls_803      1    UNK   C03      1     0.0045    12.0110 
     5   opls_804      1    UNK   O04      1    -0.3038    15.9990 
     6   opls_805      1    UNK   C05      1     0.0802    12.0110 
     7   opls_806      1    UNK   C06      1    -0.0318    12.0110 
     8   opls_807      1    UNK   N07      1     -0.554    14.0070 
     9   opls_808      1    UNK   C08      1     0.0332    12.0110 
    10   opls_809      1    UNK   C09      1      0.067    12.0110 
    11   opls_810      1    UNK   C0A      1     0.4129    12.0110 
    12   opls_811      1    UNK   C0B      1    -0.2885    12.0110 
    13   opls_812      1    UNK   O0C      1    -0.4603    15.9990 
    14   opls_813      1    UNK   C0D      1    -0.1537    12.0110 
    15   opls_814      1    UNK   C0E      1    -0.0668    12.0110 
    16   opls_815      1    UNK   C0F      1    -0.0065    12.0110 
    17   opls_816      1    UNK   C0G      1    -0.2252    12.0110 
    18   opls_817      1    UNK   C0H      1     0.0828    12.0110 
    19   opls_818      1    UNK   N0I      1    -0.5965    14.0070 
    20   opls_819      1    UNK   C0J      1     0.0309    12.0110 
    21   opls_820      1    UNK   C0K      1      0.057    12.0110 
    22   opls_821      1    UNK   C0M      1    -0.1858    12.0110 
    23   opls_822      1    UNK   H0N      1     0.0842     1.0080 
    24   opls_823      1    UNK   H0O      1     0.0842     1.0080 
    25   opls_824      1    UNK   H0P      1     0.0842     1.0080 
    26   opls_825      1    UNK   H0Q      1     0.0891     1.0080 
    27   opls_826      1    UNK   H0R      1     0.0891     1.0080 
    28   opls_827      1    UNK   H0S      1     0.0976     1.0080 
    29   opls_828      1    UNK   H0T      1     0.0976     1.0080 
    30   opls_829      1    UNK   H0U      1     0.1602     1.0080 
    31   opls_830      1    UNK   H0V      1     0.0982     1.0080 
    32   opls_831      1    UNK   H0W      1     0.0982     1.0080 
    33   opls_832      1    UNK   H0X      2     0.0982     1.0080 
    34   opls_833      1    UNK   H0Y      2     0.1201     1.0080 
    35   opls_834      1    UNK   H0Z      2     0.1201     1.0080 
    36   opls_835      1    UNK   H10      2     0.1201     1.0080 
    37   opls_836      1    UNK   H11      2     0.1607     1.0080 
    38   opls_837      1    UNK   H12      2     0.1559     1.0080 
    39   opls_838      1    UNK   H13      2     0.1543     1.0080 
    40   opls_839      1    UNK   H14      2     0.0934     1.0080 
    41   opls_840      1    UNK   H15      2     0.0934     1.0080 
    42   opls_841      1    UNK   H16      2     0.0934     1.0080 
    43   opls_842      1    UNK   H17      2     0.1549     1.0080 
    44   opls_843      1    UNK   H18      2     0.1846     1.0080 
[ bonds ]
    2     1     1      0.1410 267776.000
    3     2     1      0.1410 267776.000
    4     3     1      0.1529 224262.400
    5     4     1      0.1410 267776.000
    6     5     1      0.1370 376560.000
    7     6     1      0.1340 459403.200
    8     7     1      0.1365 374886.400
    9     8     1      0.1475 282001.600
   10     8     1      0.1365 374886.400
   11    10     1      0.1444 343088.000
   12    11     1      0.1522 265265.600
   13    11     1      0.1229 476976.000
   14    10     1      0.1340 459403.200
   15     6     1      0.1433 357313.600
   16    15     1      0.1460 322168.000
   17    16     1      0.1460 322168.000
   18    17     1      0.1340 459403.200
   19    18     1      0.1365 374886.400
   20    19     1      0.1475 282001.600
   21    19     1      0.1365 374886.400
   22    16     1      0.1460 322168.000
   23     1     1      0.1090 284512.000
   24     1     1      0.1090 284512.000
   25     1     1      0.1090 284512.000
   26     3     1      0.1090 284512.000
   27     3     1      0.1090 284512.000
   28     4     1      0.1090 284512.000
   29     4     1      0.1090 284512.000
   30     7     1      0.1080 307105.600
   31     9     1      0.1090 284512.000
   32     9     1      0.1090 284512.000
   33     9     1      0.1090 284512.000
   34    12     1      0.1090 284512.000
   35    12     1      0.1090 284512.000
   36    12     1      0.1090 284512.000
   37    14     1      0.1120 313348.128
   38    17     1      0.1120 313348.128
   39    18     1      0.1080 307105.600
   40    20     1      0.1090 284512.000
   41    20     1      0.1090 284512.000
   42    20     1      0.1090 284512.000
   43    21     1      0.1080 307105.600
   44    22     1      0.1120 313348.128
   15    14     1      0.1433 357313.600
   22    21     1      0.1340 459403.200

[ angles ]
;  ai    aj    ak funct            c0            c1            c2            c3 
    1     2     3     1    109.500    502.080
    2     3     4     1    109.500    418.400
    3     4     5     1    109.500    418.400
    4     5     6     1    111.000    627.600
    5     6     7     1    123.000    585.760
    6     7     8     1    121.200    585.760
    7     8     9     1    112.400    527.184
    7     8    10     1    125.200    585.760
    8    10    11     1    118.760    505.678
   10    11    12     1    116.000    585.760
   10    11    13     1    125.300    669.440
    8    10    14     1    121.200    585.760
    5     6    15     1    115.690    382.752
    6    15    16     1    124.000    585.760
   15    16    17     1    124.000    585.760
   16    17    18     1    117.000    711.280
   17    18    19     1    121.200    585.760
   18    19    20     1    112.400    527.184
   18    19    21     1    125.200    585.760
   15    16    22     1    124.000    585.760
    2     1    23     1    109.500    292.880
    2     1    24     1    109.500    292.880
    2     1    25     1    109.500    292.880
    2     3    26     1    109.500    292.880
    2     3    27     1    109.500    292.880
    3     4    28     1    110.700    313.800
    3     4    29     1    110.700    313.800
    6     7    30     1    118.760    505.678
    8     9    31     1    109.500    292.880
    8     9    32     1    109.500    292.880
    8     9    33     1    109.500    292.880
   11    12    34     1    109.500    292.880
   11    12    35     1    109.500    292.880
   11    12    36     1    109.500    292.880
   10    14    37     1    115.690    382.752
   16    17    38     1    115.690    382.752
   17    18    39     1    118.760    505.678
   19    20    40     1    109.500    292.880
   19    20    41     1    109.500    292.880
   19    20    42     1    109.500    292.880
   19    21    43     1    120.000    292.880
   16    22    44     1    115.690    382.752
   31     9    33     1    107.800    276.144
   20    19    21     1    112.400    527.184
   35    12    36     1    107.800    276.144
   22    21    43     1    118.760    505.678
    5     4    29     1    109.500    292.880
   40    20    42     1    107.800    276.144
   18    17    38     1    115.690    382.752
   16    22    21     1    117.000    711.280
   11    10    14     1    120.700    711.280
   28     4    29     1    107.800    276.144
    5     4    28     1    109.500    292.880
   26     3    27     1    107.800    276.144
   23     1    24     1    107.800    276.144
   21    22    44     1    115.690    382.752
   41    20    42     1    107.800    276.144
   34    12    36     1    107.800    276.144
   17    16    22     1    120.730    537.811
   15    14    37     1    115.690    382.752
    4     3    27     1    110.700    313.800
    6    15    14     1    120.730    537.811
   19    18    39     1    120.000    292.880
    7     6    15     1    117.000    711.280
   24     1    25     1    107.800    276.144
   10    14    15     1    117.000    711.280
   23     1    25     1    107.800    276.144
   34    12    35     1    107.800    276.144
   40    20    41     1    107.800    276.144
   12    11    13     1    120.400    669.440
   19    21    22     1    121.200    585.760
   31     9    32     1    107.800    276.144
   14    15    16     1    124.000    585.760
   32     9    33     1    107.800    276.144
    8     7    30     1    120.000    292.880
    9     8    10     1    112.400    527.184
    4     3    26     1    110.700    313.800

[ dihedrals ]
; IMPROPER DIHEDRAL ANGLES 
;  ai    aj    ak    al funct            c0            c1            c2            c3            c4            c5
    16    15     6    14    4        180.000     10.460     2  
    15     6     5     7    4        180.000     10.460     2  
    22    16    15    17    4        180.000     10.460     2  
    14    10     8    11    4        180.000     10.460     2  
    44    22    16    21    4        180.000     10.460     2  
    38    17    16    18    4        180.000     10.460     2  
    37    14    10    15    4        180.000     10.460     2  
    30     7     6     8    4        180.000     10.460     2  
    39    18    17    19    4        180.000     10.460     2  
    43    21    19    22    4        180.000     10.460     2  
    13    11    10    12    4        180.000     43.932     2  

[ dihedrals ]
; PROPER DIHEDRAL ANGLES
;  ai    aj    ak    al funct            c0            c1            c2            c3            c4            c5
   16   15    6    7        3      -0.778  -2.335   0.000   3.113  -0.000   0.000
   16   15   14   10        3      -0.778  -2.335   0.000   3.113  -0.000   0.000
   16   15    6    5        3       9.079   0.000  -9.079  -0.000  -0.000   0.000
   15   14   10   11        3      30.334   0.000  -30.334  -0.000  -0.000   0.000
   15   14   10    8        3      58.576   0.000  -58.576  -0.000  -0.000   0.000
   15    6    7    8        3      58.576   0.000  -58.576  -0.000  -0.000   0.000
   15    6    5    4        3       1.715   2.845   1.046  -5.607  -0.000   0.000
   11   10    8    7        3       1.715   2.845   1.046  -5.607  -0.000   0.000
   11   10    8    9        3       1.715   2.845   1.046  -5.607  -0.000   0.000
   17   16   15   14        3       9.079   0.000  -9.079  -0.000  -0.000   0.000
   22   16   15    6        3       9.079   0.000  -9.079  -0.000  -0.000   0.000
   17   16   15    6        3       9.079   0.000  -9.079  -0.000  -0.000   0.000
   22   16   15   14        3       9.079   0.000  -9.079  -0.000  -0.000   0.000
   22   16   17   18        3      -0.778  -2.335   0.000   3.113  -0.000   0.000
   14   15    6    7        3      -0.778  -2.335   0.000   3.113  -0.000   0.000
   14   15    6    5        3       9.079   0.000  -9.079  -0.000  -0.000   0.000
   14   10   11   12        3       0.527  -6.397  -1.695   7.565  -0.000   0.000
   14   10   11   13        3      30.334  -5.230  -25.104  -0.000  -0.000   0.000
   22   21   19   18        3       5.230   7.322  -12.552  -0.000  -0.000   0.000
   14   10    8    7        3       5.230   7.322  -12.552  -0.000  -0.000   0.000
   22   21   19   20        3       5.230   7.322  -12.552  -0.000  -0.000   0.000
   14   10    8    9        3       5.230   7.322  -12.552  -0.000  -0.000   0.000
    6    5    4    3        3       1.715   2.845   1.046  -5.607  -0.000   0.000
   21   22   16   15        3      -0.778  -2.335   0.000   3.113  -0.000   0.000
   18   17   16   15        3      -0.778  -2.335   0.000   3.113  -0.000   0.000
   10   14   15    6        3      -0.778  -2.335   0.000   3.113  -0.000   0.000
   21   22   16   17        3      -0.778  -2.335   0.000   3.113  -0.000   0.000
    7    6    5    4        3       5.230   7.322  -12.552  -0.000  -0.000   0.000
   21   19   18   17        3       5.230   7.322  -12.552  -0.000  -0.000   0.000
   10    8    7    6        3       5.230   7.322  -12.552  -0.000  -0.000   0.000
   12   11   10    8        3      -0.209   1.046  -0.837  -0.000  -0.000   0.000
    4    3    2    1        3       1.715   2.845   1.046  -5.607  -0.000   0.000
    9    8    7    6        3       5.230   7.322  -12.552  -0.000  -0.000   0.000
   20   19   18   17        3       5.230   7.322  -12.552  -0.000  -0.000   0.000
   37   14   15   16        3      30.334   0.000  -30.334  -0.000  -0.000   0.000
   44   22   16   15        3      30.334   0.000  -30.334  -0.000  -0.000   0.000
   38   17   16   15        3      30.334   0.000  -30.334  -0.000  -0.000   0.000
   44   22   16   17        3      30.334   0.000  -30.334  -0.000  -0.000   0.000
   38   17   16   22        3      30.334   0.000  -30.334  -0.000  -0.000   0.000
   37   14   15    6        3      30.334   0.000  -30.334  -0.000  -0.000   0.000
   37   14   10   11        3      58.576   0.000  -58.576  -0.000  -0.000   0.000
   44   22   21   43        3      58.576   0.000  -58.576  -0.000  -0.000   0.000
   37   14   10    8        3      -0.778  -2.335   0.000   3.113  -0.000   0.000
   38   17   18   19        3      -0.778  -2.335   0.000   3.113  -0.000   0.000
   44   22   21   19        3      -0.778  -2.335   0.000   3.113  -0.000   0.000
   39   18   17   16        3      58.576   0.000  -58.576  -0.000  -0.000   0.000
   30    7    6   15        3      58.576   0.000  -58.576  -0.000  -0.000   0.000
   43   21   22   16        3      58.576   0.000  -58.576  -0.000  -0.000   0.000
   39   18   17   38        3      58.576   0.000  -58.576  -0.000  -0.000   0.000
   30    7    6    5        3      58.576   0.000  -58.576  -0.000  -0.000   0.000
   39   18   19   21        3      30.334   0.000  -30.334  -0.000  -0.000   0.000
   43   21   19   18        3      30.334   0.000  -30.334  -0.000  -0.000   0.000
   30    7    8   10        3      30.334   0.000  -30.334  -0.000  -0.000   0.000
   30    7    8    9        3       1.590   4.770   0.000  -6.360  -0.000   0.000
   39   18   19   20        3       1.590   4.770   0.000  -6.360  -0.000   0.000
   43   21   19   20        3       1.590   4.770   0.000  -6.360  -0.000   0.000
   35   12   11   10        3       0.575   1.726   0.000  -2.301  -0.000   0.000
   34   12   11   10        3       0.575   1.726   0.000  -2.301  -0.000   0.000
   36   12   11   10        3       0.575   1.726   0.000  -2.301  -0.000   0.000
   34   12   11   13        3       0.000   0.000   0.000  -0.000  -0.000   0.000
   35   12   11   13        3       0.000   0.000   0.000  -0.000  -0.000   0.000
   36   12   11   13        3       0.000   0.000   0.000  -0.000  -0.000   0.000
   28    4    3   26        3       0.628   1.883   0.000  -2.510  -0.000   0.000
   29    4    3   27        3       0.628   1.883   0.000  -2.510  -0.000   0.000
   29    4    3   26        3       0.628   1.883   0.000  -2.510  -0.000   0.000
   28    4    3   27        3       0.628   1.883   0.000  -2.510  -0.000   0.000
   27    3    4    5        3       0.979   2.937   0.000  -3.916  -0.000   0.000
   28    4    3    2        3       0.979   2.937   0.000  -3.916  -0.000   0.000
   26    3    4    5        3       0.979   2.937   0.000  -3.916  -0.000   0.000
   29    4    3    2        3       0.979   2.937   0.000  -3.916  -0.000   0.000
   42   20   19   21        3       0.000   0.000   0.000  -0.000  -0.000   0.000
   41   20   19   21        3       0.000   0.000   0.000  -0.000  -0.000   0.000
   42   20   19   18        3       0.000   0.000   0.000  -0.000  -0.000   0.000
   32    9    8   10        3       0.000   0.000   0.000  -0.000  -0.000   0.000
   31    9    8   10        3       0.000   0.000   0.000  -0.000  -0.000   0.000
   40   20   19   21        3       0.000   0.000   0.000  -0.000  -0.000   0.000
   31    9    8    7        3       0.000   0.000   0.000  -0.000  -0.000   0.000
   41   20   19   18        3       0.000   0.000   0.000  -0.000  -0.000   0.000
   32    9    8    7        3       0.000   0.000   0.000  -0.000  -0.000   0.000
   40   20   19   18        3       0.000   0.000   0.000  -0.000  -0.000   0.000
   33    9    8   10        3       0.000   0.000   0.000  -0.000  -0.000   0.000
   33    9    8    7        3       0.000   0.000   0.000  -0.000  -0.000   0.000
   29    4    5    6        3       1.590   4.770   0.000  -6.360  -0.000   0.000
   28    4    5    6        3       1.590   4.770   0.000  -6.360  -0.000   0.000
   26    3    2    1        3       1.590   4.770   0.000  -6.360  -0.000   0.000
   23    1    2    3        3       1.590   4.770   0.000  -6.360  -0.000   0.000
   24    1    2    3        3       1.590   4.770   0.000  -6.360  -0.000   0.000
   27    3    2    1        3       1.590   4.770   0.000  -6.360  -0.000   0.000
   25    1    2    3        3       1.590   4.770   0.000  -6.360  -0.000   0.000
   19   21   22   16        3      58.576   0.000  -58.576  -0.000  -0.000   0.000
   19   18   17   16        3      58.576   0.000  -58.576  -0.000  -0.000   0.000
    8    7    6    5        3      58.576   0.000  -58.576  -0.000  -0.000   0.000
   13   11   10    8        3       0.000   0.000   0.000  -0.000  -0.000   0.000
    5    4    3    2        3      -1.151   1.151   0.000  -0.000  -0.000   0.000

[ pairs ]
     1     4    1
     2     5    1
     3     6    1
     4     7    1
     5     8    1
     6     9    1
     6    10    1
     7    11    1
     5    14    1
     4    15    1
     9    11    1
     8    12    1
     8    13    1
     7    14    1
     5    16    1
     9    14    1
     8    15    1
     7    16    1
     6    17    1
    12    14    1
    11    15    1
    10    16    1
     3    23    1
    13    14    1
     3    24    1
     1    26    1
     6    22    1
     3    25    1
     1    27    1
     2    28    1
    14    17    1
     5    26    1
     2    29    1
     5    27    1
    15    18    1
     6    28    1
    16    19    1
     6    29    1
     5    30    1
    15    21    1
    14    22    1
    17    20    1
    17    21    1
     7    31    1
     9    30    1
     7    32    1
    18    22    1
    10    30    1
     7    33    1
    10    31    1
    20    22    1
    10    32    1
    10    33    1
     6    37    1
    10    34    1
    15    30    1
    10    35    1
     8    37    1
    10    36    1
    13    34    1
    13    35    1
    11    37    1
    13    36    1
    16    37    1
    15    38    1
    26    28    1
    27    28    1
    26    29    1
    16    39    1
    27    29    1
    19    38    1
    18    40    1
    20    39    1
    18    41    1
    16    43    1
    15    44    1
    22    38    1
    21    39    1
    18    42    1
    21    40    1
    18    43    1
    17    44    1
    21    41    1
    21    42    1
    20    43    1
    19    44    1
    38    39    1
    43    44    1

