
;
; GENERATED BY LigParGen Server
; Jorgensen Lab @ Yale University 
;
[ atomtypes ]
  opls_807  O807    15.9990     0.000    A    2.96000E-01   8.78640E-01
  opls_818  H818     1.0080     0.000    A    2.50000E-01   1.25520E-01
  opls_824  H824     1.0080     0.000    A    2.50000E-01   1.25520E-01
  opls_805  C805    12.0110     0.000    A    3.50000E-01   2.76144E-01
  opls_834  H834     1.0080     0.000    A    2.50000E-01   1.25520E-01
  opls_810  C810    12.0110     0.000    A    3.50000E-01   2.76144E-01
  opls_828  H828     1.0080     0.000    A    2.50000E-01   1.25520E-01
  opls_803  C803    12.0110     0.000    A    3.45000E-01   3.47272E-01
  opls_811  C811    12.0110     0.000    A    3.50000E-01   2.76144E-01
  opls_815  H815     1.0080     0.000    A    2.50000E-01   1.25520E-01
  opls_809  C809    12.0110     0.000    A    3.50000E-01   2.76144E-01
  opls_830  H830     1.0080     0.000    A    2.50000E-01   1.25520E-01
  opls_822  H822     1.0080     0.000    A    2.50000E-01   1.25520E-01
  opls_825  H825     1.0080     0.000    A    2.50000E-01   1.25520E-01
  opls_826  H826     1.0080     0.000    A    2.50000E-01   1.25520E-01
  opls_814  H814     1.0080     0.000    A    2.50000E-01   1.25520E-01
  opls_821  H821     1.0080     0.000    A    2.50000E-01   1.25520E-01
  opls_820  H820     1.0080     0.000    A    2.50000E-01   1.25520E-01
  opls_829  H829     1.0080     0.000    A    2.50000E-01   1.25520E-01
  opls_831  H831     1.0080     0.000    A    2.50000E-01   1.25520E-01
  opls_832  H832     1.0080     0.000    A    2.50000E-01   1.25520E-01
  opls_816  H816     1.0080     0.000    A    2.50000E-01   1.25520E-01
  opls_800  C800    12.0110     0.000    A    3.50000E-01   2.76144E-01
  opls_813  C813    12.0110     0.000    A    3.45000E-01   3.47272E-01
  opls_823  H823     1.0080     0.000    A    2.50000E-01   1.25520E-01
  opls_806  C806    12.0110     0.000    A    3.55000E-01   2.92880E-01
  opls_833  H833     1.0080     0.000    A    2.50000E-01   1.25520E-01
  opls_808  O808    15.9990     0.000    A    2.90000E-01   5.85760E-01
  opls_802  C802    12.0110     0.000    A    3.45000E-01   3.47272E-01
  opls_835  H835     1.0080     0.000    A    2.50000E-01   1.25520E-01
  opls_819  H819     1.0080     0.000    A    2.50000E-01   1.25520E-01
  opls_804  C804    12.0110     0.000    A    3.50000E-01   2.76144E-01
  opls_827  H827     1.0080     0.000    A    2.50000E-01   1.25520E-01
  opls_812  C812    12.0110     0.000    A    3.50000E-01   2.76144E-01
  opls_817  H817     1.0080     0.000    A    2.50000E-01   1.25520E-01
  opls_801  C801    12.0110     0.000    A    3.45000E-01   3.47272E-01
[ moleculetype ]
; Name               nrexcl
UNK                   3
[ atoms ]
;   nr       type  resnr residue  atom   cgnr     charge       mass  
     1   opls_800      1    UNK   C00      1    -0.2283    12.0110 
     2   opls_801      1    UNK   C01      1    -0.1397    12.0110 
     3   opls_802      1    UNK   C02      1    -0.1934    12.0110 
     4   opls_803      1    UNK   C03      1    -0.1421    12.0110 
     5   opls_804      1    UNK   C04      1    -0.1597    12.0110 
     6   opls_805      1    UNK   C05      1    -0.1851    12.0110 
     7   opls_806      1    UNK   C06      1     0.4442    12.0110 
     8   opls_807      1    UNK   O07      1    -0.4598    15.9990 
     9   opls_808      1    UNK   O08      1    -0.3702    15.9990 
    10   opls_809      1    UNK   C09      1     0.1433    12.0110 
    11   opls_810      1    UNK   C0A      1    -0.2683    12.0110 
    12   opls_811      1    UNK   C0B      1    -0.2389    12.0110 
    13   opls_812      1    UNK   C0C      1    -0.2686    12.0110 
    14   opls_813      1    UNK   C0D      1    -0.1878    12.0110 
    15   opls_814      1    UNK   H0E      1     0.0829     1.0080 
    16   opls_815      1    UNK   H0F      1     0.0829     1.0080 
    17   opls_816      1    UNK   H0G      1     0.0829     1.0080 
    18   opls_817      1    UNK   H0H      1     0.1160     1.0080 
    19   opls_818      1    UNK   H0I      1     0.1025     1.0080 
    20   opls_819      1    UNK   H0J      1     0.1025     1.0080 
    21   opls_820      1    UNK   H0K      1     0.1042     1.0080 
    22   opls_821      1    UNK   H0M      1     0.1108     1.0080 
    23   opls_822      1    UNK   H0N      1     0.1108     1.0080 
    24   opls_823      1    UNK   H0O      1     0.1321     1.0080 
    25   opls_824      1    UNK   H0P      1     0.1321     1.0080 
    26   opls_825      1    UNK   H0Q      1     0.1013     1.0080 
    27   opls_826      1    UNK   H0R      1     0.1013     1.0080 
    28   opls_827      1    UNK   H0S      1     0.1013     1.0080 
    29   opls_828      1    UNK   H0T      1     0.0955     1.0080 
    30   opls_829      1    UNK   H0U      1     0.0955     1.0080 
    31   opls_830      1    UNK   H0V      1     0.0955     1.0080 
    32   opls_831      1    UNK   H0W      1     0.1009     1.0080 
    33   opls_832      1    UNK   H0X      2     0.1009     1.0080 
    34   opls_833      1    UNK   H0Y      2     0.1009     1.0080 
    35   opls_834      1    UNK   H0Z      2     0.1007     1.0080 
    36   opls_835      1    UNK   H10      2     0.1007     1.0080 
[ bonds ]
    2     1     1      0.1510 234304.000
    3     2     1      0.1520 217568.000
    4     3     1      0.1520 217568.000
    5     4     1      0.1510 234304.000
    6     5     1      0.1529 224262.400
    7     6     1      0.1522 265265.600
    8     7     1      0.1229 476976.000
    9     7     1      0.1327 179075.200
   10     9     1      0.1410 267776.000
   11    10     1      0.1529 224262.400
   12    10     1      0.1529 224262.400
   13    10     1      0.1529 224262.400
   14     2     1      0.1520 217568.000
   15     1     1      0.1090 284512.000
   16     1     1      0.1090 284512.000
   17     1     1      0.1090 284512.000
   18     2     1      0.1088 284512.000
   19     3     1      0.1088 284512.000
   20     3     1      0.1088 284512.000
   21     4     1      0.1088 284512.000
   22     5     1      0.1090 284512.000
   23     5     1      0.1090 284512.000
   24     6     1      0.1090 284512.000
   25     6     1      0.1090 284512.000
   26    11     1      0.1090 284512.000
   27    11     1      0.1090 284512.000
   28    11     1      0.1090 284512.000
   29    12     1      0.1090 284512.000
   30    12     1      0.1090 284512.000
   31    12     1      0.1090 284512.000
   32    13     1      0.1090 284512.000
   33    13     1      0.1090 284512.000
   34    13     1      0.1090 284512.000
   35    14     1      0.1088 284512.000
   36    14     1      0.1088 284512.000
   14     4     1      0.1520 217568.000

[ angles ]
;  ai    aj    ak funct            c0            c1            c2            c3 
    1     2     3     1    117.200    313.800
    2     3     4     1     83.000    251.040
    3     4     5     1    117.200    313.800
    4     5     6     1    112.700    488.273
    5     6     7     1    111.100    527.184
    6     7     8     1    120.400    669.440
    6     7     9     1    111.400    677.808
    7     9    10     1    116.900    694.544
    9    10    11     1    109.500    418.400
    9    10    12     1    109.500    418.400
    9    10    13     1    109.500    418.400
    1     2    14     1    117.200    313.800
    2     1    15     1    110.700    313.800
    2     1    16     1    110.700    313.800
    2     1    17     1    110.700    313.800
    1     2    18     1    114.300    292.880
    2     3    19     1    117.200    313.800
    2     3    20     1    117.200    313.800
    3     4    21     1    117.200    313.800
    4     5    22     1    110.700    313.800
    4     5    23     1    110.700    313.800
    5     6    24     1    110.700    313.800
    5     6    25     1    110.700    313.800
   10    11    26     1    110.700    313.800
   10    11    27     1    110.700    313.800
   10    11    28     1    110.700    313.800
   10    12    29     1    110.700    313.800
   10    12    30     1    110.700    313.800
   10    12    31     1    110.700    313.800
   10    13    32     1    110.700    313.800
   10    13    33     1    110.700    313.800
   10    13    34     1    110.700    313.800
    2    14    35     1    117.200    313.800
    2    14    36     1    117.200    313.800
   12    10    13     1    112.700    488.273
   33    13    34     1    107.800    276.144
    3     2    14     1     83.000    251.040
    5     4    14     1    117.200    313.800
   26    11    28     1    107.800    276.144
    3     2    18     1    117.200    313.800
   11    10    12     1    112.700    488.273
   32    13    34     1    107.800    276.144
   29    12    30     1    107.800    276.144
   14     4    21     1    117.200    313.800
    6     5    22     1    110.700    313.800
    3     4    14     1     83.000    251.040
   24     6    25     1    107.800    276.144
    7     6    25     1    109.500    292.880
    4     3    19     1    117.200    313.800
    8     7     9     1    123.400    694.544
    4    14    36     1    117.200    313.800
   32    13    33     1    107.800    276.144
   30    12    31     1    107.800    276.144
    7     6    24     1    109.500    292.880
   14     2    18     1    117.200    313.800
   15     1    16     1    107.800    276.144
   19     3    20     1    114.300    292.880
   15     1    17     1    107.800    276.144
   27    11    28     1    107.800    276.144
   35    14    36     1    114.300    292.880
    6     5    23     1    110.700    313.800
   26    11    27     1    107.800    276.144
    2    14     4     1     83.000    251.040
    5     4    21     1    114.300    292.880
    4    14    35     1    117.200    313.800
    4     3    20     1    117.200    313.800
   11    10    13     1    112.700    488.273
   16     1    17     1    107.800    276.144
   22     5    23     1    107.800    276.144
   29    12    31     1    107.800    276.144

[ dihedrals ]
; IMPROPER DIHEDRAL ANGLES 
;  ai    aj    ak    al funct            c0            c1            c2            c3            c4            c5
     9     7     6     8    4        180.000     43.932     2  

[ dihedrals ]
; PROPER DIHEDRAL ANGLES
;  ai    aj    ak    al funct            c0            c1            c2            c3            c4            c5
    7    6    5    4        3      -4.960   6.286   1.310  -2.636  -0.000   0.000
    6    5    4    3        3       0.000   0.000   0.000  -0.000  -0.000   0.000
   13   10    9    7        3      -2.197   5.201   0.527  -3.531  -0.000   0.000
   11   10    9    7        3      -2.197   5.201   0.527  -3.531  -0.000   0.000
   12   10    9    7        3      -2.197   5.201   0.527  -3.531  -0.000   0.000
    5    4    3    2        3       0.000   0.000   0.000  -0.000  -0.000   0.000
    5    4   14    2        3       0.000   0.000   0.000  -0.000  -0.000   0.000
   10    9    7    6        3      31.206  -9.768  -21.439  -0.000  -0.000   0.000
   10    9    7    8        3      21.439   0.000  -21.439  -0.000  -0.000   0.000
   14    4    5    6        3       0.000   0.000   0.000  -0.000  -0.000   0.000
    4   14    2    1        3       0.000   0.000   0.000  -0.000  -0.000   0.000
    4    3    2    1        3       0.000   0.000   0.000  -0.000  -0.000   0.000
   24    6    7    8        3       0.000   0.000   0.000  -0.000  -0.000   0.000
   25    6    7    8        3       0.000   0.000   0.000  -0.000  -0.000   0.000
   24    6    7    9        3       0.276   0.828   0.000  -1.105  -0.000   0.000
   25    6    7    9        3       0.276   0.828   0.000  -1.105  -0.000   0.000
   22    5    6    7        3      -0.209  -0.628   0.000   0.837  -0.000   0.000
   23    5    6    7        3      -0.209  -0.628   0.000   0.837  -0.000   0.000
   33   13   10   11        3       0.628   1.883   0.000  -2.510  -0.000   0.000
   32   13   10   12        3       0.628   1.883   0.000  -2.510  -0.000   0.000
   26   11   10   13        3       0.628   1.883   0.000  -2.510  -0.000   0.000
   27   11   10   12        3       0.628   1.883   0.000  -2.510  -0.000   0.000
   28   11   10   12        3       0.628   1.883   0.000  -2.510  -0.000   0.000
   29   12   10   11        3       0.628   1.883   0.000  -2.510  -0.000   0.000
   28   11   10   13        3       0.628   1.883   0.000  -2.510  -0.000   0.000
   34   13   10   11        3       0.628   1.883   0.000  -2.510  -0.000   0.000
   33   13   10   12        3       0.628   1.883   0.000  -2.510  -0.000   0.000
   29   12   10   13        3       0.628   1.883   0.000  -2.510  -0.000   0.000
   31   12   10   11        3       0.628   1.883   0.000  -2.510  -0.000   0.000
   31   12   10   13        3       0.628   1.883   0.000  -2.510  -0.000   0.000
   30   12   10   13        3       0.628   1.883   0.000  -2.510  -0.000   0.000
   34   13   10   12        3       0.628   1.883   0.000  -2.510  -0.000   0.000
   27   11   10   13        3       0.628   1.883   0.000  -2.510  -0.000   0.000
   32   13   10   11        3       0.628   1.883   0.000  -2.510  -0.000   0.000
   30   12   10   11        3       0.628   1.883   0.000  -2.510  -0.000   0.000
   26   11   10   12        3       0.628   1.883   0.000  -2.510  -0.000   0.000
   25    6    5    4        3       0.628   1.883   0.000  -2.510  -0.000   0.000
   24    6    5    4        3       0.628   1.883   0.000  -2.510  -0.000   0.000
   24    6    5   22        3       0.628   1.883   0.000  -2.510  -0.000   0.000
   25    6    5   22        3       0.628   1.883   0.000  -2.510  -0.000   0.000
   24    6    5   23        3       0.628   1.883   0.000  -2.510  -0.000   0.000
   25    6    5   23        3       0.628   1.883   0.000  -2.510  -0.000   0.000
   27   11   10    9        3       0.979   2.937   0.000  -3.916  -0.000   0.000
   29   12   10    9        3       0.979   2.937   0.000  -3.916  -0.000   0.000
   33   13   10    9        3       0.979   2.937   0.000  -3.916  -0.000   0.000
   26   11   10    9        3       0.979   2.937   0.000  -3.916  -0.000   0.000
   28   11   10    9        3       0.979   2.937   0.000  -3.916  -0.000   0.000
   34   13   10    9        3       0.979   2.937   0.000  -3.916  -0.000   0.000
   30   12   10    9        3       0.979   2.937   0.000  -3.916  -0.000   0.000
   31   12   10    9        3       0.979   2.937   0.000  -3.916  -0.000   0.000
   32   13   10    9        3       0.979   2.937   0.000  -3.916  -0.000   0.000
   23    5    4    3        3       0.628   1.883   0.000  -2.510  -0.000   0.000
   15    1    2    3        3       0.628   1.883   0.000  -2.510  -0.000   0.000
   17    1    2    3        3       0.628   1.883   0.000  -2.510  -0.000   0.000
   23    5    4   14        3       0.628   1.883   0.000  -2.510  -0.000   0.000
   22    5    4    3        3       0.628   1.883   0.000  -2.510  -0.000   0.000
   15    1    2   14        3       0.628   1.883   0.000  -2.510  -0.000   0.000
   16    1    2    3        3       0.628   1.883   0.000  -2.510  -0.000   0.000
   22    5    4   14        3       0.628   1.883   0.000  -2.510  -0.000   0.000
   16    1    2   14        3       0.628   1.883   0.000  -2.510  -0.000   0.000
   17    1    2   14        3       0.628   1.883   0.000  -2.510  -0.000   0.000
   23    5    4   21        3       0.628   1.883   0.000  -2.510  -0.000   0.000
   22    5    4   21        3       0.628   1.883   0.000  -2.510  -0.000   0.000
   21    4    5    6        3       0.628   1.883   0.000  -2.510  -0.000   0.000
   18    2    1   15        3       0.628   1.883   0.000  -2.510  -0.000   0.000
   18    2    1   16        3       0.628   1.883   0.000  -2.510  -0.000   0.000
   18    2    1   17        3       0.628   1.883   0.000  -2.510  -0.000   0.000
   20    3    4    5        3       0.000   0.000   0.000  -0.000  -0.000   0.000
   36   14    2    1        3       0.000   0.000   0.000  -0.000  -0.000   0.000
   36   14    4    5        3       0.000   0.000   0.000  -0.000  -0.000   0.000
   19    3    4    5        3       0.000   0.000   0.000  -0.000  -0.000   0.000
   20    3    2    1        3       0.000   0.000   0.000  -0.000  -0.000   0.000
   35   14    2    1        3       0.000   0.000   0.000  -0.000  -0.000   0.000
   35   14    4    5        3       0.000   0.000   0.000  -0.000  -0.000   0.000
   19    3    2    1        3       0.000   0.000   0.000  -0.000  -0.000   0.000
   19    3    4   14        3       0.000   0.000   0.000  -0.000  -0.000   0.000
   18    2    3    4        3       0.000   0.000   0.000  -0.000  -0.000   0.000
   20    3    2   14        3       0.000   0.000   0.000  -0.000  -0.000   0.000
   18    2   14    4        3       0.000   0.000   0.000  -0.000  -0.000   0.000
   35   14    2    3        3       0.000   0.000   0.000  -0.000  -0.000   0.000
   21    4   14    2        3       0.000   0.000   0.000  -0.000  -0.000   0.000
   35   14    4    3        3       0.000   0.000   0.000  -0.000  -0.000   0.000
   36   14    4    3        3       0.000   0.000   0.000  -0.000  -0.000   0.000
   20    3    4   14        3       0.000   0.000   0.000  -0.000  -0.000   0.000
   21    4    3    2        3       0.000   0.000   0.000  -0.000  -0.000   0.000
   19    3    2   14        3       0.000   0.000   0.000  -0.000  -0.000   0.000
   36   14    2    3        3       0.000   0.000   0.000  -0.000  -0.000   0.000
   20    3    2   18        3       0.000   0.000   0.000  -0.000  -0.000   0.000
   36   14    2   18        3       0.000   0.000   0.000  -0.000  -0.000   0.000
   35   14    4   21        3       0.000   0.000   0.000  -0.000  -0.000   0.000
   19    3    2   18        3       0.000   0.000   0.000  -0.000  -0.000   0.000
   21    4    3   20        3       0.000   0.000   0.000  -0.000  -0.000   0.000
   35   14    2   18        3       0.000   0.000   0.000  -0.000  -0.000   0.000
   36   14    4   21        3       0.000   0.000   0.000  -0.000  -0.000   0.000
   21    4    3   19        3       0.000   0.000   0.000  -0.000  -0.000   0.000
    8    7    6    5        3       0.000   0.000   0.000  -0.000  -0.000   0.000
    9    7    6    5        3      -1.157  -3.471   0.000   4.628  -0.000   0.000

[ pairs ]
     1     4    1
     2     5    1
     3     6    1
     4     7    1
     5     8    1
     5     9    1
     6    10    1
     8    10    1
     7    11    1
     3    15    1
     7    12    1
     3    16    1
     7    13    1
     6    14    1
     3    17    1
     1    19    1
     1    20    1
     4    18    1
     2    21    1
     5    19    1
     5    20    1
     3    22    1
     3    23    1
     6    21    1
     4    24    1
    14    15    1
     7    22    1
     4    25    1
    14    16    1
     7    23    1
    14    17    1
     8    24    1
    15    18    1
    14    19    1
     9    24    1
     8    25    1
    16    18    1
    14    20    1
     9    25    1
    17    18    1
     9    26    1
    14    22    1
     9    27    1
     1    35    1
    18    19    1
    14    23    1
     9    28    1
     1    36    1
    18    20    1
    12    26    1
     9    29    1
     3    35    1
    13    26    1
    12    27    1
     9    30    1
     3    36    1
    19    21    1
    13    27    1
    12    28    1
    11    29    1
     9    31    1
     5    35    1
    20    21    1
    13    28    1
    11    30    1
     9    32    1
     5    36    1
    13    29    1
    11    31    1
     9    33    1
    21    22    1
    13    30    1
    11    32    1
     9    34    1
    21    23    1
    13    31    1
    12    32    1
    11    33    1
    12    33    1
    11    34    1
    22    24    1
    12    34    1
    23    24    1
    22    25    1
    23    25    1
    18    35    1
    18    36    1
    21    35    1
    21    36    1

