LIGPARGEN GENERATED GRO FILE
   47
    1UNK    C00    1   0.100   0.100   0.000
    1UNK    C01    2  -0.052   0.100   0.000
    1UNK    C02    3  -0.104   0.100   0.143
    1UNK    C03    4  -0.257   0.094   0.154
    1UNK    C04    5  -0.294   0.095   0.302
    1UNK    C05    6  -0.444   0.111   0.336
    1UNK    C06    7  -0.535  -0.006   0.284
    1UNK    C07    8  -0.502  -0.150   0.326
    1UNK    C08    9  -0.590  -0.209   0.436
    1UNK    N09   10  -0.734  -0.189   0.420
    1UNK    C0A   11  -0.792  -0.282   0.324
    1UNK    C0B   12  -0.771  -0.047   0.402
    1UNK    C0C   13  -0.760   0.022   0.540
    1UNK    C0D   14  -0.920  -0.025   0.363
    1UNK    C0E   15  -0.687   0.022   0.291
    1UNK    C0F   16  -0.454   0.144   0.484
    1UNK    F0G   17  -0.355   0.227   0.525
    1UNK    F0H   18  -0.569   0.209   0.511
    1UNK    F0I   19  -0.446   0.034   0.561
    1UNK    H0J   20   0.139   0.100  -0.102
    1UNK    H0K   21   0.139   0.011   0.051
    1UNK    H0M   22   0.139   0.189   0.051
    1UNK    H0N   23  -0.089   0.012  -0.054
    1UNK    H0O   24  -0.089   0.189  -0.053
    1UNK    H0P   25  -0.068   0.190   0.194
    1UNK    H0Q   26  -0.061   0.014   0.197
    1UNK    H0R   27  -0.294   0.003   0.105
    1UNK    H0S   28  -0.301   0.180   0.103
    1UNK    H0T   29  -0.240   0.180   0.345
    1UNK    H0U   30  -0.253   0.006   0.352
    1UNK    H0V   31  -0.477   0.202   0.282
    1UNK    H0W   32  -0.514  -0.004   0.175
    1UNK    H0X   33  -0.397  -0.160   0.354
    1UNK    H0Y   34  -0.514  -0.213   0.237
    1UNK    H0Z   35  -0.557  -0.170   0.533
    1UNK    H10   36  -0.568  -0.317   0.443
    1UNK    H11   37  -0.766  -0.385   0.350
    1UNK    H12   38  -0.757  -0.263   0.222
    1UNK    H13   39  -0.901  -0.280   0.326
    1UNK    H14   40  -0.839  -0.013   0.608
    1UNK    H15   41  -0.771   0.130   0.531
    1UNK    H16   42  -0.666   0.001   0.592
    1UNK    H17   43  -0.988  -0.070   0.437
    1UNK    H18   44  -0.944  -0.066   0.265
    1UNK    H19   45  -0.943   0.082   0.359
    1UNK    H1A   46  -0.706   0.130   0.289
    1UNK    H1B   47  -0.727  -0.016   0.195
   1.00000   1.00000   1.00000

