LIGPARGEN GENERATED GRO FILE
   37
    1UNK    C00    1   0.100   0.100   0.000
    1UNK    C01    2  -0.054   0.100   0.000
    1UNK    C02    3  -0.111   0.100   0.148
    1UNK    C03    4  -0.054   0.219   0.230
    1UNK    C04    5  -0.066  -0.028   0.223
    1UNK    C05    6  -0.268   0.109   0.146
    1UNK    C06    7  -0.321   0.243   0.089
    1UNK    C07    8  -0.472   0.249   0.088
    1UNK    O08    9  -0.538   0.263  -0.014
    1UNK    C09   10  -0.325  -0.011   0.069
    1UNK    C0A   11  -0.274  -0.015  -0.074
    1UNK    C0B   12  -0.122  -0.011  -0.086
    1UNK    C0C   13  -0.049  -0.142  -0.113
    1UNK    C0D   14  -0.076  -0.048  -0.228
    1UNK    C0E   15   0.033   0.015  -0.297
    1UNK    N0F   16   0.119   0.063  -0.358
    1UNK    H0G   17   0.140   0.182   0.061
    1UNK    H0H   18   0.141   0.118  -0.099
    1UNK    H0I   19   0.142   0.007   0.038
    1UNK    H0J   20  -0.083   0.195  -0.047
    1UNK    H0K   21   0.051   0.204   0.257
    1UNK    H0M   22  -0.109   0.230   0.325
    1UNK    H0N   23  -0.061   0.313   0.175
    1UNK    H0O   24   0.042  -0.030   0.240
    1UNK    H0P   25  -0.091  -0.120   0.169
    1UNK    H0Q   26  -0.114  -0.034   0.322
    1UNK    H0R   27  -0.304   0.102   0.249
    1UNK    H0S   28  -0.286   0.261  -0.014
    1UNK    H0T   29  -0.288   0.328   0.150
    1UNK    H0U   30  -0.520   0.239   0.187
    1UNK    H0V   31  -0.434  -0.007   0.068
    1UNK    H0W   32  -0.300  -0.104   0.120
    1UNK    H0X   33  -0.316   0.068  -0.132
    1UNK    H0Y   34  -0.313  -0.106  -0.121
    1UNK    H0Z   35  -0.106  -0.234  -0.109
    1UNK    H10   36   0.053  -0.155  -0.080
    1UNK    H11   37  -0.154  -0.079  -0.296
   1.00000   1.00000   1.00000

