
;
; GENERATED BY LigParGen Server
; Jorgensen Lab @ Yale University 
;
[ atomtypes ]
  opls_818  H818     1.0080     0.000    A    2.50000E-01   1.25520E-01
  opls_824  H824     1.0080     0.000    A    2.50000E-01   1.25520E-01
  opls_808  O808    15.9990     0.000    A    2.96000E-01   8.78640E-01
  opls_836  H836     1.0080     0.000    A    2.50000E-01   1.25520E-01
  opls_834  H834     1.0080     0.000    A    2.50000E-01   1.25520E-01
  opls_810  C810    12.0110     0.000    A    3.50000E-01   2.76144E-01
  opls_828  H828     1.0080     0.000    A    2.50000E-01   1.25520E-01
  opls_835  H835     1.0080     0.000    A    2.50000E-01   1.25520E-01
  opls_832  H832     1.0080     0.000    A    2.50000E-01   1.25520E-01
  opls_802  C802    12.0110     0.000    A    3.50000E-01   2.76144E-01
  opls_827  H827     1.0080     0.000    A    2.50000E-01   1.25520E-01
  opls_809  C809    12.0110     0.000    A    3.50000E-01   2.76144E-01
  opls_822  H822     1.0080     0.000    A    2.50000E-01   1.25520E-01
  opls_803  C803    12.0110     0.000    A    3.50000E-01   2.76144E-01
  opls_825  H825     1.0080     0.000    A    2.50000E-01   1.25520E-01
  opls_826  H826     1.0080     0.000    A    2.50000E-01   1.25520E-01
  opls_830  H830     1.0080     0.000    A    2.50000E-01   1.25520E-01
  opls_821  H821     1.0080     0.000    A    2.50000E-01   1.25520E-01
  opls_820  H820     1.0080     0.000    A    2.50000E-01   1.25520E-01
  opls_829  H829     1.0080     0.000    A    2.50000E-01   1.25520E-01
  opls_831  H831     1.0080     0.000    A    2.50000E-01   1.25520E-01
  opls_816  H816     1.0080     0.000    A    2.50000E-01   1.25520E-01
  opls_800  C800    12.0110     0.000    A    3.50000E-01   2.76144E-01
  opls_813  C813    12.0110     0.000    A    3.45000E-01   3.47272E-01
  opls_805  C805    12.0110     0.000    A    3.50000E-01   2.76144E-01
  opls_806  C806    12.0110     0.000    A    3.50000E-01   2.76144E-01
  opls_823  H823     1.0080     0.000    A    2.50000E-01   1.25520E-01
  opls_814  C814    12.0110     0.000    A    3.30000E-01   2.76144E-01
  opls_811  C811    12.0110     0.000    A    3.45000E-01   3.47272E-01
  opls_815  N815    14.0070     0.000    A    3.20000E-01   7.11280E-01
  opls_819  H819     1.0080     0.000    A    2.50000E-01   1.25520E-01
  opls_804  C804    12.0110     0.000    A    3.50000E-01   2.76144E-01
  opls_833  H833     1.0080     0.000    A    2.50000E-01   1.25520E-01
  opls_801  C801    12.0110     0.000    A    3.50000E-01   2.76144E-01
  opls_807  C807    12.0110     0.000    A    3.55000E-01   2.92880E-01
  opls_817  H817     1.0080     0.000    A    2.50000E-01   1.25520E-01
  opls_812  C812    12.0110     0.000    A    3.45000E-01   3.47272E-01
[ moleculetype ]
; Name               nrexcl
UNK                   3
[ atoms ]
;   nr       type  resnr residue  atom   cgnr     charge       mass  
     1   opls_800      1    UNK   C00      1    -0.2433    12.0110 
     2   opls_801      1    UNK   C01      1    -0.0569    12.0110 
     3   opls_802      1    UNK   C02      1    -0.0327    12.0110 
     4   opls_803      1    UNK   C03      1    -0.2356    12.0110 
     5   opls_804      1    UNK   C04      1    -0.2314    12.0110 
     6   opls_805      1    UNK   C05      1    -0.0881    12.0110 
     7   opls_806      1    UNK   C06      1    -0.2571    12.0110 
     8   opls_807      1    UNK   C07      1     0.3128    12.0110 
     9   opls_808      1    UNK   O08      1    -0.4424    15.9990 
    10   opls_809      1    UNK   C09      1    -0.1747    12.0110 
    11   opls_810      1    UNK   C0A      1    -0.1472    12.0110 
    12   opls_811      1    UNK   C0B      1    -0.0661    12.0110 
    13   opls_812      1    UNK   C0C      1    -0.2062    12.0110 
    14   opls_813      1    UNK   C0D      1    -0.1121    12.0110 
    15   opls_814      1    UNK   C0E      1     0.1746    12.0110 
    16   opls_815      1    UNK   N0F      1    -0.3619    14.0070 
    17   opls_816      1    UNK   H0G      1     0.0899     1.0080 
    18   opls_817      1    UNK   H0H      1     0.0899     1.0080 
    19   opls_818      1    UNK   H0I      1     0.0899     1.0080 
    20   opls_819      1    UNK   H0J      1     0.1046     1.0080 
    21   opls_820      1    UNK   H0K      1     0.0851     1.0080 
    22   opls_821      1    UNK   H0M      1     0.0851     1.0080 
    23   opls_822      1    UNK   H0N      1     0.0851     1.0080 
    24   opls_823      1    UNK   H0O      1     0.0848     1.0080 
    25   opls_824      1    UNK   H0P      1     0.0848     1.0080 
    26   opls_825      1    UNK   H0Q      1     0.0848     1.0080 
    27   opls_826      1    UNK   H0R      1     0.0983     1.0080 
    28   opls_827      1    UNK   H0S      1     0.1238     1.0080 
    29   opls_828      1    UNK   H0T      1     0.1238     1.0080 
    30   opls_829      1    UNK   H0U      1     0.1047     1.0080 
    31   opls_830      1    UNK   H0V      1     0.0961     1.0080 
    32   opls_831      1    UNK   H0W      1     0.0961     1.0080 
    33   opls_832      1    UNK   H0X      2     0.1021     1.0080 
    34   opls_833      1    UNK   H0Y      2     0.1021     1.0080 
    35   opls_834      1    UNK   H0Z      2     0.1357     1.0080 
    36   opls_835      1    UNK   H10      2     0.1357     1.0080 
    37   opls_836      1    UNK   H11      2     0.1659     1.0080 
[ bonds ]
    2     1     1      0.1529 224262.400
    3     2     1      0.1529 224262.400
    4     3     1      0.1529 224262.400
    5     3     1      0.1529 224262.400
    6     3     1      0.1529 224262.400
    7     6     1      0.1529 224262.400
    8     7     1      0.1522 265265.600
    9     8     1      0.1229 476976.000
   10     6     1      0.1529 224262.400
   11    10     1      0.1529 224262.400
   12     2     1      0.1510 234304.000
   13    12     1      0.1520 217568.000
   14    12     1      0.1520 217568.000
   15    14     1      0.1451 334720.000
   16    15     1      0.1157 543920.000
   17     1     1      0.1090 284512.000
   18     1     1      0.1090 284512.000
   19     1     1      0.1090 284512.000
   20     2     1      0.1090 284512.000
   21     4     1      0.1090 284512.000
   22     4     1      0.1090 284512.000
   23     4     1      0.1090 284512.000
   24     5     1      0.1090 284512.000
   25     5     1      0.1090 284512.000
   26     5     1      0.1090 284512.000
   27     6     1      0.1090 284512.000
   28     7     1      0.1090 284512.000
   29     7     1      0.1090 284512.000
   30     8     1      0.1090 284512.000
   31    10     1      0.1090 284512.000
   32    10     1      0.1090 284512.000
   33    11     1      0.1090 284512.000
   34    11     1      0.1090 284512.000
   35    13     1      0.1088 284512.000
   36    13     1      0.1088 284512.000
   37    14     1      0.1088 284512.000
   12    11     1      0.1510 234304.000
   14    13     1      0.1520 217568.000

[ angles ]
;  ai    aj    ak funct            c0            c1            c2            c3 
    1     2     3     1    112.700    488.273
    2     3     4     1    112.700    488.273
    2     3     5     1    112.700    488.273
    2     3     6     1    112.700    488.273
    3     6     7     1    112.700    488.273
    6     7     8     1    111.100    527.184
    7     8     9     1    120.400    669.440
    3     6    10     1    112.700    488.273
    6    10    11     1    112.700    488.273
    1     2    12     1    112.700    488.273
    2    12    13     1    117.200    313.800
    2    12    14     1    117.200    313.800
   12    14    15     1    109.430    358.401
   14    15    16     1    180.000   1255.200
    2     1    17     1    110.700    313.800
    2     1    18     1    110.700    313.800
    2     1    19     1    110.700    313.800
    1     2    20     1    110.700    313.800
    3     4    21     1    110.700    313.800
    3     4    22     1    110.700    313.800
    3     4    23     1    110.700    313.800
    3     5    24     1    110.700    313.800
    3     5    25     1    110.700    313.800
    3     5    26     1    110.700    313.800
    3     6    27     1    110.700    313.800
    6     7    28     1    110.700    313.800
    6     7    29     1    110.700    313.800
    7     8    30     1    115.000    292.880
    6    10    31     1    110.700    313.800
    6    10    32     1    110.700    313.800
   10    11    33     1    110.700    313.800
   10    11    34     1    110.700    313.800
   12    13    35     1    117.200    313.800
   12    13    36     1    117.200    313.800
   12    14    37     1    117.200    313.800
    9     8    30     1    123.000    292.880
    3     2    20     1    110.700    313.800
   11    12    14     1    117.200    313.800
   33    11    34     1    107.800    276.144
   13    14    37     1    117.200    313.800
   24     5    26     1    107.800    276.144
   13    14    15     1    109.430    358.401
   12    11    34     1    110.700    313.800
   14    13    35     1    117.200    313.800
   22     4    23     1    107.800    276.144
   12    13    14     1     83.000    251.040
   11    10    32     1    110.700    313.800
   31    10    32     1    107.800    276.144
   21     4    22     1    107.800    276.144
    4     3     5     1    112.700    488.273
   15    14    37     1    108.500    292.880
    8     7    29     1    109.500    292.880
    8     7    28     1    109.500    292.880
   18     1    19     1    107.800    276.144
   17     1    19     1    107.800    276.144
    7     6    27     1    110.700    313.800
    2    12    11     1    114.300    292.880
   10    11    12     1    112.700    488.273
   25     5    26     1    107.800    276.144
   13    12    14     1     83.000    251.040
    3     2    12     1    112.700    488.273
   21     4    23     1    107.800    276.144
   11    10    31     1    110.700    313.800
   24     5    25     1    107.800    276.144
   17     1    18     1    107.800    276.144
   35    13    36     1    114.300    292.880
   14    13    36     1    117.200    313.800
   12     2    20     1    110.700    313.800
    4     3     6     1    112.700    488.273
    5     3     6     1    112.700    488.273
   11    12    13     1    117.200    313.800
   12    11    33     1    110.700    313.800
   28     7    29     1    107.800    276.144
    7     6    10     1    112.700    488.273
   12    14    13     1     83.000    251.040
   10     6    27     1    110.700    313.800

[ dihedrals ]
; IMPROPER DIHEDRAL ANGLES 
;  ai    aj    ak    al funct            c0            c1            c2            c3            c4            c5
    30     8     7     9    4        180.000     43.932     2  

[ dihedrals ]
; PROPER DIHEDRAL ANGLES
;  ai    aj    ak    al funct            c0            c1            c2            c3            c4            c5
    8    7    6    3        3      -4.960   6.286   1.310  -2.636  -0.000   0.000
   10    6    7    8        3      -4.960   6.286   1.310  -2.636  -0.000   0.000
    4    3    2    1        3       2.301  -1.464   0.837  -1.674  -0.000   0.000
   10    6    3    4        3       2.301  -1.464   0.837  -1.674  -0.000   0.000
   10    6    3    2        3       2.301  -1.464   0.837  -1.674  -0.000   0.000
   11   10    6    7        3       2.301  -1.464   0.837  -1.674  -0.000   0.000
   10    6    3    5        3       2.301  -1.464   0.837  -1.674  -0.000   0.000
    7    6    3    4        3       2.301  -1.464   0.837  -1.674  -0.000   0.000
    6    3    2    1        3       2.301  -1.464   0.837  -1.674  -0.000   0.000
   11   10    6    3        3       2.301  -1.464   0.837  -1.674  -0.000   0.000
    5    3    2    1        3       2.301  -1.464   0.837  -1.674  -0.000   0.000
    7    6    3    2        3       2.301  -1.464   0.837  -1.674  -0.000   0.000
    7    6    3    5        3       2.301  -1.464   0.837  -1.674  -0.000   0.000
   10   11   12    2        3       2.301  -1.464   0.837  -1.674  -0.000   0.000
   11   12    2    3        3       2.301  -1.464   0.837  -1.674  -0.000   0.000
   11   12    2    1        3       2.301  -1.464   0.837  -1.674  -0.000   0.000
   12   11   10    6        3       2.301  -1.464   0.837  -1.674  -0.000   0.000
   12    2    3    6        3       2.301  -1.464   0.837  -1.674  -0.000   0.000
   12    2    3    4        3       2.301  -1.464   0.837  -1.674  -0.000   0.000
   12    2    3    5        3       2.301  -1.464   0.837  -1.674  -0.000   0.000
   14   12    2    3        3       0.000   0.000   0.000  -0.000  -0.000   0.000
   14   12    2    1        3       0.000   0.000   0.000  -0.000  -0.000   0.000
   13   12    2    1        3       0.000   0.000   0.000  -0.000  -0.000   0.000
   13   12    2    3        3       0.000   0.000   0.000  -0.000  -0.000   0.000
   13   12   11   10        3       0.000   0.000   0.000  -0.000  -0.000   0.000
   14   12   11   10        3       0.000   0.000   0.000  -0.000  -0.000   0.000
   15   14   12    2        3       0.000   0.000   0.000  -0.000  -0.000   0.000
   15   14   12   11        3       0.000   0.000   0.000  -0.000  -0.000   0.000
   15   14   13   12        3       0.000   0.000   0.000  -0.000  -0.000   0.000
   15   14   12   13        3       0.000   0.000   0.000  -0.000  -0.000   0.000
   30    8    7    6        3       0.000   0.000   0.000  -0.000  -0.000   0.000
   30    8    7   29        3       0.753   2.259   0.000  -3.012  -0.000   0.000
   30    8    7   28        3       0.753   2.259   0.000  -3.012  -0.000   0.000
   28    7    8    9        3       0.000   0.000   0.000  -0.000  -0.000   0.000
   29    7    8    9        3       0.000   0.000   0.000  -0.000  -0.000   0.000
   27    6    7    8        3      -0.209  -0.628   0.000   0.837  -0.000   0.000
   23    4    3    6        3       0.628   1.883   0.000  -2.510  -0.000   0.000
   29    7    6   10        3       0.628   1.883   0.000  -2.510  -0.000   0.000
   26    5    3    4        3       0.628   1.883   0.000  -2.510  -0.000   0.000
   25    5    3    4        3       0.628   1.883   0.000  -2.510  -0.000   0.000
   20    2    3    5        3       0.628   1.883   0.000  -2.510  -0.000   0.000
   25    5    3    2        3       0.628   1.883   0.000  -2.510  -0.000   0.000
   27    6    3    4        3       0.628   1.883   0.000  -2.510  -0.000   0.000
   23    4    3    2        3       0.628   1.883   0.000  -2.510  -0.000   0.000
   21    4    3    5        3       0.628   1.883   0.000  -2.510  -0.000   0.000
   29    7    6    3        3       0.628   1.883   0.000  -2.510  -0.000   0.000
   20    2    3    4        3       0.628   1.883   0.000  -2.510  -0.000   0.000
   31   10    6    3        3       0.628   1.883   0.000  -2.510  -0.000   0.000
   24    5    3    6        3       0.628   1.883   0.000  -2.510  -0.000   0.000
   26    5    3    6        3       0.628   1.883   0.000  -2.510  -0.000   0.000
   27    6    3    2        3       0.628   1.883   0.000  -2.510  -0.000   0.000
   24    5    3    4        3       0.628   1.883   0.000  -2.510  -0.000   0.000
   28    7    6   10        3       0.628   1.883   0.000  -2.510  -0.000   0.000
   17    1    2    3        3       0.628   1.883   0.000  -2.510  -0.000   0.000
   24    5    3    2        3       0.628   1.883   0.000  -2.510  -0.000   0.000
   28    7    6    3        3       0.628   1.883   0.000  -2.510  -0.000   0.000
   20    2    3    6        3       0.628   1.883   0.000  -2.510  -0.000   0.000
   18    1    2    3        3       0.628   1.883   0.000  -2.510  -0.000   0.000
   31   10    6    7        3       0.628   1.883   0.000  -2.510  -0.000   0.000
   22    4    3    5        3       0.628   1.883   0.000  -2.510  -0.000   0.000
   25    5    3    6        3       0.628   1.883   0.000  -2.510  -0.000   0.000
   32   10    6    3        3       0.628   1.883   0.000  -2.510  -0.000   0.000
   21    4    3    6        3       0.628   1.883   0.000  -2.510  -0.000   0.000
   27    6   10   11        3       0.628   1.883   0.000  -2.510  -0.000   0.000
   32   10    6    7        3       0.628   1.883   0.000  -2.510  -0.000   0.000
   19    1    2    3        3       0.628   1.883   0.000  -2.510  -0.000   0.000
   26    5    3    2        3       0.628   1.883   0.000  -2.510  -0.000   0.000
   21    4    3    2        3       0.628   1.883   0.000  -2.510  -0.000   0.000
   22    4    3    2        3       0.628   1.883   0.000  -2.510  -0.000   0.000
   33   11   10    6        3       0.628   1.883   0.000  -2.510  -0.000   0.000
   34   11   10    6        3       0.628   1.883   0.000  -2.510  -0.000   0.000
   22    4    3    6        3       0.628   1.883   0.000  -2.510  -0.000   0.000
   27    6    3    5        3       0.628   1.883   0.000  -2.510  -0.000   0.000
   23    4    3    5        3       0.628   1.883   0.000  -2.510  -0.000   0.000
   18    1    2   12        3       0.628   1.883   0.000  -2.510  -0.000   0.000
   19    1    2   12        3       0.628   1.883   0.000  -2.510  -0.000   0.000
   31   10   11   12        3       0.628   1.883   0.000  -2.510  -0.000   0.000
   17    1    2   12        3       0.628   1.883   0.000  -2.510  -0.000   0.000
   32   10   11   12        3       0.628   1.883   0.000  -2.510  -0.000   0.000
   33   11   10   31        3       0.628   1.883   0.000  -2.510  -0.000   0.000
   34   11   10   31        3       0.628   1.883   0.000  -2.510  -0.000   0.000
   33   11   10   32        3       0.628   1.883   0.000  -2.510  -0.000   0.000
   29    7    6   27        3       0.628   1.883   0.000  -2.510  -0.000   0.000
   20    2    1   17        3       0.628   1.883   0.000  -2.510  -0.000   0.000
   34   11   10   32        3       0.628   1.883   0.000  -2.510  -0.000   0.000
   28    7    6   27        3       0.628   1.883   0.000  -2.510  -0.000   0.000
   32   10    6   27        3       0.628   1.883   0.000  -2.510  -0.000   0.000
   31   10    6   27        3       0.628   1.883   0.000  -2.510  -0.000   0.000
   20    2    1   19        3       0.628   1.883   0.000  -2.510  -0.000   0.000
   20    2    1   18        3       0.628   1.883   0.000  -2.510  -0.000   0.000
   33   11   12    2        3       0.628   1.883   0.000  -2.510  -0.000   0.000
   20    2   12   11        3       0.628   1.883   0.000  -2.510  -0.000   0.000
   34   11   12    2        3       0.628   1.883   0.000  -2.510  -0.000   0.000
   34   11   12   14        3       0.628   1.883   0.000  -2.510  -0.000   0.000
   33   11   12   13        3       0.628   1.883   0.000  -2.510  -0.000   0.000
   20    2   12   13        3       0.628   1.883   0.000  -2.510  -0.000   0.000
   34   11   12   13        3       0.628   1.883   0.000  -2.510  -0.000   0.000
   33   11   12   14        3       0.628   1.883   0.000  -2.510  -0.000   0.000
   20    2   12   14        3       0.628   1.883   0.000  -2.510  -0.000   0.000
   36   13   12   11        3       0.000   0.000   0.000  -0.000  -0.000   0.000
   37   14   12   11        3       0.000   0.000   0.000  -0.000  -0.000   0.000
   35   13   12    2        3       0.000   0.000   0.000  -0.000  -0.000   0.000
   35   13   12   11        3       0.000   0.000   0.000  -0.000  -0.000   0.000
   37   14   12    2        3       0.000   0.000   0.000  -0.000  -0.000   0.000
   36   13   12    2        3       0.000   0.000   0.000  -0.000  -0.000   0.000
   37   14   13   12        3       0.000   0.000   0.000  -0.000  -0.000   0.000
   35   13   14   12        3       0.000   0.000   0.000  -0.000  -0.000   0.000
   36   13   14   12        3       0.000   0.000   0.000  -0.000  -0.000   0.000
   35   13   12   14        3       0.000   0.000   0.000  -0.000  -0.000   0.000
   36   13   12   14        3       0.000   0.000   0.000  -0.000  -0.000   0.000
   37   14   12   13        3       0.000   0.000   0.000  -0.000  -0.000   0.000
   36   13   14   15        3       0.000   0.000   0.000  -0.000  -0.000   0.000
   35   13   14   15        3       0.000   0.000   0.000  -0.000  -0.000   0.000
   37   14   13   35        3       0.000   0.000   0.000  -0.000  -0.000   0.000
   37   14   13   36        3       0.000   0.000   0.000  -0.000  -0.000   0.000
   37   14   15   16        3       0.000   0.000   0.000  -0.000  -0.000   0.000
   16   15   14   12        3       0.000   0.000   0.000  -0.000  -0.000   0.000
   16   15   14   13        3       0.000   0.000   0.000  -0.000  -0.000   0.000
    9    8    7    6        3       0.000   0.000   0.000  -0.000  -0.000   0.000

[ pairs ]
     1     4    1
     1     5    1
     1     6    1
     2     7    1
     4     7    1
     3     8    1
     5     7    1
     2    10    1
     1    11    1
     4    10    1
     3    11    1
     1    13    1
     6     9    1
     5    10    1
     1    14    1
     4    12    1
     3    13    1
     5    12    1
     3    14    1
     2    15    1
     8    10    1
     7    11    1
     6    12    1
     3    17    1
     3    18    1
     3    19    1
    10    13    1
     2    21    1
    10    14    1
     4    20    1
     2    22    1
     5    20    1
     2    23    1
    11    15    1
     6    20    1
     5    21    1
     2    24    1
     6    21    1
     5    22    1
     2    25    1
    12    16    1
     6    22    1
     5    23    1
     4    24    1
     2    26    1
    13    16    1
    12    17    1
     6    23    1
     4    25    1
     2    27    1
    12    18    1
     6    24    1
     4    26    1
    12    19    1
    11    20    1
     6    25    1
     4    27    1
     3    28    1
     6    26    1
     5    27    1
     3    29    1
    13    20    1
    14    20    1
     3    31    1
     8    27    1
     3    32    1
     2    33    1
     6    30    1
     2    34    1
    17    20    1
     9    28    1
     2    35    1
    18    20    1
    11    27    1
    10    28    1
     9    29    1
     7    31    1
     2    36    1
    19    20    1
    10    29    1
     7    32    1
     6    33    1
     2    37    1
     6    34    1
    12    31    1
    12    32    1
    13    33    1
    11    35    1
    14    33    1
    13    34    1
    11    36    1
    14    34    1
    11    37    1
    15    35    1
    15    36    1
    16    37    1
    27    28    1
    27    29    1
    28    30    1
    27    31    1
    29    30    1
    27    32    1
    31    33    1
    32    33    1
    31    34    1
    32    34    1
    35    37    1
    36    37    1

