
;
; GENERATED BY LigParGen Server
; Jorgensen Lab @ Yale University 
;
[ atomtypes ]
  opls_818  H818     1.0080     0.000    A    2.50000E-01   1.25520E-01
  opls_806  C806    12.0110     0.000    A    3.30000E-01   2.76144E-01
  opls_824  H824     1.0080     0.000    A    2.50000E-01   1.25520E-01
  opls_805  C805    12.0110     0.000    A    3.50000E-01   2.76144E-01
  opls_828  H828     1.0080     0.000    A    2.50000E-01   1.25520E-01
  opls_813  H813     1.0080     0.000    A    2.50000E-01   1.25520E-01
  opls_802  C802    12.0110     0.000    A    3.50000E-01   2.76144E-01
  opls_815  H815     1.0080     0.000    A    2.50000E-01   1.25520E-01
  opls_809  C809    12.0110     0.000    A    3.50000E-01   2.76144E-01
  opls_822  H822     1.0080     0.000    A    2.50000E-01   1.25520E-01
  opls_803  C803    12.0110     0.000    A    3.50000E-01   2.76144E-01
  opls_807  N807    14.0070     0.000    A    3.20000E-01   7.11280E-01
  opls_825  H825     1.0080     0.000    A    2.50000E-01   1.25520E-01
  opls_814  H814     1.0080     0.000    A    2.50000E-01   1.25520E-01
  opls_810  C810    12.0110     0.000    A    3.50000E-01   2.76144E-01
  opls_820  H820     1.0080     0.000    A    2.50000E-01   1.25520E-01
  opls_821  H821     1.0080     0.000    A    2.50000E-01   1.25520E-01
  opls_816  H816     1.0080     0.000    A    2.50000E-01   1.25520E-01
  opls_800  C800    12.0110     0.000    A    3.50000E-01   2.76144E-01
  opls_811  F811    18.9984     0.000    A    2.90000E-01   2.51040E-01
  opls_823  H823     1.0080     0.000    A    2.50000E-01   1.25520E-01
  opls_826  H826     1.0080     0.000    A    2.50000E-01   1.25520E-01
  opls_819  H819     1.0080     0.000    A    2.50000E-01   1.25520E-01
  opls_804  C804    12.0110     0.000    A    3.50000E-01   2.76144E-01
  opls_827  H827     1.0080     0.000    A    2.50000E-01   1.25520E-01
  opls_801  C801    12.0110     0.000    A    3.50000E-01   2.76144E-01
  opls_808  C808    12.0110     0.000    A    3.50000E-01   2.76144E-01
  opls_817  H817     1.0080     0.000    A    2.50000E-01   1.25520E-01
  opls_812  H812     1.0080     0.000    A    2.50000E-01   1.25520E-01
  opls_829  H829     1.0080     0.000    A    2.50000E-01   1.25520E-01
[ moleculetype ]
; Name               nrexcl
UNK                   3
[ atoms ]
;   nr       type  resnr residue  atom   cgnr     charge       mass  
     1   opls_800      1    UNK   C00      1    -0.2404    12.0110 
     2   opls_801      1    UNK   C01      1    -0.1803    12.0110 
     3   opls_802      1    UNK   C02      1    -0.1786    12.0110 
     4   opls_803      1    UNK   C03      1    -0.1797    12.0110 
     5   opls_804      1    UNK   C04      1    -0.1286    12.0110 
     6   opls_805      1    UNK   C05      1    -0.0334    12.0110 
     7   opls_806      1    UNK   C06      1     0.1334    12.0110 
     8   opls_807      1    UNK   N07      1    -0.3871    14.0070 
     9   opls_808      1    UNK   C08      1     0.1264    12.0110 
    10   opls_809      1    UNK   C09      1    -0.2741    12.0110 
    11   opls_810      1    UNK   C0A      1    -0.2773    12.0110 
    12   opls_811      1    UNK   F0B      1    -0.1682    18.9984 
    13   opls_812      1    UNK   H0C      1     0.0828     1.0080 
    14   opls_813      1    UNK   H0D      1     0.0828     1.0080 
    15   opls_814      1    UNK   H0E      1     0.0828     1.0080 
    16   opls_815      1    UNK   H0F      1     0.0865     1.0080 
    17   opls_816      1    UNK   H0G      1     0.0865     1.0080 
    18   opls_817      1    UNK   H0H      1     0.0949     1.0080 
    19   opls_818      1    UNK   H0I      1     0.0949     1.0080 
    20   opls_819      1    UNK   H0J      1     0.1044     1.0080 
    21   opls_820      1    UNK   H0K      1     0.1044     1.0080 
    22   opls_821      1    UNK   H0M      1     0.1131     1.0080 
    23   opls_822      1    UNK   H0N      1     0.1283     1.0080 
    24   opls_823      1    UNK   H0O      1     0.1283     1.0080 
    25   opls_824      1    UNK   H0P      1     0.0995     1.0080 
    26   opls_825      1    UNK   H0Q      1     0.0995     1.0080 
    27   opls_826      1    UNK   H0R      1     0.0995     1.0080 
    28   opls_827      1    UNK   H0S      1     0.0999     1.0080 
    29   opls_828      1    UNK   H0T      1     0.0999     1.0080 
    30   opls_829      1    UNK   H0U      1     0.0999     1.0080 
[ bonds ]
    2     1     1      0.1529 224262.400
    3     2     1      0.1529 224262.400
    4     3     1      0.1529 224262.400
    5     4     1      0.1529 224262.400
    6     5     1      0.1529 224262.400
    7     6     1      0.1470 326352.000
    8     7     1      0.1157 543920.000
    9     5     1      0.1529 224262.400
   10     9     1      0.1529 224262.400
   11     9     1      0.1529 224262.400
   12     9     1      0.1360 307105.600
   13     1     1      0.1090 284512.000
   14     1     1      0.1090 284512.000
   15     1     1      0.1090 284512.000
   16     2     1      0.1090 284512.000
   17     2     1      0.1090 284512.000
   18     3     1      0.1090 284512.000
   19     3     1      0.1090 284512.000
   20     4     1      0.1090 284512.000
   21     4     1      0.1090 284512.000
   22     5     1      0.1090 284512.000
   23     6     1      0.1090 284512.000
   24     6     1      0.1090 284512.000
   25    10     1      0.1090 284512.000
   26    10     1      0.1090 284512.000
   27    10     1      0.1090 284512.000
   28    11     1      0.1090 284512.000
   29    11     1      0.1090 284512.000
   30    11     1      0.1090 284512.000

[ angles ]
;  ai    aj    ak funct            c0            c1            c2            c3 
    1     2     3     1    112.700    488.273
    2     3     4     1    112.700    488.273
    3     4     5     1    112.700    488.273
    4     5     6     1    112.700    488.273
    5     6     7     1    112.700    488.273
    6     7     8     1    180.000   1255.200
    4     5     9     1    112.700    488.273
    5     9    10     1    112.700    488.273
    5     9    11     1    112.700    488.273
    5     9    12     1    109.500    418.400
    2     1    13     1    110.700    313.800
    2     1    14     1    110.700    313.800
    2     1    15     1    110.700    313.800
    1     2    16     1    110.700    313.800
    1     2    17     1    110.700    313.800
    2     3    18     1    110.700    313.800
    2     3    19     1    110.700    313.800
    3     4    20     1    110.700    313.800
    3     4    21     1    110.700    313.800
    4     5    22     1    110.700    313.800
    5     6    23     1    110.700    313.800
    5     6    24     1    110.700    313.800
    9    10    25     1    110.700    313.800
    9    10    26     1    110.700    313.800
    9    10    27     1    110.700    313.800
    9    11    28     1    110.700    313.800
    9    11    29     1    110.700    313.800
    9    11    30     1    110.700    313.800
    6     5     9     1    112.700    488.273
    7     6    24     1    108.500    292.880
   13     1    14     1    107.800    276.144
    9     5    22     1    110.700    313.800
   25    10    26     1    107.800    276.144
    6     5    22     1    110.700    313.800
   10     9    12     1    109.500    418.400
    3     2    17     1    110.700    313.800
   11     9    12     1    109.500    418.400
   28    11    29     1    107.800    276.144
    4     3    19     1    110.700    313.800
    7     6    23     1    108.500    292.880
   28    11    30     1    107.800    276.144
    3     2    16     1    110.700    313.800
   18     3    19     1    107.800    276.144
    4     3    18     1    110.700    313.800
   16     2    17     1    107.800    276.144
   26    10    27     1    107.800    276.144
   14     1    15     1    107.800    276.144
   29    11    30     1    107.800    276.144
   23     6    24     1    107.800    276.144
    5     4    20     1    110.700    313.800
   10     9    11     1    112.700    488.273
    5     4    21     1    110.700    313.800
   13     1    15     1    107.800    276.144
   25    10    27     1    107.800    276.144
   20     4    21     1    107.800    276.144

[ dihedrals ]
; IMPROPER DIHEDRAL ANGLES 
;  ai    aj    ak    al funct            c0            c1            c2            c3            c4            c5

[ dihedrals ]
; PROPER DIHEDRAL ANGLES
;  ai    aj    ak    al funct            c0            c1            c2            c3            c4            c5
    4    3    2    1        3       2.301  -1.464   0.837  -1.674  -0.000   0.000
   11    9    5    6        3       2.301  -1.464   0.837  -1.674  -0.000   0.000
    9    5    4    3        3       2.301  -1.464   0.837  -1.674  -0.000   0.000
   11    9    5    4        3       2.301  -1.464   0.837  -1.674  -0.000   0.000
   10    9    5    4        3       2.301  -1.464   0.837  -1.674  -0.000   0.000
   10    9    5    6        3       2.301  -1.464   0.837  -1.674  -0.000   0.000
    6    5    4    3        3       2.301  -1.464   0.837  -1.674  -0.000   0.000
    5    4    3    2        3       2.301  -1.464   0.837  -1.674  -0.000   0.000
    9    5    6    7        3      -2.720   0.000   2.720  -0.000  -0.000   0.000
    7    6    5    4        3      -2.720   0.000   2.720  -0.000  -0.000   0.000
   12    9    5    6        3      -0.209   1.883   1.674  -3.347  -0.000   0.000
   12    9    5    4        3      -0.209   1.883   1.674  -3.347  -0.000   0.000
   18    3    4    5        3       0.628   1.883   0.000  -2.510  -0.000   0.000
   21    4    3    2        3       0.628   1.883   0.000  -2.510  -0.000   0.000
   20    4    5    6        3       0.628   1.883   0.000  -2.510  -0.000   0.000
   19    3    4    5        3       0.628   1.883   0.000  -2.510  -0.000   0.000
   29   11    9    5        3       0.628   1.883   0.000  -2.510  -0.000   0.000
   24    6    5    4        3       0.628   1.883   0.000  -2.510  -0.000   0.000
   28   11    9   10        3       0.628   1.883   0.000  -2.510  -0.000   0.000
   25   10    9   11        3       0.628   1.883   0.000  -2.510  -0.000   0.000
   17    2    3    4        3       0.628   1.883   0.000  -2.510  -0.000   0.000
   21    4    5    6        3       0.628   1.883   0.000  -2.510  -0.000   0.000
   23    6    5    4        3       0.628   1.883   0.000  -2.510  -0.000   0.000
   22    5    9   11        3       0.628   1.883   0.000  -2.510  -0.000   0.000
   20    4    3    2        3       0.628   1.883   0.000  -2.510  -0.000   0.000
   30   11    9   10        3       0.628   1.883   0.000  -2.510  -0.000   0.000
   14    1    2    3        3       0.628   1.883   0.000  -2.510  -0.000   0.000
   21    4    5    9        3       0.628   1.883   0.000  -2.510  -0.000   0.000
   19    3    2    1        3       0.628   1.883   0.000  -2.510  -0.000   0.000
   24    6    5    9        3       0.628   1.883   0.000  -2.510  -0.000   0.000
   29   11    9   10        3       0.628   1.883   0.000  -2.510  -0.000   0.000
   15    1    2    3        3       0.628   1.883   0.000  -2.510  -0.000   0.000
   22    5    9   10        3       0.628   1.883   0.000  -2.510  -0.000   0.000
   26   10    9    5        3       0.628   1.883   0.000  -2.510  -0.000   0.000
   23    6    5    9        3       0.628   1.883   0.000  -2.510  -0.000   0.000
   20    4    5    9        3       0.628   1.883   0.000  -2.510  -0.000   0.000
   28   11    9    5        3       0.628   1.883   0.000  -2.510  -0.000   0.000
   27   10    9   11        3       0.628   1.883   0.000  -2.510  -0.000   0.000
   16    2    3    4        3       0.628   1.883   0.000  -2.510  -0.000   0.000
   13    1    2    3        3       0.628   1.883   0.000  -2.510  -0.000   0.000
   18    3    2    1        3       0.628   1.883   0.000  -2.510  -0.000   0.000
   27   10    9    5        3       0.628   1.883   0.000  -2.510  -0.000   0.000
   30   11    9    5        3       0.628   1.883   0.000  -2.510  -0.000   0.000
   26   10    9   11        3       0.628   1.883   0.000  -2.510  -0.000   0.000
   22    5    4    3        3       0.628   1.883   0.000  -2.510  -0.000   0.000
   25   10    9    5        3       0.628   1.883   0.000  -2.510  -0.000   0.000
   22    5    6    7        3       0.766   2.297   0.000  -3.063  -0.000   0.000
   22    5    9   12        3       0.837   2.510   0.000  -3.347  -0.000   0.000
   27   10    9   12        3       0.837   2.510   0.000  -3.347  -0.000   0.000
   28   11    9   12        3       0.837   2.510   0.000  -3.347  -0.000   0.000
   30   11    9   12        3       0.837   2.510   0.000  -3.347  -0.000   0.000
   25   10    9   12        3       0.837   2.510   0.000  -3.347  -0.000   0.000
   26   10    9   12        3       0.837   2.510   0.000  -3.347  -0.000   0.000
   29   11    9   12        3       0.837   2.510   0.000  -3.347  -0.000   0.000
   17    2    1   13        3       0.628   1.883   0.000  -2.510  -0.000   0.000
   17    2    1   14        3       0.628   1.883   0.000  -2.510  -0.000   0.000
   16    2    1   15        3       0.628   1.883   0.000  -2.510  -0.000   0.000
   16    2    1   14        3       0.628   1.883   0.000  -2.510  -0.000   0.000
   18    3    2   16        3       0.628   1.883   0.000  -2.510  -0.000   0.000
   23    6    5   22        3       0.628   1.883   0.000  -2.510  -0.000   0.000
   17    2    1   15        3       0.628   1.883   0.000  -2.510  -0.000   0.000
   19    3    2   16        3       0.628   1.883   0.000  -2.510  -0.000   0.000
   18    3    2   17        3       0.628   1.883   0.000  -2.510  -0.000   0.000
   22    5    4   20        3       0.628   1.883   0.000  -2.510  -0.000   0.000
   16    2    1   13        3       0.628   1.883   0.000  -2.510  -0.000   0.000
   19    3    2   17        3       0.628   1.883   0.000  -2.510  -0.000   0.000
   20    4    3   18        3       0.628   1.883   0.000  -2.510  -0.000   0.000
   21    4    3   18        3       0.628   1.883   0.000  -2.510  -0.000   0.000
   21    4    3   19        3       0.628   1.883   0.000  -2.510  -0.000   0.000
   24    6    5   22        3       0.628   1.883   0.000  -2.510  -0.000   0.000
   22    5    4   21        3       0.628   1.883   0.000  -2.510  -0.000   0.000
   20    4    3   19        3       0.628   1.883   0.000  -2.510  -0.000   0.000
   23    6    7    8        3       0.000   0.000   0.000  -0.000  -0.000   0.000
   24    6    7    8        3       0.000   0.000   0.000  -0.000  -0.000   0.000
    8    7    6    5        3       0.000   0.000   0.000  -0.000  -0.000   0.000

[ pairs ]
     1     4    1
     2     5    1
     3     6    1
     4     7    1
     3     9    1
     5     8    1
     4    10    1
     4    11    1
     7     9    1
     6    10    1
     4    12    1
     3    13    1
     6    11    1
     3    14    1
     6    12    1
     3    15    1
     1    18    1
     4    16    1
     1    19    1
     4    17    1
     2    20    1
     5    18    1
     2    21    1
     5    19    1
     3    22    1
     6    20    1
     6    21    1
     4    23    1
     4    24    1
    13    16    1
     9    20    1
     7    22    1
    14    16    1
    13    17    1
     9    21    1
     5    25    1
    15    16    1
    14    17    1
     8    23    1
     5    26    1
    15    17    1
    10    22    1
     9    23    1
     8    24    1
     5    27    1
    11    22    1
     9    24    1
     5    28    1
    16    18    1
    12    22    1
     5    29    1
    17    18    1
    16    19    1
     5    30    1
    17    19    1
    11    25    1
    12    25    1
    11    26    1
    18    20    1
    12    26    1
    11    27    1
    10    28    1
    19    20    1
    18    21    1
    12    27    1
    10    29    1
    19    21    1
    12    28    1
    10    30    1
    12    29    1
    20    22    1
    12    30    1
    21    22    1
    22    23    1
    22    24    1

