LIGPARGEN GENERATED GRO FILE
   30
    1UNK    C00    1   0.100   0.100   0.000
    1UNK    C01    2  -0.052   0.100   0.000
    1UNK    C02    3  -0.107   0.100   0.143
    1UNK    C03    4  -0.261   0.109   0.148
    1UNK    C04    5  -0.342  -0.011   0.090
    1UNK    C05    6  -0.300  -0.146   0.153
    1UNK    C06    7  -0.328  -0.147   0.302
    1UNK    N07    8  -0.351  -0.148   0.426
    1UNK    C08    9  -0.495   0.017   0.102
    1UNK    C09   10  -0.540   0.143   0.027
    1UNK    C0A   11  -0.581  -0.101   0.055
    1UNK    F0B   12  -0.525   0.037   0.233
    1UNK    H0C   13   0.138   0.100  -0.103
    1UNK    H0D   14   0.139   0.011   0.051
    1UNK    H0E   15   0.140   0.189   0.051
    1UNK    H0F   16  -0.088   0.012  -0.055
    1UNK    H0G   17  -0.088   0.189  -0.054
    1UNK    H0H   18  -0.067   0.188   0.195
    1UNK    H0I   19  -0.071   0.012   0.197
    1UNK    H0J   20  -0.288   0.201   0.096
    1UNK    H0K   21  -0.289   0.124   0.253
    1UNK    H0M   22  -0.318  -0.017  -0.017
    1UNK    H0N   23  -0.193  -0.164   0.137
    1UNK    H0O   24  -0.352  -0.230   0.105
    1UNK    H0P   25  -0.512   0.139  -0.079
    1UNK    H0Q   26  -0.498   0.233   0.072
    1UNK    H0R   27  -0.649   0.154   0.033
    1UNK    H0S   28  -0.560  -0.128  -0.049
    1UNK    H0T   29  -0.688  -0.077   0.063
    1UNK    H0U   30  -0.567  -0.189   0.118
   1.00000   1.00000   1.00000

