LIGPARGEN GENERATED GRO FILE
   38
    1UNK    C00    1   0.100   0.100   0.000
    1UNK    C01    2  -0.053   0.100   0.000
    1UNK    C02    3  -0.107   0.100   0.148
    1UNK    C03    4  -0.070   0.218   0.241
    1UNK    C04    5  -0.123   0.360   0.207
    1UNK    C05    6  -0.106   0.386   0.058
    1UNK    C06    7  -0.207   0.302  -0.020
    1UNK    C07    8  -0.123   0.203  -0.097
    1UNK    C08    9  -0.032   0.283  -0.196
    1UNK    O09   10  -0.081   0.415  -0.227
    1UNK    C0A   11  -0.046   0.528  -0.142
    1UNK    C0B   12   0.107   0.545  -0.133
    1UNK    C0C   13  -0.101   0.651  -0.215
    1UNK    C0D   14  -0.109   0.526   0.001
    1UNK    H0E   15   0.139   0.025   0.070
    1UNK    H0F   16   0.142   0.196   0.030
    1UNK    H0G   17   0.139   0.074  -0.099
    1UNK    H0H   18  -0.081   0.001  -0.040
    1UNK    H0I   19  -0.068   0.009   0.196
    1UNK    H0J   20  -0.216   0.086   0.147
    1UNK    H0K   21   0.039   0.223   0.248
    1UNK    H0M   22  -0.105   0.194   0.342
    1UNK    H0N   23  -0.066   0.433   0.265
    1UNK    H0O   24  -0.228   0.370   0.237
    1UNK    H0P   25  -0.002   0.355   0.041
    1UNK    H0Q   26  -0.269   0.361  -0.088
    1UNK    H0R   27  -0.281   0.252   0.044
    1UNK    H0S   28  -0.194   0.145  -0.159
    1UNK    H0T   29  -0.031   0.228  -0.291
    1UNK    H0U   30   0.072   0.288  -0.166
    1UNK    H0V   31   0.151   0.549  -0.234
    1UNK    H0W   32   0.155   0.462  -0.081
    1UNK    H0X   33   0.134   0.637  -0.080
    1UNK    H0Y   34  -0.058   0.660  -0.316
    1UNK    H0Z   35  -0.081   0.743  -0.161
    1UNK    H10   36  -0.210   0.642  -0.230
    1UNK    H11   37  -0.213   0.561  -0.004
    1UNK    H12   38  -0.056   0.597   0.066
   1.00000   1.00000   1.00000

