LIGPARGEN GENERATED GRO FILE
   32
    1UNK    C00    1   0.100   0.100   0.000
    1UNK    C01    2  -0.052   0.100   0.000
    1UNK    C02    3  -0.105   0.100   0.143
    1UNK    O03    4  -0.249   0.106   0.144
    1UNK    C04    5  -0.312  -0.004   0.190
    1UNK    O05    6  -0.260  -0.114   0.209
    1UNK    O06    7  -0.441   0.028   0.215
    1UNK    C07    8  -0.520  -0.073   0.280
    1UNK    C08    9  -0.536  -0.034   0.427
    1UNK    N09   10  -0.649  -0.093   0.211
    1UNK    C0A   11  -0.729   0.030   0.206
    1UNK    C0B   12  -0.623  -0.147   0.076
    1UNK    C0C   13  -0.749  -0.181  -0.004
    1UNK    H0D   14   0.139   0.100  -0.102
    1UNK    H0E   15   0.139   0.011   0.051
    1UNK    H0F   16   0.139   0.189   0.051
    1UNK    H0G   17  -0.090   0.012  -0.054
    1UNK    H0H   18  -0.089   0.188  -0.054
    1UNK    H0I   19  -0.070   0.190   0.195
    1UNK    H0J   20  -0.067   0.014   0.198
    1UNK    H0K   21  -0.469  -0.170   0.281
    1UNK    H0M   22  -0.582   0.065   0.439
    1UNK    H0N   23  -0.437  -0.026   0.475
    1UNK    H0O   24  -0.595  -0.108   0.482
    1UNK    H0P   25  -0.750   0.068   0.306
    1UNK    H0Q   26  -0.828   0.011   0.163
    1UNK    H0R   27  -0.681   0.109   0.148
    1UNK    H0S   28  -0.566  -0.240   0.086
    1UNK    H0T   29  -0.562  -0.078   0.017
    1UNK    H0U   30  -0.816  -0.246   0.053
    1UNK    H0V   31  -0.721  -0.232  -0.097
    1UNK    H0W   32  -0.804  -0.091  -0.033
   1.00000   1.00000   1.00000

