
;
; GENERATED BY LigParGen Server
; Jorgensen Lab @ Yale University 
;
[ atomtypes ]
  opls_818  H818     1.0080     0.000    A    2.50000E-01   1.25520E-01
  opls_805  C805    12.0110     0.000    A    3.45000E-01   3.47272E-01
  opls_809  N809    14.0070     0.000    A    3.20000E-01   7.11280E-01
  opls_824  H824     1.0080     0.000    A    2.50000E-01   1.25520E-01
  opls_833  H833     1.0080     0.000    A    2.50000E-01   1.25520E-01
  opls_810  C810    12.0110     0.000    A    3.45000E-01   3.47272E-01
  opls_834  H834     1.0080     0.000    A    2.50000E-01   1.25520E-01
  opls_828  H828     1.0080     0.000    A    2.50000E-01   1.25520E-01
  opls_807  C807    12.0110     0.000    A    3.45000E-01   3.47272E-01
  opls_802  C802    12.0110     0.000    A    3.50000E-01   2.76144E-01
  opls_815  H815     1.0080     0.000    A    2.50000E-01   1.25520E-01
  opls_801  C801    12.0110     0.000    A    3.50000E-01   2.76144E-01
  opls_830  H830     1.0080     0.000    A    2.50000E-01   1.25520E-01
  opls_822  H822     1.0080     0.000    A    2.50000E-01   1.25520E-01
  opls_803  C803    12.0110     0.000    A    3.50000E-01   2.76144E-01
  opls_825  H825     1.0080     0.000    A    2.50000E-01   1.25520E-01
  opls_826  H826     1.0080     0.000    A    2.50000E-01   1.25520E-01
  opls_814  H814     1.0080     0.000    A    2.50000E-01   1.25520E-01
  opls_808  C808    12.0110     0.000    A    3.30000E-01   2.76144E-01
  opls_821  H821     1.0080     0.000    A    2.50000E-01   1.25520E-01
  opls_820  H820     1.0080     0.000    A    2.50000E-01   1.25520E-01
  opls_829  H829     1.0080     0.000    A    2.50000E-01   1.25520E-01
  opls_831  H831     1.0080     0.000    A    2.50000E-01   1.25520E-01
  opls_832  H832     1.0080     0.000    A    2.50000E-01   1.25520E-01
  opls_816  H816     1.0080     0.000    A    2.50000E-01   1.25520E-01
  opls_800  C800    12.0110     0.000    A    3.50000E-01   2.76144E-01
  opls_811  C811    12.0110     0.000    A    3.50000E-01   2.76144E-01
  opls_823  H823     1.0080     0.000    A    2.50000E-01   1.25520E-01
  opls_813  C813    12.0110     0.000    A    3.50000E-01   2.76144E-01
  opls_806  C806    12.0110     0.000    A    3.45000E-01   3.47272E-01
  opls_819  H819     1.0080     0.000    A    2.50000E-01   1.25520E-01
  opls_804  C804    12.0110     0.000    A    3.50000E-01   2.76144E-01
  opls_827  H827     1.0080     0.000    A    2.50000E-01   1.25520E-01
  opls_812  C812    12.0110     0.000    A    3.50000E-01   2.76144E-01
  opls_817  H817     1.0080     0.000    A    2.50000E-01   1.25520E-01
[ moleculetype ]
; Name               nrexcl
UNK                   3
[ atoms ]
;   nr       type  resnr residue  atom   cgnr     charge       mass  
     1   opls_800      1    UNK   C00      1    -0.2347    12.0110 
     2   opls_801      1    UNK   C01      1    -0.1147    12.0110 
     3   opls_802      1    UNK   C02      1    -0.2368    12.0110 
     4   opls_803      1    UNK   C03      1    -0.1029    12.0110 
     5   opls_804      1    UNK   C04      1    -0.1506    12.0110 
     6   opls_805      1    UNK   C05      1    -0.1373    12.0110 
     7   opls_806      1    UNK   C06      1    -0.1767    12.0110 
     8   opls_807      1    UNK   C07      1     0.0356    12.0110 
     9   opls_808      1    UNK   C08      1     0.1448    12.0110 
    10   opls_809      1    UNK   N09      1    -0.3672    14.0070 
    11   opls_810      1    UNK   C0A      1    -0.1671    12.0110 
    12   opls_811      1    UNK   C0B      1    -0.0792    12.0110 
    13   opls_812      1    UNK   C0C      1    -0.2391    12.0110 
    14   opls_813      1    UNK   C0D      1    -0.1644    12.0110 
    15   opls_814      1    UNK   H0E      1     0.0819     1.0080 
    16   opls_815      1    UNK   H0F      1     0.0819     1.0080 
    17   opls_816      1    UNK   H0G      1     0.0819     1.0080 
    18   opls_817      1    UNK   H0H      1     0.0942     1.0080 
    19   opls_818      1    UNK   H0I      1     0.0824     1.0080 
    20   opls_819      1    UNK   H0J      1     0.0824     1.0080 
    21   opls_820      1    UNK   H0K      1     0.0824     1.0080 
    22   opls_821      1    UNK   H0M      1     0.0994     1.0080 
    23   opls_822      1    UNK   H0N      1     0.0954     1.0080 
    24   opls_823      1    UNK   H0O      1     0.0954     1.0080 
    25   opls_824      1    UNK   H0P      1     0.1043     1.0080 
    26   opls_825      1    UNK   H0Q      1     0.1125     1.0080 
    27   opls_826      1    UNK   H0R      1     0.1125     1.0080 
    28   opls_827      1    UNK   H0S      1     0.1131     1.0080 
    29   opls_828      1    UNK   H0T      1     0.1131     1.0080 
    30   opls_829      1    UNK   H0U      1     0.1072     1.0080 
    31   opls_830      1    UNK   H0V      1     0.0878     1.0080 
    32   opls_831      1    UNK   H0W      1     0.0878     1.0080 
    33   opls_832      1    UNK   H0X      2     0.0878     1.0080 
    34   opls_833      1    UNK   H0Y      2     0.0934     1.0080 
    35   opls_834      1    UNK   H0Z      2     0.0934     1.0080 
[ bonds ]
    2     1     1      0.1529 224262.400
    3     2     1      0.1529 224262.400
    4     2     1      0.1529 224262.400
    5     4     1      0.1529 224262.400
    6     5     1      0.1510 234304.000
    7     6     1      0.1520 217568.000
    8     7     1      0.1520 217568.000
    9     8     1      0.1451 334720.000
   10     9     1      0.1157 543920.000
   11     6     1      0.1520 217568.000
   12     8     1      0.1510 234304.000
   13    12     1      0.1529 224262.400
   14     4     1      0.1529 224262.400
   15     1     1      0.1090 284512.000
   16     1     1      0.1090 284512.000
   17     1     1      0.1090 284512.000
   18     2     1      0.1090 284512.000
   19     3     1      0.1090 284512.000
   20     3     1      0.1090 284512.000
   21     3     1      0.1090 284512.000
   22     4     1      0.1090 284512.000
   23     5     1      0.1090 284512.000
   24     5     1      0.1090 284512.000
   25     6     1      0.1088 284512.000
   26     7     1      0.1088 284512.000
   27     7     1      0.1088 284512.000
   28    11     1      0.1088 284512.000
   29    11     1      0.1088 284512.000
   30    12     1      0.1090 284512.000
   31    13     1      0.1090 284512.000
   32    13     1      0.1090 284512.000
   33    13     1      0.1090 284512.000
   34    14     1      0.1090 284512.000
   35    14     1      0.1090 284512.000
   11     8     1      0.1520 217568.000
   14    12     1      0.1529 224262.400

[ angles ]
;  ai    aj    ak funct            c0            c1            c2            c3 
    1     2     3     1    112.700    488.273
    1     2     4     1    112.700    488.273
    2     4     5     1    112.700    488.273
    4     5     6     1    112.700    488.273
    5     6     7     1    117.200    313.800
    6     7     8     1     83.000    251.040
    7     8     9     1    109.430    358.401
    8     9    10     1    180.000   1255.200
    5     6    11     1    117.200    313.800
    7     8    12     1    117.200    313.800
    8    12    13     1    112.700    488.273
    2     4    14     1    112.700    488.273
    2     1    15     1    110.700    313.800
    2     1    16     1    110.700    313.800
    2     1    17     1    110.700    313.800
    1     2    18     1    110.700    313.800
    2     3    19     1    110.700    313.800
    2     3    20     1    110.700    313.800
    2     3    21     1    110.700    313.800
    2     4    22     1    110.700    313.800
    4     5    23     1    110.700    313.800
    4     5    24     1    110.700    313.800
    5     6    25     1    114.300    292.880
    6     7    26     1    117.200    313.800
    6     7    27     1    117.200    313.800
    6    11    28     1    117.200    313.800
    6    11    29     1    117.200    313.800
    8    12    30     1    110.700    313.800
   12    13    31     1    110.700    313.800
   12    13    32     1    110.700    313.800
   12    13    33     1    110.700    313.800
    4    14    34     1    110.700    313.800
    4    14    35     1    110.700    313.800
    8     7    27     1    117.200    313.800
    6     5    24     1    110.700    313.800
    5     4    14     1    112.700    488.273
   13    12    14     1    112.700    488.273
    8    12    14     1    112.700    488.273
    3     2    18     1    110.700    313.800
    7     6    25     1    117.200    313.800
   16     1    17     1    107.800    276.144
   31    13    33     1    107.800    276.144
   23     5    24     1    107.800    276.144
   11     8    12     1    117.200    313.800
    8     7    26     1    117.200    313.800
   14     4    22     1    110.700    313.800
    8    11    29     1    117.200    313.800
    6    11     8     1     83.000    251.040
    9     8    12     1    112.700    488.273
   15     1    16     1    107.800    276.144
    7     6    11     1     83.000    251.040
   19     3    21     1    107.800    276.144
   31    13    32     1    107.800    276.144
    7     8    11     1     83.000    251.040
    5     4    22     1    110.700    313.800
   12    14    34     1    110.700    313.800
   13    12    30     1    110.700    313.800
    3     2     4     1    112.700    488.273
   34    14    35     1    107.800    276.144
    8    11    28     1    117.200    313.800
    4    14    12     1    112.700    488.273
   26     7    27     1    114.300    292.880
   19     3    20     1    107.800    276.144
   15     1    17     1    107.800    276.144
    9     8    11     1    109.430    358.401
   14    12    30     1    110.700    313.800
    6     5    23     1    110.700    313.800
   28    11    29     1    114.300    292.880
    4     2    18     1    110.700    313.800
   12    14    35     1    110.700    313.800
   32    13    33     1    107.800    276.144
   11     6    25     1    117.200    313.800
   20     3    21     1    107.800    276.144

[ dihedrals ]
; IMPROPER DIHEDRAL ANGLES 
;  ai    aj    ak    al funct            c0            c1            c2            c3            c4            c5

[ dihedrals ]
; PROPER DIHEDRAL ANGLES
;  ai    aj    ak    al funct            c0            c1            c2            c3            c4            c5
   14    4    2    3        3       2.301  -1.464   0.837  -1.674  -0.000   0.000
   12   14    4    2        3       2.301  -1.464   0.837  -1.674  -0.000   0.000
    5    4    2    3        3       2.301  -1.464   0.837  -1.674  -0.000   0.000
   14    4    2    1        3       2.301  -1.464   0.837  -1.674  -0.000   0.000
   12   14    4    5        3       2.301  -1.464   0.837  -1.674  -0.000   0.000
   13   12   14    4        3       2.301  -1.464   0.837  -1.674  -0.000   0.000
    5    4    2    1        3       2.301  -1.464   0.837  -1.674  -0.000   0.000
   14    4    5    6        3       2.301  -1.464   0.837  -1.674  -0.000   0.000
   13   12    8    7        3       0.000   0.000   0.000  -0.000  -0.000   0.000
   14   12    8   11        3       0.000   0.000   0.000  -0.000  -0.000   0.000
   13   12    8   11        3       0.000   0.000   0.000  -0.000  -0.000   0.000
   14   12    8    7        3       0.000   0.000   0.000  -0.000  -0.000   0.000
   13   12    8    9        3       0.000   0.000   0.000  -0.000  -0.000   0.000
   14   12    8    9        3       0.000   0.000   0.000  -0.000  -0.000   0.000
   12    8    7    6        3       0.000   0.000   0.000  -0.000  -0.000   0.000
   12    8   11    6        3       0.000   0.000   0.000  -0.000  -0.000   0.000
   12    8    9   10        3       0.000   0.000   0.000  -0.000  -0.000   0.000
    8   12   14    4        3       2.301  -1.464   0.837  -1.674  -0.000   0.000
    6    5    4    2        3       2.301  -1.464   0.837  -1.674  -0.000   0.000
   11    6    5    4        3       0.000   0.000   0.000  -0.000  -0.000   0.000
    7    6    5    4        3       0.000   0.000   0.000  -0.000  -0.000   0.000
    8    7    6    5        3       0.000   0.000   0.000  -0.000  -0.000   0.000
    8   11    6    5        3       0.000   0.000   0.000  -0.000  -0.000   0.000
   11    8    9   10        3       0.000   0.000   0.000  -0.000  -0.000   0.000
    9    8   11    6        3       0.000   0.000   0.000  -0.000  -0.000   0.000
    9    8    7    6        3       0.000   0.000   0.000  -0.000  -0.000   0.000
   34   14    4    2        3       0.628   1.883   0.000  -2.510  -0.000   0.000
   22    4   14   12        3       0.628   1.883   0.000  -2.510  -0.000   0.000
   20    3    2    1        3       0.628   1.883   0.000  -2.510  -0.000   0.000
   18    2    4   14        3       0.628   1.883   0.000  -2.510  -0.000   0.000
   23    5    4    2        3       0.628   1.883   0.000  -2.510  -0.000   0.000
   32   13   12   14        3       0.628   1.883   0.000  -2.510  -0.000   0.000
   16    1    2    4        3       0.628   1.883   0.000  -2.510  -0.000   0.000
   22    4    2    3        3       0.628   1.883   0.000  -2.510  -0.000   0.000
   17    1    2    4        3       0.628   1.883   0.000  -2.510  -0.000   0.000
   22    4    2    1        3       0.628   1.883   0.000  -2.510  -0.000   0.000
   24    5    4    2        3       0.628   1.883   0.000  -2.510  -0.000   0.000
   20    3    2    4        3       0.628   1.883   0.000  -2.510  -0.000   0.000
   34   14    4    5        3       0.628   1.883   0.000  -2.510  -0.000   0.000
   17    1    2    3        3       0.628   1.883   0.000  -2.510  -0.000   0.000
   35   14   12   13        3       0.628   1.883   0.000  -2.510  -0.000   0.000
   33   13   12   14        3       0.628   1.883   0.000  -2.510  -0.000   0.000
   31   13   12   14        3       0.628   1.883   0.000  -2.510  -0.000   0.000
   21    3    2    4        3       0.628   1.883   0.000  -2.510  -0.000   0.000
   21    3    2    1        3       0.628   1.883   0.000  -2.510  -0.000   0.000
   35   14    4    5        3       0.628   1.883   0.000  -2.510  -0.000   0.000
   18    2    4    5        3       0.628   1.883   0.000  -2.510  -0.000   0.000
   35   14    4    2        3       0.628   1.883   0.000  -2.510  -0.000   0.000
   19    3    2    4        3       0.628   1.883   0.000  -2.510  -0.000   0.000
   19    3    2    1        3       0.628   1.883   0.000  -2.510  -0.000   0.000
   30   12   14    4        3       0.628   1.883   0.000  -2.510  -0.000   0.000
   23    5    4   14        3       0.628   1.883   0.000  -2.510  -0.000   0.000
   34   14   12   13        3       0.628   1.883   0.000  -2.510  -0.000   0.000
   15    1    2    3        3       0.628   1.883   0.000  -2.510  -0.000   0.000
   24    5    4   14        3       0.628   1.883   0.000  -2.510  -0.000   0.000
   16    1    2    3        3       0.628   1.883   0.000  -2.510  -0.000   0.000
   15    1    2    4        3       0.628   1.883   0.000  -2.510  -0.000   0.000
   22    4    5    6        3       0.628   1.883   0.000  -2.510  -0.000   0.000
   31   13   12    8        3       0.628   1.883   0.000  -2.510  -0.000   0.000
   32   13   12    8        3       0.628   1.883   0.000  -2.510  -0.000   0.000
   35   14   12    8        3       0.628   1.883   0.000  -2.510  -0.000   0.000
   33   13   12    8        3       0.628   1.883   0.000  -2.510  -0.000   0.000
   34   14   12    8        3       0.628   1.883   0.000  -2.510  -0.000   0.000
   19    3    2   18        3       0.628   1.883   0.000  -2.510  -0.000   0.000
   32   13   12   30        3       0.628   1.883   0.000  -2.510  -0.000   0.000
   35   14    4   22        3       0.628   1.883   0.000  -2.510  -0.000   0.000
   18    2    1   16        3       0.628   1.883   0.000  -2.510  -0.000   0.000
   18    2    1   17        3       0.628   1.883   0.000  -2.510  -0.000   0.000
   33   13   12   30        3       0.628   1.883   0.000  -2.510  -0.000   0.000
   24    5    4   22        3       0.628   1.883   0.000  -2.510  -0.000   0.000
   34   14   12   30        3       0.628   1.883   0.000  -2.510  -0.000   0.000
   23    5    4   22        3       0.628   1.883   0.000  -2.510  -0.000   0.000
   31   13   12   30        3       0.628   1.883   0.000  -2.510  -0.000   0.000
   22    4    2   18        3       0.628   1.883   0.000  -2.510  -0.000   0.000
   34   14    4   22        3       0.628   1.883   0.000  -2.510  -0.000   0.000
   20    3    2   18        3       0.628   1.883   0.000  -2.510  -0.000   0.000
   35   14   12   30        3       0.628   1.883   0.000  -2.510  -0.000   0.000
   21    3    2   18        3       0.628   1.883   0.000  -2.510  -0.000   0.000
   18    2    1   15        3       0.628   1.883   0.000  -2.510  -0.000   0.000
   23    5    6   11        3       0.628   1.883   0.000  -2.510  -0.000   0.000
   23    5    6    7        3       0.628   1.883   0.000  -2.510  -0.000   0.000
   30   12    8   11        3       0.628   1.883   0.000  -2.510  -0.000   0.000
   24    5    6    7        3       0.628   1.883   0.000  -2.510  -0.000   0.000
   30   12    8    7        3       0.628   1.883   0.000  -2.510  -0.000   0.000
   24    5    6   11        3       0.628   1.883   0.000  -2.510  -0.000   0.000
   30   12    8    9        3       0.628   1.883   0.000  -2.510  -0.000   0.000
   25    6    5    4        3       0.628   1.883   0.000  -2.510  -0.000   0.000
   25    6    5   23        3       0.628   1.883   0.000  -2.510  -0.000   0.000
   25    6    5   24        3       0.628   1.883   0.000  -2.510  -0.000   0.000
   29   11    8   12        3       0.000   0.000   0.000  -0.000  -0.000   0.000
   29   11    6    5        3       0.000   0.000   0.000  -0.000  -0.000   0.000
   26    7    6    5        3       0.000   0.000   0.000  -0.000  -0.000   0.000
   27    7    8   12        3       0.000   0.000   0.000  -0.000  -0.000   0.000
   28   11    6    5        3       0.000   0.000   0.000  -0.000  -0.000   0.000
   27    7    6    5        3       0.000   0.000   0.000  -0.000  -0.000   0.000
   28   11    8   12        3       0.000   0.000   0.000  -0.000  -0.000   0.000
   26    7    8   12        3       0.000   0.000   0.000  -0.000  -0.000   0.000
   29   11    8    7        3       0.000   0.000   0.000  -0.000  -0.000   0.000
   25    6   11    8        3       0.000   0.000   0.000  -0.000  -0.000   0.000
   26    7    8   11        3       0.000   0.000   0.000  -0.000  -0.000   0.000
   25    6    7    8        3       0.000   0.000   0.000  -0.000  -0.000   0.000
   29   11    6    7        3       0.000   0.000   0.000  -0.000  -0.000   0.000
   26    7    6   11        3       0.000   0.000   0.000  -0.000  -0.000   0.000
   28   11    6    7        3       0.000   0.000   0.000  -0.000  -0.000   0.000
   27    7    8   11        3       0.000   0.000   0.000  -0.000  -0.000   0.000
   27    7    6   11        3       0.000   0.000   0.000  -0.000  -0.000   0.000
   28   11    8    7        3       0.000   0.000   0.000  -0.000  -0.000   0.000
   26    7    8    9        3       0.000   0.000   0.000  -0.000  -0.000   0.000
   28   11    8    9        3       0.000   0.000   0.000  -0.000  -0.000   0.000
   27    7    8    9        3       0.000   0.000   0.000  -0.000  -0.000   0.000
   29   11    8    9        3       0.000   0.000   0.000  -0.000  -0.000   0.000
   29   11    6   25        3       0.000   0.000   0.000  -0.000  -0.000   0.000
   26    7    6   25        3       0.000   0.000   0.000  -0.000  -0.000   0.000
   28   11    6   25        3       0.000   0.000   0.000  -0.000  -0.000   0.000
   27    7    6   25        3       0.000   0.000   0.000  -0.000  -0.000   0.000
   10    9    8    7        3       0.000   0.000   0.000  -0.000  -0.000   0.000

[ pairs ]
     1     5    1
     3     5    1
     2     6    1
     4     7    1
     4     8    1
     5     8    1
     2    12    1
     6     9    1
     4    11    1
     1    14    1
     7    10    1
     5    12    1
     4    13    1
     3    14    1
     6    12    1
     3    15    1
     4    15    1
     3    16    1
     7    13    1
     6    14    1
     4    16    1
     3    17    1
     1    19    1
    10    11    1
     7    14    1
     4    17    1
     1    20    1
    10    12    1
     9    13    1
     1    21    1
     9    14    1
     5    18    1
     4    19    1
     1    22    1
    11    13    1
     4    20    1
    11    14    1
     4    21    1
     3    22    1
     2    23    1
     2    24    1
     6    22    1
     4    25    1
     7    23    1
     7    24    1
     5    26    1
    14    18    1
     5    27    1
    15    18    1
     8    25    1
     5    28    1
    16    18    1
    12    22    1
    11    23    1
     5    29    1
     4    30    1
    17    18    1
    11    24    1
     9    26    1
     7    28    1
     9    27    1
     7    29    1
     2    34    1
    18    19    1
    14    23    1
    11    26    1
     9    28    1
     7    30    1
     2    35    1
    18    20    1
    14    24    1
    12    26    1
    11    27    1
     9    29    1
    18    21    1
    12    27    1
     9    30    1
     8    31    1
     5    34    1
    18    22    1
    12    28    1
     8    32    1
     5    35    1
    12    29    1
    11    30    1
     8    33    1
     8    34    1
     8    35    1
    22    23    1
    14    31    1
    22    24    1
    14    32    1
    14    33    1
    13    34    1
    23    25    1
    13    35    1
    24    25    1
    25    26    1
    25    27    1
    25    28    1
    25    29    1
    22    34    1
    22    35    1
    30    31    1
    30    32    1
    30    33    1
    30    34    1
    30    35    1

