LIGPARGEN GENERATED GRO FILE
   35
    1UNK    C00    1   0.100   0.100   0.000
    1UNK    C01    2  -0.053   0.100   0.000
    1UNK    C02    3  -0.105   0.100   0.144
    1UNK    C03    4  -0.118   0.214  -0.085
    1UNK    C04    5  -0.082   0.355  -0.032
    1UNK    C05    6  -0.136   0.472  -0.113
    1UNK    C06    7  -0.076   0.493  -0.254
    1UNK    C07    8  -0.199   0.415  -0.312
    1UNK    C08    9  -0.253   0.478  -0.432
    1UNK    N09   10  -0.295   0.529  -0.527
    1UNK    C0A   11  -0.274   0.459  -0.181
    1UNK    C0B   12  -0.178   0.264  -0.335
    1UNK    C0C   13  -0.312   0.189  -0.341
    1UNK    C0D   14  -0.082   0.197  -0.234
    1UNK    H0E   15   0.138   0.016   0.059
    1UNK    H0F   16   0.141   0.192   0.043
    1UNK    H0G   17   0.140   0.089  -0.101
    1UNK    H0H   18  -0.085   0.004  -0.044
    1UNK    H0I   19  -0.073   0.189   0.199
    1UNK    H0J   20  -0.068   0.012   0.198
    1UNK    H0K   21  -0.215   0.096   0.146
    1UNK    H0M   22  -0.226   0.201  -0.075
    1UNK    H0N   23   0.027   0.366  -0.023
    1UNK    H0O   24  -0.122   0.364   0.070
    1UNK    H0P   25  -0.128   0.562  -0.052
    1UNK    H0Q   26   0.024   0.452  -0.273
    1UNK    H0R   27  -0.072   0.600  -0.282
    1UNK    H0S   28  -0.344   0.388  -0.136
    1UNK    H0T   29  -0.326   0.555  -0.189
    1UNK    H0U   30  -0.131   0.250  -0.433
    1UNK    H0V   31  -0.366   0.192  -0.245
    1UNK    H0W   32  -0.297   0.084  -0.367
    1UNK    H0X   33  -0.378   0.233  -0.416
    1UNK    H0Y   34   0.020   0.233  -0.251
    1UNK    H0Z   35  -0.079   0.090  -0.258
   1.00000   1.00000   1.00000

