LIGPARGEN GENERATED GRO FILE
   28
    1UNK    C00    1   0.100   0.100   0.000
    1UNK    N01    2  -0.047   0.100   0.000
    1UNK    C02    3  -0.094   0.100   0.138
    1UNK    C03    4  -0.111   0.193  -0.097
    1UNK    C04    5  -0.059   0.154  -0.241
    1UNK    C05    6  -0.114   0.230  -0.362
    1UNK    F06    7  -0.055   0.177  -0.473
    1UNK    S07    8  -0.294   0.166  -0.110
    1UNK    C08    9  -0.365   0.265   0.024
    1UNK    C09   10  -0.322   0.410   0.027
    1UNK    C0A   11  -0.174   0.428   0.056
    1UNK    S0B   12  -0.066   0.370  -0.076
    1UNK    H0C   13   0.139   0.028   0.073
    1UNK    H0D   14   0.142   0.198   0.025
    1UNK    H0E   15   0.141   0.066  -0.095
    1UNK    H0F   16  -0.045   0.019   0.194
    1UNK    H0G   17  -0.200   0.077   0.146
    1UNK    H0H   18  -0.071   0.193   0.191
    1UNK    H0I   19  -0.077   0.046  -0.258
    1UNK    H0J   20   0.050   0.165  -0.247
    1UNK    H0K   21  -0.088   0.336  -0.360
    1UNK    H0M   22  -0.222   0.219  -0.375
    1UNK    H0N   23  -0.347   0.217   0.121
    1UNK    H0O   24  -0.474   0.261   0.010
    1UNK    H0P   25  -0.378   0.460   0.107
    1UNK    H0Q   26  -0.350   0.461  -0.066
    1UNK    H0R   27  -0.146   0.382   0.151
    1UNK    H0S   28  -0.154   0.535   0.067
   1.00000   1.00000   1.00000

