
;
; GENERATED BY LigParGen Server
; Jorgensen Lab @ Yale University 
;
[ atomtypes ]
  opls_818  H818     1.0080     0.000    A    2.50000E-01   1.25520E-01
  opls_824  H824     1.0080     0.000    A    2.50000E-01   1.25520E-01
  opls_801  N801    14.0070     0.000    A    3.30000E-01   7.11280E-01
  opls_805  C805    12.0110     0.000    A    3.50000E-01   2.76144E-01
  opls_813  H813     1.0080     0.000    A    2.50000E-01   1.25520E-01
  opls_802  C802    12.0110     0.000    A    3.50000E-01   2.76144E-01
  opls_815  H815     1.0080     0.000    A    2.50000E-01   1.25520E-01
  opls_809  C809    12.0110     0.000    A    3.50000E-01   2.76144E-01
  opls_822  H822     1.0080     0.000    A    2.50000E-01   1.25520E-01
  opls_803  C803    12.0110     0.000    A    3.50000E-01   2.76144E-01
  opls_825  H825     1.0080     0.000    A    2.50000E-01   1.25520E-01
  opls_814  H814     1.0080     0.000    A    2.50000E-01   1.25520E-01
  opls_810  C810    12.0110     0.000    A    3.50000E-01   2.76144E-01
  opls_820  H820     1.0080     0.000    A    2.50000E-01   1.25520E-01
  opls_821  H821     1.0080     0.000    A    2.50000E-01   1.25520E-01
  opls_816  H816     1.0080     0.000    A    2.50000E-01   1.25520E-01
  opls_800  C800    12.0110     0.000    A    3.50000E-01   2.76144E-01
  opls_811  S811    32.0600     0.000    A    3.60000E-01   1.48532E+00
  opls_823  H823     1.0080     0.000    A    2.50000E-01   1.25520E-01
  opls_826  H826     1.0080     0.000    A    2.50000E-01   1.25520E-01
  opls_819  H819     1.0080     0.000    A    2.50000E-01   1.25520E-01
  opls_804  C804    12.0110     0.000    A    3.50000E-01   2.76144E-01
  opls_827  H827     1.0080     0.000    A    2.50000E-01   1.25520E-01
  opls_807  S807    32.0600     0.000    A    3.60000E-01   1.48532E+00
  opls_808  C808    12.0110     0.000    A    3.50000E-01   2.76144E-01
  opls_817  H817     1.0080     0.000    A    2.50000E-01   1.25520E-01
  opls_812  H812     1.0080     0.000    A    2.50000E-01   1.25520E-01
  opls_806  F806    18.9984     0.000    A    2.90000E-01   2.51040E-01
[ moleculetype ]
; Name               nrexcl
UNK                   3
[ atoms ]
;   nr       type  resnr residue  atom   cgnr     charge       mass  
     1   opls_800      1    UNK   C00      1    -0.0358    12.0110 
     2   opls_801      1    UNK   N01      1    -0.6062    14.0070 
     3   opls_802      1    UNK   C02      1     -0.035    12.0110 
     4   opls_803      1    UNK   C03      1     0.3812    12.0110 
     5   opls_804      1    UNK   C04      1    -0.1981    12.0110 
     6   opls_805      1    UNK   C05      1     0.0111    12.0110 
     7   opls_806      1    UNK   F06      1    -0.1927    18.9984 
     8   opls_807      1    UNK   S07      1    -0.3222    32.0600 
     9   opls_808      1    UNK   C08      1    -0.1038    12.0110 
    10   opls_809      1    UNK   C09      1    -0.1739    12.0110 
    11   opls_810      1    UNK   C0A      1     -0.101    12.0110 
    12   opls_811      1    UNK   S0B      1    -0.3812    32.0600 
    13   opls_812      1    UNK   H0C      1     0.0925     1.0080 
    14   opls_813      1    UNK   H0D      1     0.0925     1.0080 
    15   opls_814      1    UNK   H0E      1     0.0925     1.0080 
    16   opls_815      1    UNK   H0F      1     0.0884     1.0080 
    17   opls_816      1    UNK   H0G      1     0.0884     1.0080 
    18   opls_817      1    UNK   H0H      1     0.0884     1.0080 
    19   opls_818      1    UNK   H0I      1     0.1284     1.0080 
    20   opls_819      1    UNK   H0J      1     0.1284     1.0080 
    21   opls_820      1    UNK   H0K      1     0.1082     1.0080 
    22   opls_821      1    UNK   H0M      1     0.1082     1.0080 
    23   opls_822      1    UNK   H0N      1     0.1276     1.0080 
    24   opls_823      1    UNK   H0O      1     0.1276     1.0080 
    25   opls_824      1    UNK   H0P      1     0.1158     1.0080 
    26   opls_825      1    UNK   H0Q      1     0.1158     1.0080 
    27   opls_826      1    UNK   H0R      1     0.1274     1.0080 
    28   opls_827      1    UNK   H0S      1     0.1274     1.0080 
[ bonds ]
    2     1     1      0.1448 319657.600
    3     2     1      0.1448 319657.600
    4     2     1      0.1448 319657.600
    5     4     1      0.1529 224262.400
    6     5     1      0.1529 224262.400
    7     6     1      0.1360 307105.600
    8     4     1      0.1810 185769.600
    9     8     1      0.1810 185769.600
   10     9     1      0.1529 224262.400
   11    10     1      0.1529 224262.400
   12     4     1      0.1810 185769.600
   13     1     1      0.1090 284512.000
   14     1     1      0.1090 284512.000
   15     1     1      0.1090 284512.000
   16     3     1      0.1090 284512.000
   17     3     1      0.1090 284512.000
   18     3     1      0.1090 284512.000
   19     5     1      0.1090 284512.000
   20     5     1      0.1090 284512.000
   21     6     1      0.1090 284512.000
   22     6     1      0.1090 284512.000
   23     9     1      0.1090 284512.000
   24     9     1      0.1090 284512.000
   25    10     1      0.1090 284512.000
   26    10     1      0.1090 284512.000
   27    11     1      0.1090 284512.000
   28    11     1      0.1090 284512.000
   12    11     1      0.1810 185769.600

[ angles ]
;  ai    aj    ak funct            c0            c1            c2            c3 
    1     2     3     1    107.200    433.462
    1     2     4     1    107.200    433.462
    2     4     5     1    109.470    470.282
    4     5     6     1    112.700    488.273
    5     6     7     1    109.500    418.400
    2     4     8     1    114.700    418.400
    4     8     9     1     98.900    518.816
    8     9    10     1    114.700    418.400
    9    10    11     1    112.700    488.273
    2     4    12     1    114.700    418.400
    2     1    13     1    109.500    292.880
    2     1    14     1    109.500    292.880
    2     1    15     1    109.500    292.880
    2     3    16     1    109.500    292.880
    2     3    17     1    109.500    292.880
    2     3    18     1    109.500    292.880
    4     5    19     1    110.700    313.800
    4     5    20     1    110.700    313.800
    5     6    21     1    110.700    313.800
    5     6    22     1    110.700    313.800
    8     9    23     1    109.500    292.880
    8     9    24     1    109.500    292.880
    9    10    25     1    110.700    313.800
    9    10    26     1    110.700    313.800
   10    11    27     1    110.700    313.800
   10    11    28     1    110.700    313.800
   23     9    24     1    107.800    276.144
   10    11    12     1    114.700    418.400
    5     4    12     1    114.700    418.400
   13     1    14     1    107.800    276.144
   12    11    27     1    109.500    292.880
   10     9    23     1    110.700    313.800
    7     6    22     1    107.000    334.720
   21     6    22     1    107.800    276.144
    6     5    19     1    110.700    313.800
   25    10    26     1    107.800    276.144
   16     3    17     1    107.800    276.144
   14     1    15     1    107.800    276.144
   16     3    18     1    107.800    276.144
    5     4     8     1    114.700    418.400
    6     5    20     1    110.700    313.800
    4    12    11     1     98.900    518.816
   19     5    20     1    107.800    276.144
    3     2     4     1    107.200    433.462
   11    10    25     1    110.700    313.800
   11    10    26     1    110.700    313.800
   27    11    28     1    107.800    276.144
   10     9    24     1    110.700    313.800
   17     3    18     1    107.800    276.144
   12    11    28     1    109.500    292.880
   13     1    15     1    107.800    276.144
    7     6    21     1    107.000    334.720
    8     4    12     1    110.580    432.207

[ dihedrals ]
; IMPROPER DIHEDRAL ANGLES 
;  ai    aj    ak    al funct            c0            c1            c2            c3            c4            c5

[ dihedrals ]
; PROPER DIHEDRAL ANGLES
;  ai    aj    ak    al funct            c0            c1            c2            c3            c4            c5
    6    5    4    2        3       3.335  -1.552   2.820  -4.602  -0.000   0.000
   11   10    9    8        3       3.425  -3.860   2.594  -2.159  -0.000   0.000
    5    4    2    3        3       1.789   3.492   0.536  -5.816  -0.000   0.000
    5    4    2    1        3       1.789   3.492   0.536  -5.816  -0.000   0.000
   10   11   12    4        3       0.941   2.314   2.410  -5.665  -0.000   0.000
   10    9    8    4        3       0.941   2.314   2.410  -5.665  -0.000   0.000
    9    8    4    5        3       0.941   2.314   2.410  -5.665  -0.000   0.000
   11   12    4    5        3       0.941   2.314   2.410  -5.665  -0.000   0.000
   11   12    4    2        3       0.941   2.314   2.410  -5.665  -0.000   0.000
    9    8    4    2        3       0.941   2.314   2.410  -5.665  -0.000   0.000
   11   12    4    8        3       1.354   4.061   0.000  -5.414  -0.000   0.000
    7    6    5    4        3      -0.209   1.883   1.674  -3.347  -0.000   0.000
   22    6    5    4        3       0.628   1.883   0.000  -2.510  -0.000   0.000
   27   11   10    9        3       0.628   1.883   0.000  -2.510  -0.000   0.000
   23    9   10   11        3       0.628   1.883   0.000  -2.510  -0.000   0.000
   21    6    5    4        3       0.628   1.883   0.000  -2.510  -0.000   0.000
   28   11   10    9        3       0.628   1.883   0.000  -2.510  -0.000   0.000
   24    9   10   11        3       0.628   1.883   0.000  -2.510  -0.000   0.000
   20    5    6    7        3       0.837   2.510   0.000  -3.347  -0.000   0.000
   19    5    6    7        3       0.837   2.510   0.000  -3.347  -0.000   0.000
   28   11   10   26        3       0.628   1.883   0.000  -2.510  -0.000   0.000
   27   11   10   25        3       0.628   1.883   0.000  -2.510  -0.000   0.000
   28   11   10   25        3       0.628   1.883   0.000  -2.510  -0.000   0.000
   27   11   10   26        3       0.628   1.883   0.000  -2.510  -0.000   0.000
   25   10    9   23        3       0.628   1.883   0.000  -2.510  -0.000   0.000
   21    6    5   20        3       0.628   1.883   0.000  -2.510  -0.000   0.000
   26   10    9   23        3       0.628   1.883   0.000  -2.510  -0.000   0.000
   25   10    9   24        3       0.628   1.883   0.000  -2.510  -0.000   0.000
   22    6    5   20        3       0.628   1.883   0.000  -2.510  -0.000   0.000
   21    6    5   19        3       0.628   1.883   0.000  -2.510  -0.000   0.000
   26   10    9   24        3       0.628   1.883   0.000  -2.510  -0.000   0.000
   22    6    5   19        3       0.628   1.883   0.000  -2.510  -0.000   0.000
   20    5    4    2        3      -4.096   5.088   2.966  -3.958  -0.000   0.000
   19    5    4    2        3      -4.096   5.088   2.966  -3.958  -0.000   0.000
   20    5    4   12        3       0.946   2.837   0.000  -3.782  -0.000   0.000
   25   10    9    8        3       0.946   2.837   0.000  -3.782  -0.000   0.000
   26   10    9    8        3       0.946   2.837   0.000  -3.782  -0.000   0.000
   19    5    4    8        3       0.946   2.837   0.000  -3.782  -0.000   0.000
   19    5    4   12        3       0.946   2.837   0.000  -3.782  -0.000   0.000
   20    5    4    8        3       0.946   2.837   0.000  -3.782  -0.000   0.000
   25   10   11   12        3       0.946   2.837   0.000  -3.782  -0.000   0.000
   26   10   11   12        3       0.946   2.837   0.000  -3.782  -0.000   0.000
   13    1    2    4        3       1.172   3.515   0.000  -4.686  -0.000   0.000
   15    1    2    4        3       1.172   3.515   0.000  -4.686  -0.000   0.000
   18    3    2    4        3       1.172   3.515   0.000  -4.686  -0.000   0.000
   15    1    2    3        3       1.172   3.515   0.000  -4.686  -0.000   0.000
   17    3    2    1        3       1.172   3.515   0.000  -4.686  -0.000   0.000
   14    1    2    4        3       1.172   3.515   0.000  -4.686  -0.000   0.000
   17    3    2    4        3       1.172   3.515   0.000  -4.686  -0.000   0.000
   13    1    2    3        3       1.172   3.515   0.000  -4.686  -0.000   0.000
   18    3    2    1        3       1.172   3.515   0.000  -4.686  -0.000   0.000
   16    3    2    1        3       1.172   3.515   0.000  -4.686  -0.000   0.000
   14    1    2    3        3       1.172   3.515   0.000  -4.686  -0.000   0.000
   16    3    2    4        3       1.172   3.515   0.000  -4.686  -0.000   0.000
   27   11   12    4        3       1.354   4.061   0.000  -5.414  -0.000   0.000
   28   11   12    4        3       1.354   4.061   0.000  -5.414  -0.000   0.000
   24    9    8    4        3       1.354   4.061   0.000  -5.414  -0.000   0.000
   23    9    8    4        3       1.354   4.061   0.000  -5.414  -0.000   0.000
    8    4    5    6        3       3.425  -3.860   2.594  -2.159  -0.000   0.000
   12    4    5    6        3       3.425  -3.860   2.594  -2.159  -0.000   0.000
   12   11   10    9        3       3.425  -3.860   2.594  -2.159  -0.000   0.000
    8    4    2    3        3       3.425  -3.860   2.594  -2.159  -0.000   0.000
    8    4    2    1        3       3.425  -3.860   2.594  -2.159  -0.000   0.000
   12    4    2    3        3       3.425  -3.860   2.594  -2.159  -0.000   0.000
   12    4    2    1        3       3.425  -3.860   2.594  -2.159  -0.000   0.000
   12    4    8    9        3       1.354   4.061   0.000  -5.414  -0.000   0.000

[ pairs ]
     1     5    1
     3     5    1
     2     6    1
     1     8    1
     4     7    1
     3     8    1
     2     9    1
     2    11    1
     1    12    1
     6     8    1
     5     9    1
     4    10    1
     3    12    1
     5    11    1
     3    13    1
     4    13    1
     3    14    1
     1    16    1
     6    12    1
     4    14    1
     3    15    1
     1    17    1
     8    11    1
     4    15    1
     1    18    1
     4    16    1
     9    12    1
     4    17    1
     2    19    1
     4    18    1
     2    20    1
     4    21    1
     7    19    1
     4    22    1
     8    19    1
     7    20    1
     4    23    1
     8    20    1
     4    24    1
    12    19    1
     4    27    1
    12    20    1
     4    28    1
     8    25    1
    11    23    1
     8    26    1
    11    24    1
     9    27    1
    12    25    1
     9    28    1
    12    26    1
    19    21    1
    20    21    1
    19    22    1
    20    22    1
    23    25    1
    24    25    1
    23    26    1
    24    26    1
    25    27    1
    26    27    1
    25    28    1
    26    28    1

