LIGPARGEN GENERATED GRO FILE
   46
    1UNK    C00    1   0.100   0.100   0.000
    1UNK    C01    2  -0.052   0.100   0.000
    1UNK    C02    3  -0.128   0.100   0.137
    1UNK    C03    4  -0.086  -0.023   0.220
    1UNK    C04    5  -0.106   0.231   0.218
    1UNK    C05    6   0.035   0.273   0.255
    1UNK    C06    7  -0.281   0.085   0.100
    1UNK    C07    8  -0.390   0.069   0.211
    1UNK    C08    9  -0.406   0.193   0.300
    1UNK    C09   10  -0.528   0.042   0.147
    1UNK    C0A   11  -0.540  -0.089   0.070
    1UNK    C0B   12  -0.680  -0.109   0.010
    1UNK    C0C   13  -0.716   0.000  -0.091
    1UNK    C0D   14  -0.850  -0.022  -0.158
    1UNK    C0E   15  -0.895   0.085  -0.254
    1UNK    O0F   16  -0.920  -0.122  -0.136
    1UNK    H0G   17   0.137   0.074  -0.100
    1UNK    H0H   18   0.142   0.028   0.070
    1UNK    H0I   19   0.141   0.199   0.021
    1UNK    H0J   20  -0.083   0.010  -0.056
    1UNK    H0K   21  -0.086   0.185  -0.060
    1UNK    H0M   22   0.020  -0.021   0.247
    1UNK    H0N   23  -0.104  -0.116   0.164
    1UNK    H0O   24  -0.142  -0.029   0.314
    1UNK    H0P   25  -0.156   0.220   0.314
    1UNK    H0Q   26  -0.153   0.314   0.165
    1UNK    H0R   27   0.097   0.189   0.288
    1UNK    H0S   28   0.031   0.344   0.338
    1UNK    H0T   29   0.085   0.325   0.173
    1UNK    H0U   30  -0.287  -0.003   0.036
    1UNK    H0V   31  -0.309   0.170   0.037
    1UNK    H0W   32  -0.365  -0.017   0.274
    1UNK    H0X   33  -0.389   0.286   0.244
    1UNK    H0Y   34  -0.337   0.189   0.386
    1UNK    H0Z   35  -0.506   0.199   0.344
    1UNK    H10   36  -0.552   0.127   0.082
    1UNK    H11   37  -0.604   0.041   0.227
    1UNK    H12   38  -0.519  -0.173   0.138
    1UNK    H13   39  -0.468  -0.094  -0.011
    1UNK    H14   40  -0.755  -0.112   0.091
    1UNK    H15   41  -0.683  -0.207  -0.039
    1UNK    H16   42  -0.640   0.005  -0.169
    1UNK    H17   43  -0.722   0.097  -0.041
    1UNK    H18   44  -0.816   0.159  -0.268
    1UNK    H19   45  -0.983   0.135  -0.213
    1UNK    H1A   46  -0.918   0.039  -0.350
   1.00000   1.00000   1.00000

