LIGPARGEN GENERATED GRO FILE
   35
    1UNK    C00    1   0.100   0.100   0.000
    1UNK    C01    2  -0.053   0.100   0.000
    1UNK    C02    3  -0.106   0.100   0.144
    1UNK    C03    4  -0.260   0.089   0.169
    1UNK    C04    5  -0.325   0.210   0.097
    1UNK    C05    6  -0.314  -0.039   0.102
    1UNK    C06    7  -0.295   0.094   0.327
    1UNK    C07    8  -0.448   0.104   0.356
    1UNK    C08    9  -0.531  -0.018   0.321
    1UNK    O09   10  -0.501  -0.132   0.353
    1UNK    C0A   11  -0.232  -0.018   0.415
    1UNK    C0B   12  -0.078  -0.029   0.419
    1UNK    C0C   13  -0.266  -0.012   0.563
    1UNK    N0D   14  -0.294  -0.007   0.686
    1UNK    H0E   15   0.138   0.095  -0.102
    1UNK    H0F   16   0.139   0.013   0.054
    1UNK    H0G   17   0.139   0.191   0.047
    1UNK    H0H   18  -0.085   0.010  -0.053
    1UNK    H0I   19  -0.088   0.187  -0.056
    1UNK    H0J   20  -0.068   0.189   0.196
    1UNK    H0K   21  -0.057   0.014   0.188
    1UNK    H0M   22  -0.303   0.211  -0.010
    1UNK    H0N   23  -0.289   0.304   0.140
    1UNK    H0O   24  -0.434   0.209   0.105
    1UNK    H0P   25  -0.278  -0.051   0.000
    1UNK    H0Q   26  -0.423  -0.038   0.094
    1UNK    H0R   27  -0.284  -0.129   0.158
    1UNK    H0S   28  -0.253   0.189   0.363
    1UNK    H0T   29  -0.492   0.190   0.303
    1UNK    H0U   30  -0.467   0.125   0.462
    1UNK    H0V   31  -0.624   0.003   0.264
    1UNK    H0W   32  -0.268  -0.115   0.380
    1UNK    H0X   33  -0.030   0.069   0.413
    1UNK    H0Y   34  -0.042  -0.095   0.340
    1UNK    H0Z   35  -0.043  -0.077   0.511
   1.00000   1.00000   1.00000

