LIGPARGEN GENERATED GRO FILE
   31
    1UNK    C00    1   0.100   0.100   0.000
    1UNK    C01    2  -0.053   0.100   0.000
    1UNK    C02    3  -0.110   0.100   0.141
    1UNK    C03    4  -0.072   0.222   0.222
    1UNK    C04    5  -0.249   0.046   0.169
    1UNK    C05    6  -0.331  -0.048   0.085
    1UNK    C06    7  -0.290  -0.187   0.135
    1UNK    C07    8  -0.365  -0.222   0.265
    1UNK    C08    9  -0.137  -0.169   0.155
    1UNK    C09   10  -0.069  -0.277   0.237
    1UNK    C0A   11  -0.127  -0.030   0.216
    1UNK    H0B   12   0.138   0.089  -0.102
    1UNK    H0C   13   0.140   0.018   0.061
    1UNK    H0D   14   0.140   0.194   0.039
    1UNK    H0E   15  -0.087   0.014  -0.058
    1UNK    H0F   16  -0.088   0.189  -0.053
    1UNK    H0G   17  -0.103   0.313   0.170
    1UNK    H0H   18   0.036   0.226   0.240
    1UNK    H0I   19  -0.121   0.221   0.320
    1UNK    H0J   20  -0.310   0.095   0.245
    1UNK    H0K   21  -0.306  -0.036  -0.022
    1UNK    H0M   22  -0.438  -0.030   0.096
    1UNK    H0N   23  -0.312  -0.264   0.061
    1UNK    H0O   24  -0.344  -0.151   0.346
    1UNK    H0P   25  -0.338  -0.322   0.300
    1UNK    H0Q   26  -0.473  -0.221   0.248
    1UNK    H0R   27  -0.090  -0.169   0.056
    1UNK    H0S   28  -0.102  -0.277   0.341
    1UNK    H0T   29   0.040  -0.260   0.238
    1UNK    H0U   30  -0.087  -0.376   0.194
    1UNK    H0V   31  -0.108  -0.032   0.323
   1.00000   1.00000   1.00000

