LIGPARGEN GENERATED GRO FILE
   36
    1UNK    C00    1   0.100   0.100   0.000
    1UNK    C01    2  -0.053   0.100   0.000
    1UNK    C02    3  -0.117   0.100   0.141
    1UNK    C03    4  -0.071   0.226   0.217
    1UNK    C04    5  -0.274   0.089   0.138
    1UNK    P05    6  -0.330  -0.074   0.057
    1UNK    C06    7  -0.337   0.098   0.279
    1UNK    C07    8  -0.491   0.094   0.283
    1UNK    C08    9  -0.547   0.110   0.425
    1UNK    N09   10  -0.511   0.236   0.493
    1UNK    C0A   11  -0.562   0.353   0.422
    1UNK    C0B   12  -0.561   0.235   0.630
    1UNK    H0C   13   0.137   0.083  -0.102
    1UNK    H0D   14   0.139   0.020   0.064
    1UNK    H0E   15   0.141   0.196   0.033
    1UNK    H0F   16  -0.082   0.011  -0.055
    1UNK    H0G   17  -0.089   0.186  -0.058
    1UNK    H0H   18  -0.077   0.013   0.196
    1UNK    H0I   19  -0.112   0.317   0.171
    1UNK    H0J   20   0.038   0.235   0.220
    1UNK    H0K   21  -0.102   0.224   0.322
    1UNK    H0M   22  -0.314   0.170   0.076
    1UNK    H0N   23  -0.231  -0.157   0.114
    1UNK    H0O   24  -0.269  -0.058  -0.069
    1UNK    H0P   25  -0.307   0.193   0.325
    1UNK    H0Q   26  -0.297   0.018   0.343
    1UNK    H0R   27  -0.527  -0.002   0.246
    1UNK    H0S   28  -0.532   0.170   0.216
    1UNK    H0T   29  -0.510   0.026   0.485
    1UNK    H0U   30  -0.656   0.100   0.421
    1UNK    H0V   31  -0.513   0.365   0.325
    1UNK    H0W   32  -0.540   0.445   0.478
    1UNK    H0X   33  -0.670   0.348   0.406
    1UNK    H0Y   34  -0.520   0.150   0.686
    1UNK    H0Z   35  -0.671   0.228   0.634
    1UNK    H10   36  -0.530   0.325   0.684
   1.00000   1.00000   1.00000

