LIGPARGEN GENERATED GRO FILE
   35
    1UNK    C00    1   0.100   0.100   0.000
    1UNK    C01    2  -0.053   0.100   0.000
    1UNK    C02    3  -0.122   0.100   0.140
    1UNK    C03    4  -0.085   0.233   0.214
    1UNK    O04    5  -0.150   0.242   0.342
    1UNK    C05    6  -0.224   0.124   0.376
    1UNK    C06    7  -0.131   0.003   0.373
    1UNK    C07    8  -0.066  -0.011   0.235
    1UNK    C08    9  -0.069  -0.156   0.187
    1UNK    C09   10  -0.338   0.107   0.275
    1UNK    C0A   11  -0.281   0.095   0.130
    1UNK    C0B   12  -0.339   0.213   0.046
    1UNK    C0C   13  -0.337  -0.034   0.065
    1UNK    H0D   14   0.137   0.113  -0.102
    1UNK    H0E   15   0.140   0.005   0.037
    1UNK    H0F   16   0.141   0.181   0.060
    1UNK    H0G   17  -0.085   0.014  -0.059
    1UNK    H0H   18  -0.084   0.189  -0.056
    1UNK    H0I   19  -0.111   0.322   0.156
    1UNK    H0J   20   0.022   0.240   0.234
    1UNK    H0K   21  -0.264   0.138   0.477
    1UNK    H0M   22  -0.187  -0.088   0.400
    1UNK    H0N   23  -0.052   0.015   0.448
    1UNK    H0O   24   0.041   0.010   0.251
    1UNK    H0P   25  -0.168  -0.201   0.193
    1UNK    H0Q   26  -0.004  -0.218   0.250
    1UNK    H0R   27  -0.032  -0.166   0.084
    1UNK    H0S   28  -0.404   0.194   0.283
    1UNK    H0T   29  -0.398   0.020   0.303
    1UNK    H0U   30  -0.312   0.310   0.088
    1UNK    H0V   31  -0.448   0.209   0.044
    1UNK    H0W   32  -0.304   0.209  -0.057
    1UNK    H0X   33  -0.345  -0.116   0.136
    1UNK    H0Y   34  -0.277  -0.067  -0.020
    1UNK    H0Z   35  -0.439  -0.018   0.027
   1.00000   1.00000   1.00000

