LIGPARGEN GENERATED GRO FILE
   32
    1UNK    C00    1   0.100   0.100   0.000
    1UNK    O01    2  -0.042   0.100   0.000
    1UNK    C02    3  -0.096   0.100   0.132
    1UNK    C03    4  -0.248   0.100   0.124
    1UNK    C04    5  -0.301  -0.024   0.051
    1UNK    C05    6  -0.455  -0.036   0.043
    1UNK    P06    7  -0.532   0.106  -0.055
    1UNK    C07    8  -0.499  -0.167  -0.026
    1UNK    C08    9  -0.458  -0.299   0.043
    1UNK    C09   10  -0.513  -0.309   0.185
    1UNK    C0A   11  -0.506  -0.418  -0.040
    1UNK    H0B   12   0.134   0.095  -0.104
    1UNK    H0C   13   0.138   0.013   0.054
    1UNK    H0D   14   0.138   0.192   0.045
    1UNK    H0E   15  -0.062   0.190   0.185
    1UNK    H0F   16  -0.060   0.012   0.187
    1UNK    H0G   17  -0.278   0.191   0.070
    1UNK    H0H   18  -0.290   0.105   0.225
    1UNK    H0I   19  -0.262  -0.112   0.104
    1UNK    H0J   20  -0.259  -0.028  -0.051
    1UNK    H0K   21  -0.497  -0.030   0.143
    1UNK    H0M   22  -0.433   0.113  -0.156
    1UNK    H0N   23  -0.482   0.214   0.021
    1UNK    H0O   24  -0.460  -0.169  -0.129
    1UNK    H0P   25  -0.609  -0.167  -0.035
    1UNK    H0Q   26  -0.348  -0.305   0.048
    1UNK    H0R   27  -0.621  -0.292   0.188
    1UNK    H0S   28  -0.465  -0.236   0.252
    1UNK    H0T   29  -0.493  -0.408   0.228
    1UNK    H0U   30  -0.615  -0.418  -0.049
    1UNK    H0V   31  -0.476  -0.512   0.006
    1UNK    H0W   32  -0.464  -0.414  -0.141
   1.00000   1.00000   1.00000

