
;
; GENERATED BY LigParGen Server
; Jorgensen Lab @ Yale University 
;
[ atomtypes ]
  opls_818  H818     1.0080     0.000    A    2.50000E-01   1.25520E-01
  opls_824  H824     1.0080     0.000    A    2.50000E-01   1.25520E-01
  opls_805  C805    12.0110     0.000    A    3.50000E-01   2.76144E-01
  opls_828  H828     1.0080     0.000    A    2.50000E-01   1.25520E-01
  opls_813  H813     1.0080     0.000    A    2.50000E-01   1.25520E-01
  opls_801  O801    15.9990     0.000    A    2.90000E-01   5.85760E-01
  opls_802  C802    12.0110     0.000    A    3.50000E-01   2.76144E-01
  opls_815  H815     1.0080     0.000    A    2.50000E-01   1.25520E-01
  opls_809  C809    12.0110     0.000    A    3.50000E-01   2.76144E-01
  opls_830  H830     1.0080     0.000    A    2.50000E-01   1.25520E-01
  opls_803  C803    12.0110     0.000    A    3.50000E-01   2.76144E-01
  opls_825  H825     1.0080     0.000    A    2.50000E-01   1.25520E-01
  opls_814  H814     1.0080     0.000    A    2.50000E-01   1.25520E-01
  opls_810  C810    12.0110     0.000    A    3.50000E-01   2.76144E-01
  opls_820  H820     1.0080     0.000    A    2.50000E-01   1.25520E-01
  opls_811  H811     1.0080     0.000    A    2.50000E-01   1.25520E-01
  opls_806  P806    30.9738     0.000    A    3.74000E-01   8.36800E-01
  opls_831  H831     1.0080     0.000    A    2.50000E-01   1.25520E-01
  opls_816  H816     1.0080     0.000    A    2.50000E-01   1.25520E-01
  opls_800  C800    12.0110     0.000    A    3.50000E-01   2.76144E-01
  opls_823  H823     1.0080     0.000    A    2.50000E-01   1.25520E-01
  opls_826  H826     1.0080     0.000    A    2.50000E-01   1.25520E-01
  opls_819  H819     1.0080     0.000    A    2.50000E-01   1.25520E-01
  opls_804  C804    12.0110     0.000    A    3.50000E-01   2.76144E-01
  opls_827  H827     1.0080     0.000    A    2.50000E-01   1.25520E-01
  opls_822  H822     1.0080     0.000    A    0.00000E+00   0.00000E+00
  opls_808  C808    12.0110     0.000    A    3.50000E-01   2.76144E-01
  opls_817  H817     1.0080     0.000    A    2.50000E-01   1.25520E-01
  opls_812  H812     1.0080     0.000    A    2.50000E-01   1.25520E-01
  opls_829  H829     1.0080     0.000    A    2.50000E-01   1.25520E-01
  opls_821  H821     1.0080     0.000    A    0.00000E+00   0.00000E+00
  opls_807  C807    12.0110     0.000    A    3.50000E-01   2.76144E-01
[ moleculetype ]
; Name               nrexcl
UNK                   3
[ atoms ]
;   nr       type  resnr residue  atom   cgnr     charge       mass  
     1   opls_800      1    UNK   C00      1    -0.0518    12.0110 
     2   opls_801      1    UNK   O01      1    -0.3844    15.9990 
     3   opls_802      1    UNK   C02      1     0.0059    12.0110 
     4   opls_803      1    UNK   C03      1    -0.1835    12.0110 
     5   opls_804      1    UNK   C04      1    -0.1928    12.0110 
     6   opls_805      1    UNK   C05      1    -0.1633    12.0110 
     7   opls_806      1    UNK   P06      1    -0.0396    30.9738 
     8   opls_807      1    UNK   C07      1     -0.168    12.0110 
     9   opls_808      1    UNK   C08      1    -0.1164    12.0110 
    10   opls_809      1    UNK   C09      1     -0.235    12.0110 
    11   opls_810      1    UNK   C0A      1    -0.2368    12.0110 
    12   opls_811      1    UNK   H0B      1     0.0822     1.0080 
    13   opls_812      1    UNK   H0C      1     0.0822     1.0080 
    14   opls_813      1    UNK   H0D      1     0.0822     1.0080 
    15   opls_814      1    UNK   H0E      1     0.0779     1.0080 
    16   opls_815      1    UNK   H0F      1     0.0779     1.0080 
    17   opls_816      1    UNK   H0G      1     0.1002     1.0080 
    18   opls_817      1    UNK   H0H      1     0.1002     1.0080 
    19   opls_818      1    UNK   H0I      1     0.1058     1.0080 
    20   opls_819      1    UNK   H0J      1     0.1058     1.0080 
    21   opls_820      1    UNK   H0K      1     0.1122     1.0080 
    22   opls_821      1    UNK   H0M      1     0.0252     1.0080 
    23   opls_822      1    UNK   H0N      1     0.0252     1.0080 
    24   opls_823      1    UNK   H0O      1        0.1     1.0080 
    25   opls_824      1    UNK   H0P      1        0.1     1.0080 
    26   opls_825      1    UNK   H0Q      1     0.0951     1.0080 
    27   opls_826      1    UNK   H0R      1     0.0817     1.0080 
    28   opls_827      1    UNK   H0S      1     0.0817     1.0080 
    29   opls_828      1    UNK   H0T      1     0.0817     1.0080 
    30   opls_829      1    UNK   H0U      1     0.0827     1.0080 
    31   opls_830      1    UNK   H0V      1     0.0827     1.0080 
    32   opls_831      1    UNK   H0W      1     0.0827     1.0080 
[ bonds ]
    2     1     1      0.1410 267776.000
    3     2     1      0.1410 267776.000
    4     3     1      0.1529 224262.400
    5     4     1      0.1529 224262.400
    6     5     1      0.1529 224262.400
    7     6     1      0.1843 177401.600
    8     6     1      0.1529 224262.400
    9     8     1      0.1529 224262.400
   10     9     1      0.1529 224262.400
   11     9     1      0.1529 224262.400
   12     1     1      0.1090 284512.000
   13     1     1      0.1090 284512.000
   14     1     1      0.1090 284512.000
   15     3     1      0.1090 284512.000
   16     3     1      0.1090 284512.000
   17     4     1      0.1090 284512.000
   18     4     1      0.1090 284512.000
   19     5     1      0.1090 284512.000
   20     5     1      0.1090 284512.000
   21     6     1      0.1090 284512.000
   22     7     1      0.1310 214806.560
   23     7     1      0.1310 214806.560
   24     8     1      0.1090 284512.000
   25     8     1      0.1090 284512.000
   26     9     1      0.1090 284512.000
   27    10     1      0.1090 284512.000
   28    10     1      0.1090 284512.000
   29    10     1      0.1090 284512.000
   30    11     1      0.1090 284512.000
   31    11     1      0.1090 284512.000
   32    11     1      0.1090 284512.000

[ angles ]
;  ai    aj    ak funct            c0            c1            c2            c3 
    1     2     3     1    109.500    502.080
    2     3     4     1    109.500    418.400
    3     4     5     1    112.700    488.273
    4     5     6     1    112.700    488.273
    5     6     7     1    109.500    359.824
    5     6     8     1    112.700    488.273
    6     8     9     1    112.700    488.273
    8     9    10     1    112.700    488.273
    8     9    11     1    112.700    488.273
    2     1    12     1    109.500    292.880
    2     1    13     1    109.500    292.880
    2     1    14     1    109.500    292.880
    2     3    15     1    109.500    292.880
    2     3    16     1    109.500    292.880
    3     4    17     1    110.700    313.800
    3     4    18     1    110.700    313.800
    4     5    19     1    110.700    313.800
    4     5    20     1    110.700    313.800
    5     6    21     1    110.700    313.800
    6     7    22     1    108.400    531.954
    6     7    23     1    108.400    531.954
    6     8    24     1    110.700    313.800
    6     8    25     1    110.700    313.800
    8     9    26     1    110.700    313.800
    9    10    27     1    110.700    313.800
    9    10    28     1    110.700    313.800
    9    10    29     1    110.700    313.800
    9    11    30     1    110.700    313.800
    9    11    31     1    110.700    313.800
    9    11    32     1    110.700    313.800
   27    10    28     1    107.800    276.144
    9     8    25     1    110.700    313.800
   13     1    14     1    107.800    276.144
   30    11    32     1    107.800    276.144
    8     6    21     1    110.700    313.800
    9     8    24     1    110.700    313.800
    6     5    19     1    110.700    313.800
   22     7    23     1    108.400    531.954
   10     9    26     1    110.700    313.800
   17     4    18     1    107.800    276.144
   31    11    32     1    107.800    276.144
   28    10    29     1    107.800    276.144
   12     1    14     1    107.800    276.144
   15     3    16     1    107.800    276.144
   19     5    20     1    107.800    276.144
   12     1    13     1    107.800    276.144
    6     5    20     1    110.700    313.800
    7     6     8     1    109.500    359.824
   30    11    31     1    107.800    276.144
   10     9    11     1    112.700    488.273
   11     9    26     1    110.700    313.800
   24     8    25     1    107.800    276.144
    4     3    16     1    110.700    313.800
   27    10    29     1    107.800    276.144
    5     4    18     1    110.700    313.800
    7     6    21     1    109.500    343.088
    4     3    15     1    110.700    313.800
    5     4    17     1    110.700    313.800

[ dihedrals ]
; IMPROPER DIHEDRAL ANGLES 
;  ai    aj    ak    al funct            c0            c1            c2            c3            c4            c5

[ dihedrals ]
; PROPER DIHEDRAL ANGLES
;  ai    aj    ak    al funct            c0            c1            c2            c3            c4            c5
    6    5    4    3        3       2.301  -1.464   0.837  -1.674  -0.000   0.000
   11    9    8    6        3       2.301  -1.464   0.837  -1.674  -0.000   0.000
    9    8    6    5        3       2.301  -1.464   0.837  -1.674  -0.000   0.000
   10    9    8    6        3       2.301  -1.464   0.837  -1.674  -0.000   0.000
    8    6    5    4        3       2.301  -1.464   0.837  -1.674  -0.000   0.000
    5    4    3    2        3       2.874   0.582   2.092  -5.548  -0.000   0.000
    9    8    6    7        3      -0.766   2.707   4.025  -5.966  -0.000   0.000
    4    3    2    1        3       1.715   2.845   1.046  -5.607  -0.000   0.000
   22    7    6    8        3       0.000   0.000   0.000  -0.000  -0.000   0.000
   22    7    6    5        3       0.000   0.000   0.000  -0.000  -0.000   0.000
   23    7    6    8        3       0.000   0.000   0.000  -0.000  -0.000   0.000
   23    7    6    5        3       0.000   0.000   0.000  -0.000  -0.000   0.000
   22    7    6   21        3       0.000   0.000   0.000  -0.000  -0.000   0.000
   23    7    6   21        3       0.000   0.000   0.000  -0.000  -0.000   0.000
   17    4    5    6        3       0.628   1.883   0.000  -2.510  -0.000   0.000
   20    5    4    3        3       0.628   1.883   0.000  -2.510  -0.000   0.000
   26    9    8    6        3       0.628   1.883   0.000  -2.510  -0.000   0.000
   29   10    9    8        3       0.628   1.883   0.000  -2.510  -0.000   0.000
   18    4    5    6        3       0.628   1.883   0.000  -2.510  -0.000   0.000
   24    8    6    5        3       0.628   1.883   0.000  -2.510  -0.000   0.000
   16    3    4    5        3       0.628   1.883   0.000  -2.510  -0.000   0.000
   20    5    6    8        3       0.628   1.883   0.000  -2.510  -0.000   0.000
   19    5    4    3        3       0.628   1.883   0.000  -2.510  -0.000   0.000
   28   10    9   11        3       0.628   1.883   0.000  -2.510  -0.000   0.000
   31   11    9    8        3       0.628   1.883   0.000  -2.510  -0.000   0.000
   29   10    9   11        3       0.628   1.883   0.000  -2.510  -0.000   0.000
   24    8    9   11        3       0.628   1.883   0.000  -2.510  -0.000   0.000
   21    6    8    9        3       0.628   1.883   0.000  -2.510  -0.000   0.000
   32   11    9    8        3       0.628   1.883   0.000  -2.510  -0.000   0.000
   27   10    9   11        3       0.628   1.883   0.000  -2.510  -0.000   0.000
   30   11    9   10        3       0.628   1.883   0.000  -2.510  -0.000   0.000
   24    8    9   10        3       0.628   1.883   0.000  -2.510  -0.000   0.000
   32   11    9   10        3       0.628   1.883   0.000  -2.510  -0.000   0.000
   25    8    9   11        3       0.628   1.883   0.000  -2.510  -0.000   0.000
   28   10    9    8        3       0.628   1.883   0.000  -2.510  -0.000   0.000
   19    5    6    8        3       0.628   1.883   0.000  -2.510  -0.000   0.000
   25    8    9   10        3       0.628   1.883   0.000  -2.510  -0.000   0.000
   31   11    9   10        3       0.628   1.883   0.000  -2.510  -0.000   0.000
   21    6    5    4        3       0.628   1.883   0.000  -2.510  -0.000   0.000
   27   10    9    8        3       0.628   1.883   0.000  -2.510  -0.000   0.000
   15    3    4    5        3       0.628   1.883   0.000  -2.510  -0.000   0.000
   30   11    9    8        3       0.628   1.883   0.000  -2.510  -0.000   0.000
   25    8    6    5        3       0.628   1.883   0.000  -2.510  -0.000   0.000
   18    4    3   15        3       0.628   1.883   0.000  -2.510  -0.000   0.000
   29   10    9   26        3       0.628   1.883   0.000  -2.510  -0.000   0.000
   19    5    4   18        3       0.628   1.883   0.000  -2.510  -0.000   0.000
   26    9    8   25        3       0.628   1.883   0.000  -2.510  -0.000   0.000
   32   11    9   26        3       0.628   1.883   0.000  -2.510  -0.000   0.000
   27   10    9   26        3       0.628   1.883   0.000  -2.510  -0.000   0.000
   20    5    4   17        3       0.628   1.883   0.000  -2.510  -0.000   0.000
   31   11    9   26        3       0.628   1.883   0.000  -2.510  -0.000   0.000
   26    9    8   24        3       0.628   1.883   0.000  -2.510  -0.000   0.000
   24    8    6   21        3       0.628   1.883   0.000  -2.510  -0.000   0.000
   17    4    3   16        3       0.628   1.883   0.000  -2.510  -0.000   0.000
   30   11    9   26        3       0.628   1.883   0.000  -2.510  -0.000   0.000
   17    4    3   15        3       0.628   1.883   0.000  -2.510  -0.000   0.000
   19    5    4   17        3       0.628   1.883   0.000  -2.510  -0.000   0.000
   20    5    4   18        3       0.628   1.883   0.000  -2.510  -0.000   0.000
   21    6    5   19        3       0.628   1.883   0.000  -2.510  -0.000   0.000
   18    4    3   16        3       0.628   1.883   0.000  -2.510  -0.000   0.000
   25    8    6   21        3       0.628   1.883   0.000  -2.510  -0.000   0.000
   28   10    9   26        3       0.628   1.883   0.000  -2.510  -0.000   0.000
   21    6    5   20        3       0.628   1.883   0.000  -2.510  -0.000   0.000
   18    4    3    2        3       0.979   2.937   0.000  -3.916  -0.000   0.000
   17    4    3    2        3       0.979   2.937   0.000  -3.916  -0.000   0.000
   25    8    6    7        3       0.628   1.883   0.000  -2.510  -0.000   0.000
   24    8    6    7        3       0.628   1.883   0.000  -2.510  -0.000   0.000
   19    5    6    7        3       0.628   1.883   0.000  -2.510  -0.000   0.000
   20    5    6    7        3       0.628   1.883   0.000  -2.510  -0.000   0.000
   15    3    2    1        3       1.590   4.770   0.000  -6.360  -0.000   0.000
   14    1    2    3        3       1.590   4.770   0.000  -6.360  -0.000   0.000
   16    3    2    1        3       1.590   4.770   0.000  -6.360  -0.000   0.000
   12    1    2    3        3       1.590   4.770   0.000  -6.360  -0.000   0.000
   13    1    2    3        3       1.590   4.770   0.000  -6.360  -0.000   0.000
    7    6    5    4        3      -0.766   2.707   4.025  -5.966  -0.000   0.000

[ pairs ]
     1     4    1
     2     5    1
     3     6    1
     4     7    1
     4     8    1
     5     9    1
     3    12    1
     7     9    1
     6    10    1
     3    13    1
     1    15    1
     6    11    1
     3    14    1
     1    16    1
     2    17    1
     5    15    1
     2    18    1
     5    16    1
     3    19    1
     6    17    1
     3    20    1
     6    18    1
     4    21    1
     7    19    1
     8    19    1
     7    20    1
     5    22    1
     8    20    1
     5    23    1
     5    24    1
     9    21    1
     8    22    1
     5    25    1
     8    23    1
     7    24    1
    15    17    1
     7    25    1
     6    26    1
    16    17    1
    15    18    1
    16    18    1
    10    24    1
    11    24    1
    10    25    1
     8    27    1
    17    19    1
    11    25    1
     8    28    1
    18    19    1
    17    20    1
     8    29    1
    18    20    1
    11    27    1
     8    30    1
    11    28    1
     8    31    1
    19    21    1
    11    29    1
    10    30    1
     8    32    1
    20    21    1
    10    31    1
    10    32    1
    21    22    1
    21    23    1
    21    24    1
    21    25    1
    24    26    1
    25    26    1
    26    27    1
    26    28    1
    26    29    1
    26    30    1
    26    31    1
    26    32    1

