LIGPARGEN GENERATED GRO FILE
   47
    1UNK    C00    1   0.100   0.100   0.000
    1UNK    C01    2  -0.052   0.100   0.000
    1UNK    S02    3  -0.110   0.100   0.171
    1UNK    C03    4  -0.290   0.100   0.141
    1UNK    C04    5  -0.357   0.100   0.278
    1UNK    C05    6  -0.509   0.100   0.268
    1UNK    C06    7  -0.566   0.100   0.410
    1UNK    C07    8  -0.718   0.089   0.417
    1UNK    C08    9  -0.789  -0.034   0.356
    1UNK    C09   10  -0.749  -0.172   0.417
    1UNK    C0A   11  -0.604  -0.214   0.407
    1UNK    N0B   12  -0.938  -0.016   0.363
    1UNK    C0C   13  -0.997  -0.030   0.496
    1UNK    P0D   14  -1.025   0.087   0.257
    1UNK    C0E   15  -1.011   0.251   0.338
    1UNK    O0F   16  -0.920   0.103   0.136
    1UNK    C0G   17  -0.966   0.174   0.022
    1UNK    H0H   18   0.138   0.100  -0.103
    1UNK    H0I   19   0.140   0.011   0.050
    1UNK    H0J   20   0.140   0.189   0.050
    1UNK    H0K   21  -0.089   0.011  -0.052
    1UNK    H0M   22  -0.089   0.189  -0.051
    1UNK    H0N   23  -0.317   0.010   0.085
    1UNK    H0O   24  -0.317   0.189   0.084
    1UNK    H0P   25  -0.326   0.189   0.334
    1UNK    H0Q   26  -0.326   0.012   0.335
    1UNK    H0R   27  -0.543   0.013   0.211
    1UNK    H0S   28  -0.544   0.189   0.214
    1UNK    H0T   29  -0.539   0.195   0.457
    1UNK    H0U   30  -0.519   0.024   0.472
    1UNK    H0V   31  -0.751   0.178   0.363
    1UNK    H0W   32  -0.748   0.101   0.521
    1UNK    H0X   33  -0.761  -0.041   0.251
    1UNK    H0Y   34  -0.809  -0.249   0.366
    1UNK    H0Z   35  -0.775  -0.177   0.524
    1UNK    H10   36  -0.557  -0.182   0.313
    1UNK    H11   37  -0.596  -0.324   0.411
    1UNK    H12   38  -0.545  -0.177   0.491
    1UNK    H13   39  -0.971  -0.125   0.544
    1UNK    H14   40  -1.107  -0.032   0.492
    1UNK    H15   41  -0.968   0.051   0.563
    1UNK    H16   42  -1.086   0.260   0.418
    1UNK    H17   43  -1.031   0.330   0.265
    1UNK    H18   44  -0.915   0.275   0.383
    1UNK    H19   45  -0.905   0.145  -0.064
    1UNK    H1A   46  -0.954   0.282   0.038
    1UNK    H1B   47  -1.071   0.151  -0.002
   1.00000   1.00000   1.00000

