
;
; GENERATED BY LigParGen Server
; Jorgensen Lab @ Yale University 
;
[ atomtypes ]
  opls_818  H818     1.0080     0.000    A    2.50000E-01   1.25520E-01
  opls_805  C805    12.0110     0.000    A    3.45000E-01   3.47272E-01
  opls_824  H824     1.0080     0.000    A    2.50000E-01   1.25520E-01
  opls_810  C810    12.0110     0.000    A    3.45000E-01   3.47272E-01
  opls_828  H828     1.0080     0.000    A    2.50000E-01   1.25520E-01
  opls_813  H813     1.0080     0.000    A    2.50000E-01   1.25520E-01
  opls_807  C807    12.0110     0.000    A    3.45000E-01   3.47272E-01
  opls_802  C802    12.0110     0.000    A    3.50000E-01   2.76144E-01
  opls_815  H815     1.0080     0.000    A    2.50000E-01   1.25520E-01
  opls_801  C801    12.0110     0.000    A    3.50000E-01   2.76144E-01
  opls_822  H822     1.0080     0.000    A    2.50000E-01   1.25520E-01
  opls_808  C808    12.0110     0.000    A    3.45000E-01   3.47272E-01
  opls_825  H825     1.0080     0.000    A    2.50000E-01   1.25520E-01
  opls_814  H814     1.0080     0.000    A    2.50000E-01   1.25520E-01
  opls_821  H821     1.0080     0.000    A    2.50000E-01   1.25520E-01
  opls_820  H820     1.0080     0.000    A    2.50000E-01   1.25520E-01
  opls_803  C803    12.0110     0.000    A    3.45000E-01   3.47272E-01
  opls_811  H811     1.0080     0.000    A    2.50000E-01   1.25520E-01
  opls_804  C804    12.0110     0.000    A    3.45000E-01   3.47272E-01
  opls_816  H816     1.0080     0.000    A    2.50000E-01   1.25520E-01
  opls_800  C800    12.0110     0.000    A    3.50000E-01   2.76144E-01
  opls_806  C806    12.0110     0.000    A    3.50000E-01   2.76144E-01
  opls_823  H823     1.0080     0.000    A    2.50000E-01   1.25520E-01
  opls_826  H826     1.0080     0.000    A    2.50000E-01   1.25520E-01
  opls_819  H819     1.0080     0.000    A    2.50000E-01   1.25520E-01
  opls_827  H827     1.0080     0.000    A    2.50000E-01   1.25520E-01
  opls_817  H817     1.0080     0.000    A    2.50000E-01   1.25520E-01
  opls_809  C809    12.0110     0.000    A    3.45000E-01   3.47272E-01
  opls_812  H812     1.0080     0.000    A    2.50000E-01   1.25520E-01
[ moleculetype ]
; Name               nrexcl
UNK                   3
[ atoms ]
;   nr       type  resnr residue  atom   cgnr     charge       mass  
     1   opls_800      1    UNK   C00      1    -0.2392    12.0110 
     2   opls_801      1    UNK   C01      1    -0.1062    12.0110 
     3   opls_802      1    UNK   C02      1    -0.1446    12.0110 
     4   opls_803      1    UNK   C03      1     -0.189    12.0110 
     5   opls_804      1    UNK   C04      1    -0.2359    12.0110 
     6   opls_805      1    UNK   C05      1    -0.2409    12.0110 
     7   opls_806      1    UNK   C06      1    -0.2049    12.0110 
     8   opls_807      1    UNK   C07      1      0.076    12.0110 
     9   opls_808      1    UNK   C08      1    -0.0898    12.0110 
    10   opls_809      1    UNK   C09      1    -0.7052    12.0110 
    11   opls_810      1    UNK   C0A      1    -0.0787    12.0110 
    12   opls_811      1    UNK   H0B      1     0.0839     1.0080 
    13   opls_812      1    UNK   H0C      1     0.0839     1.0080 
    14   opls_813      1    UNK   H0D      1     0.0839     1.0080 
    15   opls_814      1    UNK   H0E      1     0.1024     1.0080 
    16   opls_815      1    UNK   H0F      1     0.0935     1.0080 
    17   opls_816      1    UNK   H0G      1     0.0935     1.0080 
    18   opls_817      1    UNK   H0H      1     0.1305     1.0080 
    19   opls_818      1    UNK   H0I      1     0.1255     1.0080 
    20   opls_819      1    UNK   H0J      1     0.1255     1.0080 
    21   opls_820      1    UNK   H0K      1     0.1238     1.0080 
    22   opls_821      1    UNK   H0M      1     0.1238     1.0080 
    23   opls_822      1    UNK   H0N      1     0.1197     1.0080 
    24   opls_823      1    UNK   H0O      1     0.1197     1.0080 
    25   opls_824      1    UNK   H0P      1     0.1251     1.0080 
    26   opls_825      1    UNK   H0Q      1     0.1251     1.0080 
    27   opls_826      1    UNK   H0R      1     0.2481     1.0080 
    28   opls_827      1    UNK   H0S      1     0.1254     1.0080 
    29   opls_828      1    UNK   H0T      1     0.1254     1.0080 
[ bonds ]
    2     1     1      0.1529 224262.400
    3     2     1      0.1529 224262.400
    4     3     1      0.1510 234304.000
    5     4     1      0.1520 217568.000
    6     4     1      0.1520 217568.000
    7     2     1      0.1529 224262.400
    8     7     1      0.1510 234304.000
    9     8     1      0.1520 217568.000
   10     8     1      0.1520 217568.000
   11     8     1      0.1520 217568.000
   12     1     1      0.1090 284512.000
   13     1     1      0.1090 284512.000
   14     1     1      0.1090 284512.000
   15     2     1      0.1090 284512.000
   16     3     1      0.1090 284512.000
   17     3     1      0.1090 284512.000
   18     4     1      0.1088 284512.000
   19     5     1      0.1088 284512.000
   20     5     1      0.1088 284512.000
   21     6     1      0.1088 284512.000
   22     6     1      0.1088 284512.000
   23     7     1      0.1090 284512.000
   24     7     1      0.1090 284512.000
   25     9     1      0.1088 284512.000
   26     9     1      0.1088 284512.000
   27    10     1      0.1088 284512.000
   28    11     1      0.1088 284512.000
   29    11     1      0.1088 284512.000
    6     5     1      0.1520 217568.000
   10     9     1      0.1520 217568.000
   11    10     1      0.1520 217568.000

[ angles ]
;  ai    aj    ak funct            c0            c1            c2            c3 
    1     2     3     1    112.700    488.273
    2     3     4     1    112.700    488.273
    3     4     5     1    117.200    313.800
    3     4     6     1    117.200    313.800
    1     2     7     1    112.700    488.273
    2     7     8     1    112.700    488.273
    7     8     9     1    117.200    313.800
    7     8    10     1    117.200    313.800
    7     8    11     1    117.200    313.800
    2     1    12     1    110.700    313.800
    2     1    13     1    110.700    313.800
    2     1    14     1    110.700    313.800
    1     2    15     1    110.700    313.800
    2     3    16     1    110.700    313.800
    2     3    17     1    110.700    313.800
    3     4    18     1    114.300    292.880
    4     5    19     1    117.200    313.800
    4     5    20     1    117.200    313.800
    4     6    21     1    117.200    313.800
    4     6    22     1    117.200    313.800
    2     7    23     1    110.700    313.800
    2     7    24     1    110.700    313.800
    8     9    25     1    117.200    313.800
    8     9    26     1    117.200    313.800
    8    10    27     1    117.200    313.800
    8    11    28     1    117.200    313.800
    8    11    29     1    117.200    313.800
   23     7    24     1    107.800    276.144
    5     4     6     1     83.000    251.040
   10    11    28     1    117.200    313.800
   11    10    27     1    117.200    313.800
   16     3    17     1    107.800    276.144
   10     8    11     1     83.000    251.040
    3     2    15     1    110.700    313.800
   13     1    14     1    107.800    276.144
    9     8    10     1     83.000    251.040
    8     9    10     1     83.000    251.040
    6     5    19     1    117.200    313.800
   12     1    13     1    107.800    276.144
    4     5     6     1     83.000    251.040
    4     6     5     1     83.000    251.040
    8    11    10     1     83.000    251.040
    7     2    15     1    110.700    313.800
   28    11    29     1    114.300    292.880
    8    10    11     1     83.000    251.040
   12     1    14     1    107.800    276.144
    8    10     9     1     83.000    251.040
    8     7    23     1    110.700    313.800
    5     6    21     1    117.200    313.800
   19     5    20     1    114.300    292.880
    9     8    11     1     83.000    251.040
   25     9    26     1    114.300    292.880
   10    11    29     1    117.200    313.800
    6     5    20     1    117.200    313.800
   10     9    25     1    117.200    313.800
   10     9    26     1    117.200    313.800
    9    10    11     1     83.000    251.040
    4     3    16     1    110.700    313.800
    3     2     7     1    112.700    488.273
    8     7    24     1    110.700    313.800
    9    10    27     1    117.200    313.800
    5     6    22     1    117.200    313.800
    6     4    18     1    117.200    313.800
    5     4    18     1    117.200    313.800
   21     6    22     1    114.300    292.880
    4     3    17     1    110.700    313.800

[ dihedrals ]
; IMPROPER DIHEDRAL ANGLES 
;  ai    aj    ak    al funct            c0            c1            c2            c3            c4            c5

[ dihedrals ]
; PROPER DIHEDRAL ANGLES
;  ai    aj    ak    al funct            c0            c1            c2            c3            c4            c5
    7    2    3    4        3       2.301  -1.464   0.837  -1.674  -0.000   0.000
    4    3    2    1        3       2.301  -1.464   0.837  -1.674  -0.000   0.000
    8    7    2    3        3       2.301  -1.464   0.837  -1.674  -0.000   0.000
    8    7    2    1        3       2.301  -1.464   0.837  -1.674  -0.000   0.000
   10    8    7    2        3       0.000   0.000   0.000  -0.000  -0.000   0.000
    6    4    3    2        3       0.000   0.000   0.000  -0.000  -0.000   0.000
   11    8    7    2        3       0.000   0.000   0.000  -0.000  -0.000   0.000
    5    4    3    2        3       0.000   0.000   0.000  -0.000  -0.000   0.000
    9    8    7    2        3       0.000   0.000   0.000  -0.000  -0.000   0.000
   10    8    7    9        3       0.000   0.000   0.000  -0.000  -0.000   0.000
    6    4    3    5        3       0.000   0.000   0.000  -0.000  -0.000   0.000
   24    7    2    1        3       0.628   1.883   0.000  -2.510  -0.000   0.000
   12    1    2    3        3       0.628   1.883   0.000  -2.510  -0.000   0.000
   14    1    2    7        3       0.628   1.883   0.000  -2.510  -0.000   0.000
   23    7    2    1        3       0.628   1.883   0.000  -2.510  -0.000   0.000
   13    1    2    7        3       0.628   1.883   0.000  -2.510  -0.000   0.000
   16    3    2    7        3       0.628   1.883   0.000  -2.510  -0.000   0.000
   17    3    2    1        3       0.628   1.883   0.000  -2.510  -0.000   0.000
   14    1    2    3        3       0.628   1.883   0.000  -2.510  -0.000   0.000
   12    1    2    7        3       0.628   1.883   0.000  -2.510  -0.000   0.000
   13    1    2    3        3       0.628   1.883   0.000  -2.510  -0.000   0.000
   17    3    2    7        3       0.628   1.883   0.000  -2.510  -0.000   0.000
   24    7    2    3        3       0.628   1.883   0.000  -2.510  -0.000   0.000
   16    3    2    1        3       0.628   1.883   0.000  -2.510  -0.000   0.000
   23    7    2    3        3       0.628   1.883   0.000  -2.510  -0.000   0.000
   15    2    3    4        3       0.628   1.883   0.000  -2.510  -0.000   0.000
   15    2    7    8        3       0.628   1.883   0.000  -2.510  -0.000   0.000
   23    7    2   15        3       0.628   1.883   0.000  -2.510  -0.000   0.000
   15    2    1   13        3       0.628   1.883   0.000  -2.510  -0.000   0.000
   16    3    2   15        3       0.628   1.883   0.000  -2.510  -0.000   0.000
   17    3    2   15        3       0.628   1.883   0.000  -2.510  -0.000   0.000
   24    7    2   15        3       0.628   1.883   0.000  -2.510  -0.000   0.000
   15    2    1   14        3       0.628   1.883   0.000  -2.510  -0.000   0.000
   15    2    1   12        3       0.628   1.883   0.000  -2.510  -0.000   0.000
   17    3    4    5        3       0.628   1.883   0.000  -2.510  -0.000   0.000
   16    3    4    5        3       0.628   1.883   0.000  -2.510  -0.000   0.000
   17    3    4    6        3       0.628   1.883   0.000  -2.510  -0.000   0.000
   24    7    8   11        3       0.628   1.883   0.000  -2.510  -0.000   0.000
   16    3    4    6        3       0.628   1.883   0.000  -2.510  -0.000   0.000
   24    7    8    9        3       0.628   1.883   0.000  -2.510  -0.000   0.000
   23    7    8   10        3       0.628   1.883   0.000  -2.510  -0.000   0.000
   23    7    8    9        3       0.628   1.883   0.000  -2.510  -0.000   0.000
   24    7    8   10        3       0.628   1.883   0.000  -2.510  -0.000   0.000
   23    7    8   11        3       0.628   1.883   0.000  -2.510  -0.000   0.000
   18    4    3    2        3       0.628   1.883   0.000  -2.510  -0.000   0.000
   18    4    3   16        3       0.628   1.883   0.000  -2.510  -0.000   0.000
   18    4    3   17        3       0.628   1.883   0.000  -2.510  -0.000   0.000
   19    5    4    3        3       0.000   0.000   0.000  -0.000  -0.000   0.000
   29   11    8    7        3       0.000   0.000   0.000  -0.000  -0.000   0.000
   25    9    8    7        3       0.000   0.000   0.000  -0.000  -0.000   0.000
   27   10    8    7        3       0.000   0.000   0.000  -0.000  -0.000   0.000
   21    6    4    3        3       0.000   0.000   0.000  -0.000  -0.000   0.000
   26    9    8    7        3       0.000   0.000   0.000  -0.000  -0.000   0.000
   20    5    4    3        3       0.000   0.000   0.000  -0.000  -0.000   0.000
   22    6    4    3        3       0.000   0.000   0.000  -0.000  -0.000   0.000
   28   11    8    7        3       0.000   0.000   0.000  -0.000  -0.000   0.000
   21    6    5    4        3       0.000   0.000   0.000  -0.000  -0.000   0.000
   25    9    8   10        3       0.000   0.000   0.000  -0.000  -0.000   0.000
   29   11    8    9        3       0.000   0.000   0.000  -0.000  -0.000   0.000
   18    4    5    6        3       0.000   0.000   0.000  -0.000  -0.000   0.000
   25    9   10   11        3       0.000   0.000   0.000  -0.000  -0.000   0.000
   26    9    8   10        3       0.000   0.000   0.000  -0.000  -0.000   0.000
   26    9   10   11        3       0.000   0.000   0.000  -0.000  -0.000   0.000
   28   11   10    8        3       0.000   0.000   0.000  -0.000  -0.000   0.000
   25    9   10    8        3       0.000   0.000   0.000  -0.000  -0.000   0.000
   25    9    8   11        3       0.000   0.000   0.000  -0.000  -0.000   0.000
   27   10    8   11        3       0.000   0.000   0.000  -0.000  -0.000   0.000
   22    6    5    4        3       0.000   0.000   0.000  -0.000  -0.000   0.000
   19    5    6    4        3       0.000   0.000   0.000  -0.000  -0.000   0.000
   29   11    8   10        3       0.000   0.000   0.000  -0.000  -0.000   0.000
   26    9    8   11        3       0.000   0.000   0.000  -0.000  -0.000   0.000
   26    9   10    8        3       0.000   0.000   0.000  -0.000  -0.000   0.000
   20    5    6    4        3       0.000   0.000   0.000  -0.000  -0.000   0.000
   28   11    8    9        3       0.000   0.000   0.000  -0.000  -0.000   0.000
   29   11   10    9        3       0.000   0.000   0.000  -0.000  -0.000   0.000
   27   10    8    9        3       0.000   0.000   0.000  -0.000  -0.000   0.000
   27   10   11    8        3       0.000   0.000   0.000  -0.000  -0.000   0.000
   19    5    4    6        3       0.000   0.000   0.000  -0.000  -0.000   0.000
   27   10    9    8        3       0.000   0.000   0.000  -0.000  -0.000   0.000
   18    4    6    5        3       0.000   0.000   0.000  -0.000  -0.000   0.000
   28   11    8   10        3       0.000   0.000   0.000  -0.000  -0.000   0.000
   29   11   10    8        3       0.000   0.000   0.000  -0.000  -0.000   0.000
   20    5    4    6        3       0.000   0.000   0.000  -0.000  -0.000   0.000
   28   11   10    9        3       0.000   0.000   0.000  -0.000  -0.000   0.000
   21    6    4    5        3       0.000   0.000   0.000  -0.000  -0.000   0.000
   22    6    4    5        3       0.000   0.000   0.000  -0.000  -0.000   0.000
   22    6    4   18        3       0.000   0.000   0.000  -0.000  -0.000   0.000
   27   10    9   26        3       0.000   0.000   0.000  -0.000  -0.000   0.000
   20    5    4   18        3       0.000   0.000   0.000  -0.000  -0.000   0.000
   22    6    5   20        3       0.000   0.000   0.000  -0.000  -0.000   0.000
   29   11   10   27        3       0.000   0.000   0.000  -0.000  -0.000   0.000
   21    6    4   18        3       0.000   0.000   0.000  -0.000  -0.000   0.000
   21    6    5   20        3       0.000   0.000   0.000  -0.000  -0.000   0.000
   28   11   10   27        3       0.000   0.000   0.000  -0.000  -0.000   0.000
   22    6    5   19        3       0.000   0.000   0.000  -0.000  -0.000   0.000
   21    6    5   19        3       0.000   0.000   0.000  -0.000  -0.000   0.000
   27   10    9   25        3       0.000   0.000   0.000  -0.000  -0.000   0.000
   19    5    4   18        3       0.000   0.000   0.000  -0.000  -0.000   0.000

[ pairs ]
     1     4    1
     2     5    1
     2     6    1
     1     8    1
     4     7    1
     3     8    1
     2     9    1
     2    10    1
     2    11    1
     3    12    1
     3    13    1
     3    14    1
     1    16    1
     1    17    1
     7    12    1
     4    15    1
     7    13    1
     2    18    1
     7    14    1
     5    16    1
     6    16    1
     5    17    1
     3    19    1
     8    15    1
     7    16    1
     6    17    1
     3    20    1
     7    17    1
     3    21    1
     1    23    1
     3    22    1
     1    24    1
     3    23    1
    12    15    1
     3    24    1
    13    15    1
    14    15    1
    15    16    1
    15    17    1
     9    23    1
     7    25    1
    10    23    1
     9    24    1
     7    26    1
    16    18    1
    11    23    1
    10    24    1
     7    27    1
    17    18    1
    11    24    1
     7    28    1
    11    25    1
     7    29    1
    18    19    1
    11    26    1
     9    28    1
    18    20    1
    15    23    1
     9    29    1
    18    21    1
    15    24    1
    19    21    1
    18    22    1
    20    21    1
    19    22    1
    20    22    1
    25    27    1
    26    27    1
    27    28    1
    27    29    1

