LIGPARGEN GENERATED GRO FILE
   29
    1UNK    C00    1   0.100   0.100   0.000
    1UNK    C01    2  -0.053   0.100   0.000
    1UNK    C02    3  -0.102   0.100   0.146
    1UNK    C03    4  -0.252   0.091   0.162
    1UNK    C04    5  -0.328  -0.030   0.116
    1UNK    C05    6  -0.311  -0.003   0.263
    1UNK    C06    7  -0.111   0.219  -0.080
    1UNK    C07    8  -0.061   0.232  -0.223
    1UNK    C08    9  -0.118   0.355  -0.291
    1UNK    C09   10  -0.145   0.217  -0.347
    1UNK    C0A   11  -0.055   0.103  -0.302
    1UNK    H0B   12   0.138   0.013   0.055
    1UNK    H0C   13   0.140   0.190   0.047
    1UNK    H0D   14   0.141   0.094  -0.101
    1UNK    H0E   15  -0.087   0.007  -0.046
    1UNK    H0F   16  -0.068   0.191   0.197
    1UNK    H0G   17  -0.055   0.016   0.199
    1UNK    H0H   18  -0.299   0.188   0.150
    1UNK    H0I   19  -0.274  -0.114   0.073
    1UNK    H0J   20  -0.427  -0.015   0.073
    1UNK    H0K   21  -0.245  -0.069   0.318
    1UNK    H0M   22  -0.397   0.030   0.319
    1UNK    H0N   23  -0.085   0.312  -0.027
    1UNK    H0O   24  -0.220   0.212  -0.081
    1UNK    H0P   25  -0.049   0.419  -0.345
    1UNK    H0Q   26  -0.203   0.407  -0.248
    1UNK    H0R   27  -0.129   0.225  -0.454
    1UNK    H0S   28   0.036   0.085  -0.358
    1UNK    H0T   29  -0.105   0.013  -0.268
   1.00000   1.00000   1.00000

