LIGPARGEN GENERATED GRO FILE
   36
    1UNK    C00    1   0.100   0.100   0.000
    1UNK    C01    2  -0.052   0.100   0.000
    1UNK    C02    3  -0.109   0.100   0.142
    1UNK    C03    4  -0.263   0.100   0.138
    1UNK    C04    5  -0.324   0.100   0.279
    1UNK    C05    6  -0.478   0.106   0.280
    1UNK    C06    7  -0.542  -0.015   0.209
    1UNK    O07    8  -0.683   0.001   0.201
    1UNK    C08    9  -0.746  -0.114   0.144
    1UNK    C09   10  -0.526   0.119   0.426
    1UNK    O0A   11  -0.668   0.126   0.439
    1UNK    C0B   12  -0.726   0.245   0.405
    1UNK    O0C   13  -0.664   0.347   0.377
    1UNK    C0D   14  -0.876   0.231   0.408
    1UNK    F0E   15  -0.941   0.348   0.382
    1UNK    H0F   16   0.138   0.100  -0.103
    1UNK    H0G   17   0.139   0.011   0.050
    1UNK    H0H   18   0.139   0.189   0.051
    1UNK    H0I   19  -0.088   0.012  -0.054
    1UNK    H0J   20  -0.088   0.188  -0.054
    1UNK    H0K   21  -0.073   0.188   0.196
    1UNK    H0M   22  -0.074   0.011   0.196
    1UNK    H0N   23  -0.295   0.011   0.083
    1UNK    H0O   24  -0.298   0.188   0.083
    1UNK    H0P   25  -0.284   0.186   0.333
    1UNK    H0Q   26  -0.290   0.010   0.333
    1UNK    H0R   27  -0.510   0.196   0.225
    1UNK    H0S   28  -0.518  -0.107   0.264
    1UNK    H0T   29  -0.504  -0.024   0.107
    1UNK    H0U   30  -0.853  -0.093   0.136
    1UNK    H0V   31  -0.732  -0.201   0.208
    1UNK    H0W   32  -0.706  -0.133   0.044
    1UNK    H0X   33  -0.480   0.206   0.475
    1UNK    H0Y   34  -0.494   0.031   0.483
    1UNK    H0Z   35  -0.907   0.197   0.507
    1UNK    H10   36  -0.907   0.159   0.331
   1.00000   1.00000   1.00000

