LIGPARGEN GENERATED GRO FILE
   28
    1UNK    C00    1   0.100   0.100   0.000
    1UNK    C01    2  -0.052   0.100   0.000
    1UNK    C02    3  -0.099   0.100   0.141
    1UNK    C03    4  -0.241   0.139   0.127
    1UNK    C04    5  -0.330   0.171   0.246
    1UNK    C05    6  -0.437   0.183   0.132
    1UNK    C06    7  -0.440   0.055   0.049
    1UNK    C07    8  -0.288   0.040   0.020
    1UNK    C08    9  -0.204   0.121  -0.095
    1UNK    C09   10  -0.302   0.240  -0.097
    1UNK    C0A   11  -0.327   0.260   0.053
    1UNK    C0B   12  -0.080   0.198  -0.105
    1UNK    H0C   13   0.140   0.010   0.049
    1UNK    H0D   14   0.132   0.185   0.063
    1UNK    H0E   15   0.150   0.113  -0.096
    1UNK    H0F   16  -0.041   0.159   0.211
    1UNK    H0G   17  -0.094  -0.006   0.176
    1UNK    H0H   18  -0.295   0.264   0.295
    1UNK    H0I   19  -0.338   0.093   0.321
    1UNK    H0J   20  -0.528   0.235   0.162
    1UNK    H0K   21  -0.505   0.064  -0.037
    1UNK    H0M   22  -0.475  -0.026   0.114
    1UNK    H0N   23  -0.259  -0.065   0.026
    1UNK    H0O   24  -0.393   0.216  -0.154
    1UNK    H0P   25  -0.261   0.329  -0.142
    1UNK    H0Q   26  -0.339   0.366   0.078
    1UNK    H0R   27  -0.068   0.300  -0.073
    1UNK    H0S   28  -0.027   0.188  -0.204
   1.00000   1.00000   1.00000

