
;
; GENERATED BY LigParGen Server
; Jorgensen Lab @ Yale University 
;
[ atomtypes ]
  opls_818  H818     1.0080     0.000    A    2.50000E-01   1.25520E-01
  opls_814  C814    12.0110     0.000    A    3.50000E-01   2.76144E-01
  opls_815  C815    12.0110     0.000    A    3.30000E-01   2.76144E-01
  opls_824  H824     1.0080     0.000    A    2.50000E-01   1.25520E-01
  opls_804  O804    15.9990     0.000    A    2.96000E-01   8.78640E-01
  opls_828  H828     1.0080     0.000    A    2.50000E-01   1.25520E-01
  opls_812  C812    12.0110     0.000    A    3.50000E-01   2.76144E-01
  opls_806  C806    12.0110     0.000    A    3.50000E-01   2.76144E-01
  opls_827  H827     1.0080     0.000    A    2.50000E-01   1.25520E-01
  opls_801  C801    12.0110     0.000    A    3.50000E-01   2.76144E-01
  opls_811  O811    15.9990     0.000    A    2.96000E-01   8.78640E-01
  opls_822  H822     1.0080     0.000    A    2.50000E-01   1.25520E-01
  opls_807  C807    12.0110     0.000    A    3.50000E-01   2.76144E-01
  opls_825  H825     1.0080     0.000    A    2.50000E-01   1.25520E-01
  opls_830  H830     1.0080     0.000    A    2.50000E-01   1.25520E-01
  opls_821  H821     1.0080     0.000    A    2.50000E-01   1.25520E-01
  opls_820  H820     1.0080     0.000    A    2.50000E-01   1.25520E-01
  opls_829  H829     1.0080     0.000    A    2.50000E-01   1.25520E-01
  opls_831  H831     1.0080     0.000    A    2.50000E-01   1.25520E-01
  opls_810  C810    12.0110     0.000    A    3.55000E-01   2.92880E-01
  opls_809  C809    12.0110     0.000    A    3.50000E-01   2.76144E-01
  opls_832  H832     1.0080     0.000    A    2.50000E-01   1.25520E-01
  opls_800  C800    12.0110     0.000    A    3.50000E-01   2.76144E-01
  opls_823  H823     1.0080     0.000    A    2.50000E-01   1.25520E-01
  opls_833  H833     1.0080     0.000    A    2.50000E-01   1.25520E-01
  opls_813  C813    12.0110     0.000    A    3.50000E-01   2.76144E-01
  opls_805  O805    15.9990     0.000    A    2.90000E-01   5.85760E-01
  opls_826  H826     1.0080     0.000    A    2.50000E-01   1.25520E-01
  opls_816  N816    14.0070     0.000    A    3.20000E-01   7.11280E-01
  opls_819  H819     1.0080     0.000    A    2.50000E-01   1.25520E-01
  opls_802  O802    15.9990     0.000    A    2.90000E-01   5.85760E-01
  opls_803  C803    12.0110     0.000    A    3.55000E-01   2.92880E-01
  opls_808  C808    12.0110     0.000    A    3.50000E-01   2.76144E-01
  opls_817  H817     1.0080     0.000    A    2.50000E-01   1.25520E-01
[ moleculetype ]
; Name               nrexcl
UNK                   3
[ atoms ]
;   nr       type  resnr residue  atom   cgnr     charge       mass  
     1   opls_800      1    UNK   C00      1    -0.2715    12.0110 
     2   opls_801      1    UNK   C01      1     0.1095    12.0110 
     3   opls_802      1    UNK   O02      1    -0.3873    15.9990 
     4   opls_803      1    UNK   C03      1     0.6214    12.0110 
     5   opls_804      1    UNK   O04      1     -0.383    15.9990 
     6   opls_805      1    UNK   O05      1    -0.3673    15.9990 
     7   opls_806      1    UNK   C06      1      0.176    12.0110 
     8   opls_807      1    UNK   C07      1    -0.2681    12.0110 
     9   opls_808      1    UNK   C08      1    -0.2485    12.0110 
    10   opls_809      1    UNK   C09      1    -0.2217    12.0110 
    11   opls_810      1    UNK   C0A      1     0.3701    12.0110 
    12   opls_811      1    UNK   O0B      1    -0.3972    15.9990 
    13   opls_812      1    UNK   C0C      1     0.0241    12.0110 
    14   opls_813      1    UNK   C0D      1    -0.2322    12.0110 
    15   opls_814      1    UNK   C0E      1    -0.2294    12.0110 
    16   opls_815      1    UNK   C0F      1     0.1586    12.0110 
    17   opls_816      1    UNK   N0G      1    -0.3695    14.0070 
    18   opls_817      1    UNK   H0H      1     0.1081     1.0080 
    19   opls_818      1    UNK   H0I      1     0.1081     1.0080 
    20   opls_819      1    UNK   H0J      1     0.1081     1.0080 
    21   opls_820      1    UNK   H0K      1      0.136     1.0080 
    22   opls_821      1    UNK   H0M      1     0.1054     1.0080 
    23   opls_822      1    UNK   H0N      1     0.1054     1.0080 
    24   opls_823      1    UNK   H0O      1     0.1054     1.0080 
    25   opls_824      1    UNK   H0P      1     0.1085     1.0080 
    26   opls_825      1    UNK   H0Q      1     0.1085     1.0080 
    27   opls_826      1    UNK   H0R      1     0.1085     1.0080 
    28   opls_827      1    UNK   H0S      1      0.159     1.0080 
    29   opls_828      1    UNK   H0T      1     0.1105     1.0080 
    30   opls_829      1    UNK   H0U      1     0.1105     1.0080 
    31   opls_830      1    UNK   H0V      1     0.1105     1.0080 
    32   opls_831      1    UNK   H0W      1     0.1078     1.0080 
    33   opls_832      1    UNK   H0X      2     0.1078     1.0080 
    34   opls_833      1    UNK   H0Y      2     0.1078     1.0080 
[ bonds ]
    2     1     1      0.1529 224262.400
    3     2     1      0.1410 267776.000
    4     3     1      0.1327 179075.200
    5     4     1      0.1229 476976.000
    6     4     1      0.1327 179075.200
    7     6     1      0.1410 267776.000
    8     7     1      0.1529 224262.400
    9     7     1      0.1529 224262.400
   10     2     1      0.1529 224262.400
   11    10     1      0.1522 265265.600
   12    11     1      0.1229 476976.000
   13    11     1      0.1522 265265.600
   14    13     1      0.1529 224262.400
   15    13     1      0.1529 224262.400
   16    13     1      0.1470 326352.000
   17    16     1      0.1157 543920.000
   18     1     1      0.1090 284512.000
   19     1     1      0.1090 284512.000
   20     1     1      0.1090 284512.000
   21     2     1      0.1090 284512.000
   22     8     1      0.1090 284512.000
   23     8     1      0.1090 284512.000
   24     8     1      0.1090 284512.000
   25     9     1      0.1090 284512.000
   26     9     1      0.1090 284512.000
   27     9     1      0.1090 284512.000
   28    10     1      0.1090 284512.000
   29    14     1      0.1090 284512.000
   30    14     1      0.1090 284512.000
   31    14     1      0.1090 284512.000
   32    15     1      0.1090 284512.000
   33    15     1      0.1090 284512.000
   34    15     1      0.1090 284512.000
   10     7     1      0.1529 224262.400

[ angles ]
;  ai    aj    ak funct            c0            c1            c2            c3 
    1     2     3     1    109.500    418.400
    2     3     4     1    116.900    694.544
    3     4     5     1    123.400    694.544
    3     4     6     1    118.180    584.923
    4     6     7     1    116.900    694.544
    6     7     8     1    109.500    418.400
    6     7     9     1    109.500    418.400
    1     2    10     1    112.700    488.273
    2    10    11     1    111.100    527.184
   10    11    12     1    120.400    669.440
   10    11    13     1    116.000    585.760
   11    13    14     1    111.100    527.184
   11    13    15     1    111.100    527.184
   11    13    16     1    110.580    432.207
   13    16    17     1    180.000   1255.200
    2     1    18     1    110.700    313.800
    2     1    19     1    110.700    313.800
    2     1    20     1    110.700    313.800
    1     2    21     1    110.700    313.800
    7     8    22     1    110.700    313.800
    7     8    23     1    110.700    313.800
    7     8    24     1    110.700    313.800
    7     9    25     1    110.700    313.800
    7     9    26     1    110.700    313.800
    7     9    27     1    110.700    313.800
    2    10    28     1    110.700    313.800
   13    14    29     1    110.700    313.800
   13    14    30     1    110.700    313.800
   13    14    31     1    110.700    313.800
   13    15    32     1    110.700    313.800
   13    15    33     1    110.700    313.800
   13    15    34     1    110.700    313.800
   19     1    20     1    107.800    276.144
    5     4     6     1    123.400    694.544
   15    13    16     1    112.700    488.273
   10     2    21     1    110.700    313.800
   30    14    31     1    107.800    276.144
    3     2    21     1    109.500    292.880
   25     9    26     1    107.800    276.144
    8     7    10     1    112.700    488.273
    7    10    11     1    111.100    527.184
   32    15    33     1    107.800    276.144
    9     7    10     1    112.700    488.273
   22     8    23     1    107.800    276.144
   26     9    27     1    107.800    276.144
    8     7     9     1    112.700    488.273
    2    10     7     1    112.700    488.273
   14    13    15     1    112.700    488.273
    6     7    10     1    109.500    418.400
   29    14    30     1    107.800    276.144
   22     8    24     1    107.800    276.144
   18     1    19     1    107.800    276.144
   29    14    31     1    107.800    276.144
   33    15    34     1    107.800    276.144
   11    10    28     1    109.500    292.880
   14    13    16     1    112.700    488.273
    7    10    28     1    110.700    313.800
   18     1    20     1    107.800    276.144
   12    11    13     1    120.400    669.440
   23     8    24     1    107.800    276.144
   25     9    27     1    107.800    276.144
   32    15    34     1    107.800    276.144
    3     2    10     1    109.500    418.400

[ dihedrals ]
; IMPROPER DIHEDRAL ANGLES 
;  ai    aj    ak    al funct            c0            c1            c2            c3            c4            c5
    13    11    10    12    4        180.000     43.932     2  
     6     4     3     5    4        180.000     43.932     2  

[ dihedrals ]
; PROPER DIHEDRAL ANGLES
;  ai    aj    ak    al funct            c0            c1            c2            c3            c4            c5
   11   10    7    9        3      -4.960   6.286   1.310  -2.636  -0.000   0.000
   11   10    2    1        3      -4.960   6.286   1.310  -2.636  -0.000   0.000
   11   10    7    8        3      -4.960   6.286   1.310  -2.636  -0.000   0.000
   11   10    2    3        3      -12.929  12.929   0.000  -0.000  -0.000   0.000
   11   10    7    6        3      -12.929  12.929   0.000  -0.000  -0.000   0.000
    4    3    2    1        3      -2.197   5.201   0.527  -3.531  -0.000   0.000
   13   11   10    7        3       0.818  -7.906   0.602   6.485  -0.000   0.000
   13   11   10    2        3       0.818  -7.906   0.602   6.485  -0.000   0.000
   14   13   11   10        3       0.818  -7.906   0.602   6.485  -0.000   0.000
   15   13   11   10        3       0.818  -7.906   0.602   6.485  -0.000   0.000
   15   13   11   12        3       0.000   0.000   0.000  -0.000  -0.000   0.000
   14   13   11   12        3       0.000   0.000   0.000  -0.000  -0.000   0.000
    8    7   10    2        3       2.301  -1.464   0.837  -1.674  -0.000   0.000
    9    7   10    2        3       2.301  -1.464   0.837  -1.674  -0.000   0.000
    7   10    2    1        3       2.301  -1.464   0.837  -1.674  -0.000   0.000
    7   10    2    3        3       2.874   0.582   2.092  -5.548  -0.000   0.000
    9    7    6    4        3      -2.197   5.201   0.527  -3.531  -0.000   0.000
   10    2    3    4        3      -2.197   5.201   0.527  -3.531  -0.000   0.000
   10    7    6    4        3      -2.197   5.201   0.527  -3.531  -0.000   0.000
    8    7    6    4        3      -2.197   5.201   0.527  -3.531  -0.000   0.000
    7    6    4    5        3      21.439   0.000  -21.439  -0.000  -0.000   0.000
    7    6    4    3        3      31.206  -9.768  -21.439  -0.000  -0.000   0.000
   16   13   11   10        3       0.818  -7.906   0.602   6.485  -0.000   0.000
   16   13   11   12        3       0.000   0.000   0.000  -0.000  -0.000   0.000
   28   10   11   13        3       0.575   1.726   0.000  -2.301  -0.000   0.000
   28   10   11   12        3       0.000   0.000   0.000  -0.000  -0.000   0.000
   29   14   13   11        3      -0.209  -0.628   0.000   0.837  -0.000   0.000
   21    2   10   11        3      -0.209  -0.628   0.000   0.837  -0.000   0.000
   34   15   13   11        3      -0.209  -0.628   0.000   0.837  -0.000   0.000
   33   15   13   11        3      -0.209  -0.628   0.000   0.837  -0.000   0.000
   30   14   13   11        3      -0.209  -0.628   0.000   0.837  -0.000   0.000
   31   14   13   11        3      -0.209  -0.628   0.000   0.837  -0.000   0.000
   32   15   13   11        3      -0.209  -0.628   0.000   0.837  -0.000   0.000
   23    8    7   10        3       0.628   1.883   0.000  -2.510  -0.000   0.000
   24    8    7    9        3       0.628   1.883   0.000  -2.510  -0.000   0.000
   25    9    7    8        3       0.628   1.883   0.000  -2.510  -0.000   0.000
   32   15   13   14        3       0.628   1.883   0.000  -2.510  -0.000   0.000
   31   14   13   15        3       0.628   1.883   0.000  -2.510  -0.000   0.000
   22    8    7    9        3       0.628   1.883   0.000  -2.510  -0.000   0.000
   33   15   13   14        3       0.628   1.883   0.000  -2.510  -0.000   0.000
   28   10    7    9        3       0.628   1.883   0.000  -2.510  -0.000   0.000
   28   10    2    1        3       0.628   1.883   0.000  -2.510  -0.000   0.000
   22    8    7   10        3       0.628   1.883   0.000  -2.510  -0.000   0.000
   23    8    7    9        3       0.628   1.883   0.000  -2.510  -0.000   0.000
   27    9    7    8        3       0.628   1.883   0.000  -2.510  -0.000   0.000
   25    9    7   10        3       0.628   1.883   0.000  -2.510  -0.000   0.000
   30   14   13   15        3       0.628   1.883   0.000  -2.510  -0.000   0.000
   24    8    7   10        3       0.628   1.883   0.000  -2.510  -0.000   0.000
   18    1    2   10        3       0.628   1.883   0.000  -2.510  -0.000   0.000
   19    1    2   10        3       0.628   1.883   0.000  -2.510  -0.000   0.000
   21    2   10    7        3       0.628   1.883   0.000  -2.510  -0.000   0.000
   27    9    7   10        3       0.628   1.883   0.000  -2.510  -0.000   0.000
   34   15   13   14        3       0.628   1.883   0.000  -2.510  -0.000   0.000
   26    9    7    8        3       0.628   1.883   0.000  -2.510  -0.000   0.000
   20    1    2   10        3       0.628   1.883   0.000  -2.510  -0.000   0.000
   28   10    7    8        3       0.628   1.883   0.000  -2.510  -0.000   0.000
   26    9    7   10        3       0.628   1.883   0.000  -2.510  -0.000   0.000
   29   14   13   15        3       0.628   1.883   0.000  -2.510  -0.000   0.000
   30   14   13   16        3       0.766   2.297   0.000  -3.063  -0.000   0.000
   34   15   13   16        3       0.766   2.297   0.000  -3.063  -0.000   0.000
   29   14   13   16        3       0.766   2.297   0.000  -3.063  -0.000   0.000
   33   15   13   16        3       0.766   2.297   0.000  -3.063  -0.000   0.000
   31   14   13   16        3       0.766   2.297   0.000  -3.063  -0.000   0.000
   32   15   13   16        3       0.766   2.297   0.000  -3.063  -0.000   0.000
   21    2    1   19        3       0.628   1.883   0.000  -2.510  -0.000   0.000
   28   10    2   21        3       0.628   1.883   0.000  -2.510  -0.000   0.000
   21    2    1   18        3       0.628   1.883   0.000  -2.510  -0.000   0.000
   21    2    1   20        3       0.628   1.883   0.000  -2.510  -0.000   0.000
   20    1    2    3        3       0.979   2.937   0.000  -3.916  -0.000   0.000
   28   10    7    6        3       0.979   2.937   0.000  -3.916  -0.000   0.000
   26    9    7    6        3       0.979   2.937   0.000  -3.916  -0.000   0.000
   23    8    7    6        3       0.979   2.937   0.000  -3.916  -0.000   0.000
   28   10    2    3        3       0.979   2.937   0.000  -3.916  -0.000   0.000
   24    8    7    6        3       0.979   2.937   0.000  -3.916  -0.000   0.000
   19    1    2    3        3       0.979   2.937   0.000  -3.916  -0.000   0.000
   25    9    7    6        3       0.979   2.937   0.000  -3.916  -0.000   0.000
   22    8    7    6        3       0.979   2.937   0.000  -3.916  -0.000   0.000
   18    1    2    3        3       0.979   2.937   0.000  -3.916  -0.000   0.000
   27    9    7    6        3       0.979   2.937   0.000  -3.916  -0.000   0.000
   21    2    3    4        3       0.414   1.243   0.000  -1.657  -0.000   0.000
   17   16   13   11        3       0.000   0.000   0.000  -0.000  -0.000   0.000
   17   16   13   14        3       0.000   0.000   0.000  -0.000  -0.000   0.000
   17   16   13   15        3       0.000   0.000   0.000  -0.000  -0.000   0.000
   12   11   10    2        3       0.000   0.000   0.000  -0.000  -0.000   0.000
   12   11   10    7        3       0.000   0.000   0.000  -0.000  -0.000   0.000
    5    4    3    2        3      21.439   0.000  -21.439  -0.000  -0.000   0.000
    6    4    3    2        3      31.206  -9.768  -21.439  -0.000  -0.000   0.000
    6    7   10    2        3       2.874   0.582   2.092  -5.548  -0.000   0.000

[ pairs ]
     1     4    1
     2     5    1
     2     6    1
     1     7    1
     3     7    1
     2     8    1
     2     9    1
     5     7    1
     4     8    1
     1    11    1
     4     9    1
     4    10    1
     3    11    1
     2    12    1
     2    13    1
     6    11    1
     8    11    1
     7    12    1
     9    11    1
     7    13    1
     3    18    1
     3    19    1
     3    20    1
    10    14    1
    10    15    1
     4    21    1
    12    14    1
    10    16    1
    12    15    1
    12    16    1
    11    17    1
    10    18    1
     7    21    1
     6    22    1
    10    19    1
     6    23    1
     1    28    1
    10    20    1
     6    24    1
    14    17    1
     9    22    1
     6    25    1
     3    28    1
    15    17    1
    11    21    1
    10    22    1
     9    23    1
     6    26    1
    10    23    1
     9    24    1
     8    25    1
     6    27    1
    10    24    1
     8    26    1
     6    28    1
    10    25    1
     8    27    1
    10    26    1
     8    28    1
    10    27    1
     9    28    1
    18    21    1
    19    21    1
    12    28    1
    11    29    1
    20    21    1
    13    28    1
    11    30    1
    11    31    1
    11    32    1
    15    29    1
    11    33    1
    16    29    1
    15    30    1
    11    34    1
    16    30    1
    15    31    1
    14    32    1
    16    31    1
    14    33    1
    16    32    1
    14    34    1
    21    28    1
    16    33    1
    16    34    1

