LIGPARGEN GENERATED GRO FILE
   34
    1UNK    C00    1   0.100   0.100   0.000
    1UNK    C01    2  -0.053   0.100   0.000
    1UNK    O02    3  -0.096   0.100   0.137
    1UNK    C03    4  -0.143   0.209   0.205
    1UNK    O04    5  -0.162   0.204   0.325
    1UNK    O05    6  -0.166   0.321   0.132
    1UNK    C06    7  -0.113   0.343   0.001
    1UNK    C07    8   0.028   0.403   0.020
    1UNK    C08    9  -0.196   0.453  -0.068
    1UNK    C09   10  -0.119   0.211  -0.081
    1UNK    C0A   11  -0.264   0.163  -0.110
    1UNK    O0B   12  -0.356   0.189  -0.031
    1UNK    C0C   13  -0.296   0.076  -0.234
    1UNK    C0D   14  -0.362  -0.055  -0.188
    1UNK    C0E   15  -0.395   0.154  -0.323
    1UNK    C0F   16  -0.176   0.044  -0.311
    1UNK    N0G   17  -0.078   0.021  -0.369
    1UNK    H0H   18   0.136  -0.001   0.020
    1UNK    H0I   19   0.142   0.161   0.081
    1UNK    H0J   20   0.142   0.132  -0.096
    1UNK    H0K   21  -0.083   0.003  -0.041
    1UNK    H0M   22   0.021   0.507   0.055
    1UNK    H0N   23   0.086   0.403  -0.072
    1UNK    H0O   24   0.084   0.352   0.099
    1UNK    H0P   25  -0.196   0.544  -0.007
    1UNK    H0Q   26  -0.301   0.425  -0.079
    1UNK    H0R   27  -0.155   0.477  -0.167
    1UNK    H0S   28  -0.069   0.226  -0.177
    1UNK    H0T   29  -0.453  -0.036  -0.130
    1UNK    H0U   30  -0.294  -0.113  -0.124
    1UNK    H0V   31  -0.390  -0.118  -0.273
    1UNK    H0W   32  -0.495   0.158  -0.277
    1UNK    H0X   33  -0.406   0.107  -0.421
    1UNK    H0Y   34  -0.362   0.257  -0.339
   1.00000   1.00000   1.00000

