LIGPARGEN GENERATED GRO FILE
   27
    1UNK    C00    1   0.100   0.100   0.000
    1UNK    C01    2  -0.052   0.100   0.000
    1UNK    C02    3  -0.109   0.100   0.141
    1UNK    O03    4  -0.055   0.164   0.232
    1UNK    C04    5  -0.240   0.023   0.164
    1UNK    C05    6  -0.238  -0.036   0.306
    1UNK    C06    7  -0.367   0.107   0.136
    1UNK    C07    8  -0.378   0.232   0.227
    1UNK    C08    9  -0.507   0.313   0.212
    1UNK    S09   10  -0.383   0.160  -0.041
    1UNK    C0A   11  -0.390   0.009  -0.115
    1UNK    N0B   12  -0.390  -0.097  -0.164
    1UNK    H0C   13   0.138   0.093  -0.103
    1UNK    H0D   14   0.139   0.015   0.057
    1UNK    H0E   15   0.139   0.192   0.045
    1UNK    H0F   16  -0.086   0.011  -0.053
    1UNK    H0G   17  -0.089   0.189  -0.052
    1UNK    H0H   18  -0.238  -0.064   0.097
    1UNK    H0I   19  -0.231   0.041   0.383
    1UNK    H0J   20  -0.152  -0.102   0.319
    1UNK    H0K   21  -0.329  -0.094   0.325
    1UNK    H0M   22  -0.454   0.044   0.157
    1UNK    H0N   23  -0.293   0.299   0.211
    1UNK    H0O   24  -0.374   0.200   0.332
    1UNK    H0P   25  -0.520   0.352   0.111
    1UNK    H0Q   26  -0.504   0.399   0.280
    1UNK    H0R   27  -0.595   0.252   0.237
   1.00000   1.00000   1.00000

