
;
; GENERATED BY LigParGen Server
; Jorgensen Lab @ Yale University 
;
[ atomtypes ]
  opls_818  H818     1.0080     0.000    A    2.50000E-01   1.25520E-01
  opls_824  H824     1.0080     0.000    A    2.50000E-01   1.25520E-01
  opls_805  C805    12.0110     0.000    A    3.50000E-01   2.76144E-01
  opls_813  H813     1.0080     0.000    A    2.50000E-01   1.25520E-01
  opls_803  O803    15.9990     0.000    A    2.96000E-01   8.78640E-01
  opls_806  C806    12.0110     0.000    A    3.50000E-01   2.76144E-01
  opls_815  H815     1.0080     0.000    A    2.50000E-01   1.25520E-01
  opls_801  C801    12.0110     0.000    A    3.50000E-01   2.76144E-01
  opls_822  H822     1.0080     0.000    A    2.50000E-01   1.25520E-01
  opls_807  C807    12.0110     0.000    A    3.50000E-01   2.76144E-01
  opls_825  H825     1.0080     0.000    A    2.50000E-01   1.25520E-01
  opls_814  H814     1.0080     0.000    A    2.50000E-01   1.25520E-01
  opls_821  H821     1.0080     0.000    A    2.50000E-01   1.25520E-01
  opls_811  N811    14.0070     0.000    A    3.20000E-01   7.11280E-01
  opls_820  H820     1.0080     0.000    A    2.50000E-01   1.25520E-01
  opls_816  H816     1.0080     0.000    A    2.50000E-01   1.25520E-01
  opls_800  C800    12.0110     0.000    A    3.50000E-01   2.76144E-01
  opls_810  C810    12.0110     0.000    A    3.30000E-01   2.76144E-01
  opls_823  H823     1.0080     0.000    A    2.50000E-01   1.25520E-01
  opls_802  C802    12.0110     0.000    A    3.55000E-01   2.92880E-01
  opls_826  H826     1.0080     0.000    A    2.50000E-01   1.25520E-01
  opls_819  H819     1.0080     0.000    A    2.50000E-01   1.25520E-01
  opls_804  C804    12.0110     0.000    A    3.50000E-01   2.76144E-01
  opls_808  C808    12.0110     0.000    A    3.50000E-01   2.76144E-01
  opls_817  H817     1.0080     0.000    A    2.50000E-01   1.25520E-01
  opls_812  H812     1.0080     0.000    A    2.50000E-01   1.25520E-01
  opls_809  S809    32.0600     0.000    A    3.60000E-01   1.48532E+00
[ moleculetype ]
; Name               nrexcl
UNK                   3
[ atoms ]
;   nr       type  resnr residue  atom   cgnr     charge       mass  
     1   opls_800      1    UNK   C00      1    -0.2325    12.0110 
     2   opls_801      1    UNK   C01      1    -0.2309    12.0110 
     3   opls_802      1    UNK   C02      1     0.3711    12.0110 
     4   opls_803      1    UNK   O03      1    -0.4398    15.9990 
     5   opls_804      1    UNK   C04      1    -0.1659    12.0110 
     6   opls_805      1    UNK   C05      1    -0.2323    12.0110 
     7   opls_806      1    UNK   C06      1     0.0181    12.0110 
     8   opls_807      1    UNK   C07      1     -0.169    12.0110 
     9   opls_808      1    UNK   C08      1    -0.2454    12.0110 
    10   opls_809      1    UNK   S09      1    -0.0508    32.0600 
    11   opls_810      1    UNK   C0A      1     0.0803    12.0110 
    12   opls_811      1    UNK   N0B      1    -0.2935    14.0070 
    13   opls_812      1    UNK   H0C      1     0.0929     1.0080 
    14   opls_813      1    UNK   H0D      1     0.0929     1.0080 
    15   opls_814      1    UNK   H0E      1     0.0929     1.0080 
    16   opls_815      1    UNK   H0F      1     0.1245     1.0080 
    17   opls_816      1    UNK   H0G      1     0.1245     1.0080 
    18   opls_817      1    UNK   H0H      1     0.1234     1.0080 
    19   opls_818      1    UNK   H0I      1     0.0977     1.0080 
    20   opls_819      1    UNK   H0J      1     0.0977     1.0080 
    21   opls_820      1    UNK   H0K      1     0.0977     1.0080 
    22   opls_821      1    UNK   H0M      1     0.1375     1.0080 
    23   opls_822      1    UNK   H0N      1     0.1165     1.0080 
    24   opls_823      1    UNK   H0O      1     0.1165     1.0080 
    25   opls_824      1    UNK   H0P      1      0.092     1.0080 
    26   opls_825      1    UNK   H0Q      1      0.092     1.0080 
    27   opls_826      1    UNK   H0R      1      0.092     1.0080 
[ bonds ]
    2     1     1      0.1529 224262.400
    3     2     1      0.1522 265265.600
    4     3     1      0.1229 476976.000
    5     3     1      0.1522 265265.600
    6     5     1      0.1529 224262.400
    7     5     1      0.1529 224262.400
    8     7     1      0.1529 224262.400
    9     8     1      0.1529 224262.400
   10     7     1      0.1810 185769.600
   11    10     1      0.1685 251040.000
   12    11     1      0.1157 543920.000
   13     1     1      0.1090 284512.000
   14     1     1      0.1090 284512.000
   15     1     1      0.1090 284512.000
   16     2     1      0.1090 284512.000
   17     2     1      0.1090 284512.000
   18     5     1      0.1090 284512.000
   19     6     1      0.1090 284512.000
   20     6     1      0.1090 284512.000
   21     6     1      0.1090 284512.000
   22     7     1      0.1090 284512.000
   23     8     1      0.1090 284512.000
   24     8     1      0.1090 284512.000
   25     9     1      0.1090 284512.000
   26     9     1      0.1090 284512.000
   27     9     1      0.1090 284512.000

[ angles ]
;  ai    aj    ak funct            c0            c1            c2            c3 
    1     2     3     1    111.100    527.184
    2     3     4     1    120.400    669.440
    2     3     5     1    116.000    585.760
    3     5     6     1    111.100    527.184
    3     5     7     1    111.100    527.184
    5     7     8     1    112.700    488.273
    7     8     9     1    112.700    488.273
    5     7    10     1    114.700    418.400
    7    10    11     1    100.000    543.920
   10    11    12     1    156.000    924.413
    2     1    13     1    110.700    313.800
    2     1    14     1    110.700    313.800
    2     1    15     1    110.700    313.800
    1     2    16     1    110.700    313.800
    1     2    17     1    110.700    313.800
    3     5    18     1    109.500    292.880
    5     6    19     1    110.700    313.800
    5     6    20     1    110.700    313.800
    5     6    21     1    110.700    313.800
    5     7    22     1    110.700    313.800
    7     8    23     1    110.700    313.800
    7     8    24     1    110.700    313.800
    8     9    25     1    110.700    313.800
    8     9    26     1    110.700    313.800
    8     9    27     1    110.700    313.800
   26     9    27     1    107.800    276.144
   25     9    26     1    107.800    276.144
   13     1    14     1    107.800    276.144
   23     8    24     1    107.800    276.144
   20     6    21     1    107.800    276.144
    8     7    10     1    114.700    418.400
    3     2    17     1    109.500    292.880
    9     8    23     1    110.700    313.800
   10     7    22     1    109.500    292.880
    3     2    16     1    109.500    292.880
   19     6    21     1    107.800    276.144
    4     3     5     1    120.400    669.440
   16     2    17     1    107.800    276.144
    6     5     7     1    112.700    488.273
   14     1    15     1    107.800    276.144
    8     7    22     1    110.700    313.800
   19     6    20     1    107.800    276.144
   25     9    27     1    107.800    276.144
    7     5    18     1    110.700    313.800
   13     1    15     1    107.800    276.144
    9     8    24     1    110.700    313.800
    6     5    18     1    110.700    313.800

[ dihedrals ]
; IMPROPER DIHEDRAL ANGLES 
;  ai    aj    ak    al funct            c0            c1            c2            c3            c4            c5
     5     3     2     4    4        180.000     43.932     2  

[ dihedrals ]
; PROPER DIHEDRAL ANGLES
;  ai    aj    ak    al funct            c0            c1            c2            c3            c4            c5
    5    3    2    1        3       0.818  -7.906   0.602   6.485  -0.000   0.000
    6    5    3    2        3       0.818  -7.906   0.602   6.485  -0.000   0.000
    7    5    3    2        3       0.818  -7.906   0.602   6.485  -0.000   0.000
    7    5    3    4        3       0.000   0.000   0.000  -0.000  -0.000   0.000
    6    5    3    4        3       0.000   0.000   0.000  -0.000  -0.000   0.000
    8    7    5    3        3      -4.960   6.286   1.310  -2.636  -0.000   0.000
    9    8    7    5        3       2.301  -1.464   0.837  -1.674  -0.000   0.000
    8    7    5    6        3       2.301  -1.464   0.837  -1.674  -0.000   0.000
   11   10    7    5        3       0.941   2.314   2.410  -5.665  -0.000   0.000
   11   10    7    8        3       0.941   2.314   2.410  -5.665  -0.000   0.000
   17    2    3    5        3       0.575   1.726   0.000  -2.301  -0.000   0.000
   18    5    3    2        3       0.575   1.726   0.000  -2.301  -0.000   0.000
   16    2    3    5        3       0.575   1.726   0.000  -2.301  -0.000   0.000
   17    2    3    4        3       0.000   0.000   0.000  -0.000  -0.000   0.000
   18    5    3    4        3       0.000   0.000   0.000  -0.000  -0.000   0.000
   16    2    3    4        3       0.000   0.000   0.000  -0.000  -0.000   0.000
   21    6    5    3        3      -0.209  -0.628   0.000   0.837  -0.000   0.000
   20    6    5    3        3      -0.209  -0.628   0.000   0.837  -0.000   0.000
   14    1    2    3        3      -0.209  -0.628   0.000   0.837  -0.000   0.000
   22    7    5    3        3      -0.209  -0.628   0.000   0.837  -0.000   0.000
   13    1    2    3        3      -0.209  -0.628   0.000   0.837  -0.000   0.000
   15    1    2    3        3      -0.209  -0.628   0.000   0.837  -0.000   0.000
   19    6    5    3        3      -0.209  -0.628   0.000   0.837  -0.000   0.000
   24    8    7    5        3       0.628   1.883   0.000  -2.510  -0.000   0.000
   20    6    5    7        3       0.628   1.883   0.000  -2.510  -0.000   0.000
   19    6    5    7        3       0.628   1.883   0.000  -2.510  -0.000   0.000
   21    6    5    7        3       0.628   1.883   0.000  -2.510  -0.000   0.000
   22    7    8    9        3       0.628   1.883   0.000  -2.510  -0.000   0.000
   26    9    8    7        3       0.628   1.883   0.000  -2.510  -0.000   0.000
   22    7    5    6        3       0.628   1.883   0.000  -2.510  -0.000   0.000
   23    8    7    5        3       0.628   1.883   0.000  -2.510  -0.000   0.000
   18    5    7    8        3       0.628   1.883   0.000  -2.510  -0.000   0.000
   25    9    8    7        3       0.628   1.883   0.000  -2.510  -0.000   0.000
   27    9    8    7        3       0.628   1.883   0.000  -2.510  -0.000   0.000
   19    6    5   18        3       0.628   1.883   0.000  -2.510  -0.000   0.000
   20    6    5   18        3       0.628   1.883   0.000  -2.510  -0.000   0.000
   17    2    1   13        3       0.628   1.883   0.000  -2.510  -0.000   0.000
   26    9    8   24        3       0.628   1.883   0.000  -2.510  -0.000   0.000
   25    9    8   23        3       0.628   1.883   0.000  -2.510  -0.000   0.000
   27    9    8   23        3       0.628   1.883   0.000  -2.510  -0.000   0.000
   24    8    7   22        3       0.628   1.883   0.000  -2.510  -0.000   0.000
   26    9    8   23        3       0.628   1.883   0.000  -2.510  -0.000   0.000
   16    2    1   13        3       0.628   1.883   0.000  -2.510  -0.000   0.000
   16    2    1   14        3       0.628   1.883   0.000  -2.510  -0.000   0.000
   22    7    5   18        3       0.628   1.883   0.000  -2.510  -0.000   0.000
   23    8    7   22        3       0.628   1.883   0.000  -2.510  -0.000   0.000
   17    2    1   15        3       0.628   1.883   0.000  -2.510  -0.000   0.000
   21    6    5   18        3       0.628   1.883   0.000  -2.510  -0.000   0.000
   16    2    1   15        3       0.628   1.883   0.000  -2.510  -0.000   0.000
   25    9    8   24        3       0.628   1.883   0.000  -2.510  -0.000   0.000
   27    9    8   24        3       0.628   1.883   0.000  -2.510  -0.000   0.000
   17    2    1   14        3       0.628   1.883   0.000  -2.510  -0.000   0.000
   24    8    7   10        3       0.946   2.837   0.000  -3.782  -0.000   0.000
   18    5    7   10        3       0.946   2.837   0.000  -3.782  -0.000   0.000
   23    8    7   10        3       0.946   2.837   0.000  -3.782  -0.000   0.000
   22    7   10   11        3       1.354   4.061   0.000  -5.414  -0.000   0.000
   12   11   10    7        3      24.686  -3.347  -21.338  -0.000  -0.000   0.000
    4    3    2    1        3       0.000   0.000   0.000  -0.000  -0.000   0.000
   10    7    5    3        3      -16.259   9.088   7.171  -0.000  -0.000   0.000
   10    7    5    6        3       3.425  -3.860   2.594  -2.159  -0.000   0.000
   10    7    8    9        3       3.425  -3.860   2.594  -2.159  -0.000   0.000

[ pairs ]
     1     4    1
     1     5    1
     2     6    1
     2     7    1
     4     6    1
     4     7    1
     3     8    1
     3    10    1
     6     8    1
     5     9    1
     6    10    1
     5    11    1
     3    13    1
     3    14    1
     3    15    1
     9    10    1
     8    11    1
     7    12    1
     4    16    1
     2    18    1
     5    16    1
     4    17    1
     5    17    1
     4    18    1
     3    19    1
     3    20    1
     3    21    1
     3    22    1
     8    18    1
     7    19    1
     7    20    1
    10    18    1
     7    21    1
     6    22    1
     5    23    1
    13    16    1
     5    24    1
    14    16    1
    13    17    1
    15    16    1
    14    17    1
     9    22    1
    15    17    1
     7    25    1
    11    22    1
    10    23    1
     7    26    1
    10    24    1
     7    27    1
    18    19    1
    18    20    1
    18    21    1
    18    22    1
    22    23    1
    22    24    1
    23    25    1
    24    25    1
    23    26    1
    24    26    1
    23    27    1
    24    27    1

