LIGPARGEN GENERATED GRO FILE
   42
    1UNK    C00    1   0.100   0.100   0.000
    1UNK    C01    2  -0.052   0.100   0.000
    1UNK    C02    3  -0.125   0.100   0.138
    1UNK    C03    4  -0.100   0.229   0.226
    1UNK    C04    5   0.045   0.245   0.276
    1UNK    C05    6  -0.146   0.360   0.161
    1UNK    C06    7  -0.281   0.056   0.129
    1UNK    C07    8  -0.341   0.060   0.274
    1UNK    C08    9  -0.379   0.138   0.037
    1UNK    C09   10  -0.330   0.182  -0.101
    1UNK    C0A   11  -0.498   0.043   0.017
    1UNK    C0B   12  -0.436  -0.095   0.002
    1UNK    C0C   13  -0.299  -0.091   0.072
    1UNK    C0D   14  -0.284  -0.205   0.173
    1UNK    H0E   15   0.136   0.059  -0.095
    1UNK    H0F   16   0.142   0.039   0.081
    1UNK    H0G   17   0.139   0.202   0.005
    1UNK    H0H   18  -0.080   0.011  -0.056
    1UNK    H0I   19  -0.082   0.185  -0.060
    1UNK    H0J   20  -0.078   0.018   0.194
    1UNK    H0K   21  -0.156   0.218   0.319
    1UNK    H0M   22   0.116   0.264   0.196
    1UNK    H0N   23   0.077   0.156   0.332
    1UNK    H0O   24   0.052   0.331   0.343
    1UNK    H0P   25  -0.103   0.374   0.062
    1UNK    H0Q   26  -0.117   0.446   0.222
    1UNK    H0R   27  -0.255   0.363   0.153
    1UNK    H0S   28  -0.358   0.163   0.307
    1UNK    H0T   29  -0.275   0.011   0.346
    1UNK    H0U   30  -0.439   0.011   0.280
    1UNK    H0V   31  -0.415   0.228   0.089
    1UNK    H0W   32  -0.281   0.101  -0.156
    1UNK    H0X   33  -0.262   0.268  -0.093
    1UNK    H0Y   34  -0.414   0.217  -0.162
    1UNK    H0Z   35  -0.560   0.069  -0.069
    1UNK    H10   36  -0.564   0.046   0.104
    1UNK    H11   37  -0.421  -0.117  -0.104
    1UNK    H12   38  -0.503  -0.172   0.042
    1UNK    H13   39  -0.225  -0.110  -0.006
    1UNK    H14   40  -0.365  -0.207   0.246
    1UNK    H15   41  -0.189  -0.199   0.226
    1UNK    H16   42  -0.287  -0.301   0.120
   1.00000   1.00000   1.00000

