LIGPARGEN GENERATED GRO FILE
   55
    1UNK    C00    1   0.100   0.100   0.000
    1UNK    C01    2  -0.052   0.100   0.000
    1UNK    C02    3  -0.107   0.100   0.143
    1UNK    C03    4  -0.261   0.113   0.150
    1UNK    C04    5  -0.336   0.003   0.070
    1UNK    C05    6  -0.318  -0.140   0.117
    1UNK    C06    7  -0.310   0.118   0.297
    1UNK    C07    8  -0.255   0.234   0.384
    1UNK    C08    9  -0.300   0.371   0.330
    1UNK    C09   10  -0.303   0.222   0.532
    1UNK    C0A   11  -0.258   0.096   0.607
    1UNK    C0B   12  -0.105   0.094   0.624
    1UNK    C0C   13  -0.334   0.064   0.740
    1UNK    C0D   14  -0.314   0.161   0.858
    1UNK    C0E   15  -0.417   0.273   0.870
    1UNK    C0F   16  -0.563   0.229   0.852
    1UNK    C0G   17  -0.611   0.151   0.967
    1UNK    N0H   18  -0.653   0.088   1.055
    1UNK    C0I   19  -0.579   0.147   0.723
    1UNK    C0J   20  -0.482   0.029   0.716
    1UNK    H0K   21   0.138   0.100  -0.103
    1UNK    H0M   22   0.139   0.011   0.051
    1UNK    H0N   23   0.139   0.189   0.050
    1UNK    H0O   24  -0.087   0.012  -0.055
    1UNK    H0P   25  -0.088   0.189  -0.054
    1UNK    H0Q   26  -0.062   0.185   0.195
    1UNK    H0R   27  -0.075   0.010   0.195
    1UNK    H0S   28  -0.289   0.208   0.102
    1UNK    H0T   29  -0.307   0.009  -0.035
    1UNK    H0U   30  -0.444   0.026   0.071
    1UNK    H0V   31  -0.212  -0.166   0.132
    1UNK    H0W   32  -0.358  -0.209   0.042
    1UNK    H0X   33  -0.372  -0.159   0.210
    1UNK    H0Y   34  -0.282   0.022   0.343
    1UNK    H0Z   35  -0.419   0.122   0.298
    1UNK    H10   36  -0.146   0.232   0.384
    1UNK    H11   37  -0.408   0.383   0.340
    1UNK    H12   38  -0.274   0.384   0.225
    1UNK    H13   39  -0.252   0.452   0.386
    1UNK    H14   40  -0.412   0.226   0.527
    1UNK    H15   41  -0.271   0.311   0.588
    1UNK    H16   42  -0.281   0.009   0.544
    1UNK    H17   43  -0.062   0.194   0.626
    1UNK    H18   44  -0.060   0.040   0.541
    1UNK    H19   45  -0.075   0.043   0.716
    1UNK    H1A   46  -0.288  -0.030   0.773
    1UNK    H1B   47  -0.213   0.204   0.857
    1UNK    H1C   48  -0.320   0.101   0.950
    1UNK    H1D   49  -0.394   0.350   0.796
    1UNK    H1E   50  -0.406   0.321   0.968
    1UNK    H1F   51  -0.625   0.318   0.843
    1UNK    H1G   52  -0.566   0.214   0.639
    1UNK    H1H   53  -0.681   0.109   0.714
    1UNK    H1I   54  -0.494  -0.022   0.620
    1UNK    H1J   55  -0.512  -0.044   0.792
   1.00000   1.00000   1.00000

