
;
; GENERATED BY LigParGen Server
; Jorgensen Lab @ Yale University 
;
[ atomtypes ]
  opls_814  C814    12.0110     0.000    A    3.50000E-01   2.76144E-01
  opls_824  H824     1.0080     0.000    A    2.50000E-01   1.25520E-01
  opls_815  C815    12.0110     0.000    A    3.50000E-01   2.76144E-01
  opls_805  C805    12.0110     0.000    A    3.50000E-01   2.76144E-01
  opls_818  C818    12.0110     0.000    A    3.50000E-01   2.76144E-01
  opls_843  H843     1.0080     0.000    A    2.50000E-01   1.25520E-01
  opls_836  H836     1.0080     0.000    A    2.50000E-01   1.25520E-01
  opls_834  H834     1.0080     0.000    A    2.50000E-01   1.25520E-01
  opls_810  C810    12.0110     0.000    A    3.50000E-01   2.76144E-01
  opls_828  H828     1.0080     0.000    A    2.50000E-01   1.25520E-01
  opls_851  H851     1.0080     0.000    A    2.50000E-01   1.25520E-01
  opls_812  C812    12.0110     0.000    A    3.50000E-01   2.76144E-01
  opls_802  C802    12.0110     0.000    A    3.50000E-01   2.76144E-01
  opls_827  H827     1.0080     0.000    A    2.50000E-01   1.25520E-01
  opls_809  C809    12.0110     0.000    A    3.50000E-01   2.76144E-01
  opls_806  C806    12.0110     0.000    A    3.50000E-01   2.76144E-01
  opls_822  H822     1.0080     0.000    A    2.50000E-01   1.25520E-01
  opls_803  C803    12.0110     0.000    A    3.50000E-01   2.76144E-01
  opls_838  H838     1.0080     0.000    A    2.50000E-01   1.25520E-01
  opls_830  H830     1.0080     0.000    A    2.50000E-01   1.25520E-01
  opls_821  H821     1.0080     0.000    A    2.50000E-01   1.25520E-01
  opls_842  H842     1.0080     0.000    A    2.50000E-01   1.25520E-01
  opls_820  H820     1.0080     0.000    A    2.50000E-01   1.25520E-01
  opls_837  H837     1.0080     0.000    A    2.50000E-01   1.25520E-01
  opls_829  H829     1.0080     0.000    A    2.50000E-01   1.25520E-01
  opls_831  H831     1.0080     0.000    A    2.50000E-01   1.25520E-01
  opls_853  H853     1.0080     0.000    A    2.50000E-01   1.25520E-01
  opls_832  H832     1.0080     0.000    A    2.50000E-01   1.25520E-01
  opls_800  C800    12.0110     0.000    A    3.50000E-01   2.76144E-01
  opls_846  H846     1.0080     0.000    A    2.50000E-01   1.25520E-01
  opls_848  H848     1.0080     0.000    A    2.50000E-01   1.25520E-01
  opls_816  C816    12.0110     0.000    A    3.30000E-01   2.76144E-01
  opls_811  C811    12.0110     0.000    A    3.50000E-01   2.76144E-01
  opls_823  H823     1.0080     0.000    A    2.50000E-01   1.25520E-01
  opls_819  C819    12.0110     0.000    A    3.50000E-01   2.76144E-01
  opls_826  H826     1.0080     0.000    A    2.50000E-01   1.25520E-01
  opls_835  H835     1.0080     0.000    A    2.50000E-01   1.25520E-01
  opls_841  H841     1.0080     0.000    A    2.50000E-01   1.25520E-01
  opls_825  H825     1.0080     0.000    A    2.50000E-01   1.25520E-01
  opls_804  C804    12.0110     0.000    A    3.50000E-01   2.76144E-01
  opls_833  H833     1.0080     0.000    A    2.50000E-01   1.25520E-01
  opls_839  H839     1.0080     0.000    A    2.50000E-01   1.25520E-01
  opls_852  H852     1.0080     0.000    A    2.50000E-01   1.25520E-01
  opls_801  C801    12.0110     0.000    A    3.50000E-01   2.76144E-01
  opls_808  C808    12.0110     0.000    A    3.50000E-01   2.76144E-01
  opls_850  H850     1.0080     0.000    A    2.50000E-01   1.25520E-01
  opls_840  H840     1.0080     0.000    A    2.50000E-01   1.25520E-01
  opls_849  H849     1.0080     0.000    A    2.50000E-01   1.25520E-01
  opls_813  C813    12.0110     0.000    A    3.50000E-01   2.76144E-01
  opls_847  H847     1.0080     0.000    A    2.50000E-01   1.25520E-01
  opls_817  N817    14.0070     0.000    A    3.20000E-01   7.11280E-01
  opls_844  H844     1.0080     0.000    A    2.50000E-01   1.25520E-01
  opls_845  H845     1.0080     0.000    A    2.50000E-01   1.25520E-01
  opls_854  H854     1.0080     0.000    A    2.50000E-01   1.25520E-01
  opls_807  C807    12.0110     0.000    A    3.50000E-01   2.76144E-01
[ moleculetype ]
; Name               nrexcl
UNK                   3
[ atoms ]
;   nr       type  resnr residue  atom   cgnr     charge       mass  
     1   opls_800      1    UNK   C00      1    -0.2396    12.0110 
     2   opls_801      1    UNK   C01      1    -0.1796    12.0110 
     3   opls_802      1    UNK   C02      1    -0.1724    12.0110 
     4   opls_803      1    UNK   C03      1    -0.1075    12.0110 
     5   opls_804      1    UNK   C04      1    -0.1724    12.0110 
     6   opls_805      1    UNK   C05      1    -0.2361    12.0110 
     7   opls_806      1    UNK   C06      1    -0.1687    12.0110 
     8   opls_807      1    UNK   C07      1    -0.1139    12.0110 
     9   opls_808      1    UNK   C08      1    -0.2369    12.0110 
    10   opls_809      1    UNK   C09      1    -0.1675    12.0110 
    11   opls_810      1    UNK   C0A      1     -0.108    12.0110 
    12   opls_811      1    UNK   C0B      1    -0.2365    12.0110 
    13   opls_812      1    UNK   C0C      1    -0.1015    12.0110 
    14   opls_813      1    UNK   C0D      1    -0.1664    12.0110 
    15   opls_814      1    UNK   C0E      1    -0.1655    12.0110 
    16   opls_815      1    UNK   C0F      1     0.0006    12.0110 
    17   opls_816      1    UNK   C0G      1     0.1648    12.0110 
    18   opls_817      1    UNK   N0H      1    -0.3964    14.0070 
    19   opls_818      1    UNK   C0I      1    -0.1686    12.0110 
    20   opls_819      1    UNK   C0J      1    -0.1712    12.0110 
    21   opls_820      1    UNK   H0K      1     0.0806     1.0080 
    22   opls_821      1    UNK   H0M      1     0.0806     1.0080 
    23   opls_822      1    UNK   H0N      1     0.0806     1.0080 
    24   opls_823      1    UNK   H0O      1      0.089     1.0080 
    25   opls_824      1    UNK   H0P      1      0.089     1.0080 
    26   opls_825      1    UNK   H0Q      1     0.0892     1.0080 
    27   opls_826      1    UNK   H0R      1     0.0892     1.0080 
    28   opls_827      1    UNK   H0S      1     0.0928     1.0080 
    29   opls_828      1    UNK   H0T      1     0.0856     1.0080 
    30   opls_829      1    UNK   H0U      1     0.0856     1.0080 
    31   opls_830      1    UNK   H0V      1     0.0806     1.0080 
    32   opls_831      1    UNK   H0W      1     0.0806     1.0080 
    33   opls_832      1    UNK   H0X      2     0.0806     1.0080 
    34   opls_833      1    UNK   H0Y      2      0.089     1.0080 
    35   opls_834      1    UNK   H0Z      2      0.089     1.0080 
    36   opls_835      1    UNK   H10      2     0.1009     1.0080 
    37   opls_836      1    UNK   H11      2     0.0811     1.0080 
    38   opls_837      1    UNK   H12      2     0.0811     1.0080 
    39   opls_838      1    UNK   H13      2     0.0811     1.0080 
    40   opls_839      1    UNK   H14      2     0.0884     1.0080 
    41   opls_840      1    UNK   H15      2     0.0884     1.0080 
    42   opls_841      1    UNK   H16      2     0.0919     1.0080 
    43   opls_842      1    UNK   H17      2     0.0822     1.0080 
    44   opls_843      1    UNK   H18      2     0.0822     1.0080 
    45   opls_844      1    UNK   H19      2     0.0822     1.0080 
    46   opls_845      1    UNK   H1A      2     0.0918     1.0080 
    47   opls_846      1    UNK   H1B      2     0.0951     1.0080 
    48   opls_847      1    UNK   H1C      2     0.0951     1.0080 
    49   opls_848      1    UNK   H1D      2      0.099     1.0080 
    50   opls_849      1    UNK   H1E      2      0.099     1.0080 
    51   opls_850      1    UNK   H1F      2     0.1294     1.0080 
    52   opls_851      1    UNK   H1G      2     0.1003     1.0080 
    53   opls_852      1    UNK   H1H      2     0.1003     1.0080 
    54   opls_853      1    UNK   H1I      2     0.0958     1.0080 
    55   opls_854      1    UNK   H1J      2     0.0958     1.0080 
[ bonds ]
    2     1     1      0.1529 224262.400
    3     2     1      0.1529 224262.400
    4     3     1      0.1529 224262.400
    5     4     1      0.1529 224262.400
    6     5     1      0.1529 224262.400
    7     4     1      0.1529 224262.400
    8     7     1      0.1529 224262.400
    9     8     1      0.1529 224262.400
   10     8     1      0.1529 224262.400
   11    10     1      0.1529 224262.400
   12    11     1      0.1529 224262.400
   13    11     1      0.1529 224262.400
   14    13     1      0.1529 224262.400
   15    14     1      0.1529 224262.400
   16    15     1      0.1529 224262.400
   17    16     1      0.1470 326352.000
   18    17     1      0.1157 543920.000
   19    16     1      0.1529 224262.400
   20    13     1      0.1529 224262.400
   21     1     1      0.1090 284512.000
   22     1     1      0.1090 284512.000
   23     1     1      0.1090 284512.000
   24     2     1      0.1090 284512.000
   25     2     1      0.1090 284512.000
   26     3     1      0.1090 284512.000
   27     3     1      0.1090 284512.000
   28     4     1      0.1090 284512.000
   29     5     1      0.1090 284512.000
   30     5     1      0.1090 284512.000
   31     6     1      0.1090 284512.000
   32     6     1      0.1090 284512.000
   33     6     1      0.1090 284512.000
   34     7     1      0.1090 284512.000
   35     7     1      0.1090 284512.000
   36     8     1      0.1090 284512.000
   37     9     1      0.1090 284512.000
   38     9     1      0.1090 284512.000
   39     9     1      0.1090 284512.000
   40    10     1      0.1090 284512.000
   41    10     1      0.1090 284512.000
   42    11     1      0.1090 284512.000
   43    12     1      0.1090 284512.000
   44    12     1      0.1090 284512.000
   45    12     1      0.1090 284512.000
   46    13     1      0.1090 284512.000
   47    14     1      0.1090 284512.000
   48    14     1      0.1090 284512.000
   49    15     1      0.1090 284512.000
   50    15     1      0.1090 284512.000
   51    16     1      0.1090 284512.000
   52    19     1      0.1090 284512.000
   53    19     1      0.1090 284512.000
   54    20     1      0.1090 284512.000
   55    20     1      0.1090 284512.000
   20    19     1      0.1529 224262.400

[ angles ]
;  ai    aj    ak funct            c0            c1            c2            c3 
    1     2     3     1    112.700    488.273
    2     3     4     1    112.700    488.273
    3     4     5     1    112.700    488.273
    4     5     6     1    112.700    488.273
    3     4     7     1    112.700    488.273
    4     7     8     1    112.700    488.273
    7     8     9     1    112.700    488.273
    7     8    10     1    112.700    488.273
    8    10    11     1    112.700    488.273
   10    11    12     1    112.700    488.273
   10    11    13     1    112.700    488.273
   11    13    14     1    112.700    488.273
   13    14    15     1    112.700    488.273
   14    15    16     1    112.700    488.273
   15    16    17     1    112.700    488.273
   16    17    18     1    180.000   1255.200
   15    16    19     1    112.700    488.273
   11    13    20     1    112.700    488.273
    2     1    21     1    110.700    313.800
    2     1    22     1    110.700    313.800
    2     1    23     1    110.700    313.800
    1     2    24     1    110.700    313.800
    1     2    25     1    110.700    313.800
    2     3    26     1    110.700    313.800
    2     3    27     1    110.700    313.800
    3     4    28     1    110.700    313.800
    4     5    29     1    110.700    313.800
    4     5    30     1    110.700    313.800
    5     6    31     1    110.700    313.800
    5     6    32     1    110.700    313.800
    5     6    33     1    110.700    313.800
    4     7    34     1    110.700    313.800
    4     7    35     1    110.700    313.800
    7     8    36     1    110.700    313.800
    8     9    37     1    110.700    313.800
    8     9    38     1    110.700    313.800
    8     9    39     1    110.700    313.800
    8    10    40     1    110.700    313.800
    8    10    41     1    110.700    313.800
   10    11    42     1    110.700    313.800
   11    12    43     1    110.700    313.800
   11    12    44     1    110.700    313.800
   11    12    45     1    110.700    313.800
   11    13    46     1    110.700    313.800
   13    14    47     1    110.700    313.800
   13    14    48     1    110.700    313.800
   14    15    49     1    110.700    313.800
   14    15    50     1    110.700    313.800
   15    16    51     1    110.700    313.800
   16    19    52     1    110.700    313.800
   16    19    53     1    110.700    313.800
   13    20    54     1    110.700    313.800
   13    20    55     1    110.700    313.800
   15    14    47     1    110.700    313.800
   12    11    42     1    110.700    313.800
    5     4     7     1    112.700    488.273
   19    20    54     1    110.700    313.800
    7     4    28     1    110.700    313.800
   19    16    51     1    110.700    313.800
   16    15    49     1    110.700    313.800
   43    12    45     1    107.800    276.144
   16    15    50     1    110.700    313.800
   31     6    33     1    107.800    276.144
    6     5    30     1    110.700    313.800
   49    15    50     1    107.800    276.144
    3     2    25     1    110.700    313.800
   52    19    53     1    107.800    276.144
    5     4    28     1    110.700    313.800
   16    19    20     1    112.700    488.273
   13    20    19     1    112.700    488.273
   37     9    38     1    107.800    276.144
   40    10    41     1    107.800    276.144
    9     8    36     1    110.700    313.800
   11    10    41     1    110.700    313.800
   11    10    40     1    110.700    313.800
   29     5    30     1    107.800    276.144
   32     6    33     1    107.800    276.144
    9     8    10     1    112.700    488.273
   19    20    55     1    110.700    313.800
    8     7    35     1    110.700    313.800
    4     3    27     1    110.700    313.800
   43    12    44     1    107.800    276.144
   21     1    23     1    107.800    276.144
   14    13    20     1    112.700    488.273
   24     2    25     1    107.800    276.144
   13    11    42     1    110.700    313.800
   20    19    52     1    110.700    313.800
   44    12    45     1    107.800    276.144
   14    13    46     1    110.700    313.800
   17    16    19     1    112.700    488.273
    4     3    26     1    110.700    313.800
    8     7    34     1    110.700    313.800
   54    20    55     1    107.800    276.144
   34     7    35     1    107.800    276.144
   31     6    32     1    107.800    276.144
   26     3    27     1    107.800    276.144
   47    14    48     1    107.800    276.144
   20    13    46     1    110.700    313.800
   22     1    23     1    107.800    276.144
   10     8    36     1    110.700    313.800
   15    14    48     1    110.700    313.800
   12    11    13     1    112.700    488.273
   21     1    22     1    107.800    276.144
    3     2    24     1    110.700    313.800
    6     5    29     1    110.700    313.800
   37     9    39     1    107.800    276.144
   17    16    51     1    108.500    292.880
   38     9    39     1    107.800    276.144
   20    19    53     1    110.700    313.800

[ dihedrals ]
; IMPROPER DIHEDRAL ANGLES 
;  ai    aj    ak    al funct            c0            c1            c2            c3            c4            c5

[ dihedrals ]
; PROPER DIHEDRAL ANGLES
;  ai    aj    ak    al funct            c0            c1            c2            c3            c4            c5
    4    3    2    1        3       2.301  -1.464   0.837  -1.674  -0.000   0.000
    7    4    5    6        3       2.301  -1.464   0.837  -1.674  -0.000   0.000
   19   16   15   14        3       2.301  -1.464   0.837  -1.674  -0.000   0.000
   20   13   11   12        3       2.301  -1.464   0.837  -1.674  -0.000   0.000
   20   19   16   15        3       2.301  -1.464   0.837  -1.674  -0.000   0.000
    7    4    3    2        3       2.301  -1.464   0.837  -1.674  -0.000   0.000
    8    7    4    5        3       2.301  -1.464   0.837  -1.674  -0.000   0.000
   13   11   10    8        3       2.301  -1.464   0.837  -1.674  -0.000   0.000
   14   13   11   12        3       2.301  -1.464   0.837  -1.674  -0.000   0.000
   20   13   14   15        3       2.301  -1.464   0.837  -1.674  -0.000   0.000
   19   20   13   11        3       2.301  -1.464   0.837  -1.674  -0.000   0.000
   19   20   13   14        3       2.301  -1.464   0.837  -1.674  -0.000   0.000
   16   19   20   13        3       2.301  -1.464   0.837  -1.674  -0.000   0.000
   11   10    8    9        3       2.301  -1.464   0.837  -1.674  -0.000   0.000
   20   13   11   10        3       2.301  -1.464   0.837  -1.674  -0.000   0.000
   10    8    7    4        3       2.301  -1.464   0.837  -1.674  -0.000   0.000
   11   10    8    7        3       2.301  -1.464   0.837  -1.674  -0.000   0.000
   12   11   10    8        3       2.301  -1.464   0.837  -1.674  -0.000   0.000
    5    4    3    2        3       2.301  -1.464   0.837  -1.674  -0.000   0.000
    6    5    4    3        3       2.301  -1.464   0.837  -1.674  -0.000   0.000
   14   13   11   10        3       2.301  -1.464   0.837  -1.674  -0.000   0.000
    9    8    7    4        3       2.301  -1.464   0.837  -1.674  -0.000   0.000
   16   15   14   13        3       2.301  -1.464   0.837  -1.674  -0.000   0.000
    8    7    4    3        3       2.301  -1.464   0.837  -1.674  -0.000   0.000
   15   14   13   11        3       2.301  -1.464   0.837  -1.674  -0.000   0.000
   20   19   16   17        3      -2.720   0.000   2.720  -0.000  -0.000   0.000
   19   16   17   18        3       0.000   0.000   0.000  -0.000  -0.000   0.000
   17   16   15   14        3      -2.720   0.000   2.720  -0.000  -0.000   0.000
   55   20   13   14        3       0.628   1.883   0.000  -2.510  -0.000   0.000
   28    4    5    6        3       0.628   1.883   0.000  -2.510  -0.000   0.000
   27    3    2    1        3       0.628   1.883   0.000  -2.510  -0.000   0.000
   33    6    5    4        3       0.628   1.883   0.000  -2.510  -0.000   0.000
   55   20   19   16        3       0.628   1.883   0.000  -2.510  -0.000   0.000
   38    9    8   10        3       0.628   1.883   0.000  -2.510  -0.000   0.000
   24    2    3    4        3       0.628   1.883   0.000  -2.510  -0.000   0.000
   49   15   16   19        3       0.628   1.883   0.000  -2.510  -0.000   0.000
   44   12   11   13        3       0.628   1.883   0.000  -2.510  -0.000   0.000
   40   10    8    9        3       0.628   1.883   0.000  -2.510  -0.000   0.000
   35    7    4    3        3       0.628   1.883   0.000  -2.510  -0.000   0.000
   48   14   13   11        3       0.628   1.883   0.000  -2.510  -0.000   0.000
   39    9    8    7        3       0.628   1.883   0.000  -2.510  -0.000   0.000
   26    3    4    5        3       0.628   1.883   0.000  -2.510  -0.000   0.000
   54   20   13   11        3       0.628   1.883   0.000  -2.510  -0.000   0.000
   46   13   20   19        3       0.628   1.883   0.000  -2.510  -0.000   0.000
   50   15   16   19        3       0.628   1.883   0.000  -2.510  -0.000   0.000
   34    7    4    5        3       0.628   1.883   0.000  -2.510  -0.000   0.000
   44   12   11   10        3       0.628   1.883   0.000  -2.510  -0.000   0.000
   34    7    8    9        3       0.628   1.883   0.000  -2.510  -0.000   0.000
   30    5    4    3        3       0.628   1.883   0.000  -2.510  -0.000   0.000
   43   12   11   13        3       0.628   1.883   0.000  -2.510  -0.000   0.000
   28    4    7    8        3       0.628   1.883   0.000  -2.510  -0.000   0.000
   52   19   20   13        3       0.628   1.883   0.000  -2.510  -0.000   0.000
   51   16   19   20        3       0.628   1.883   0.000  -2.510  -0.000   0.000
   37    9    8   10        3       0.628   1.883   0.000  -2.510  -0.000   0.000
   42   11   10    8        3       0.628   1.883   0.000  -2.510  -0.000   0.000
   34    7    4    3        3       0.628   1.883   0.000  -2.510  -0.000   0.000
   47   14   13   11        3       0.628   1.883   0.000  -2.510  -0.000   0.000
   50   15   14   13        3       0.628   1.883   0.000  -2.510  -0.000   0.000
   47   14   15   16        3       0.628   1.883   0.000  -2.510  -0.000   0.000
   53   19   20   13        3       0.628   1.883   0.000  -2.510  -0.000   0.000
   54   20   13   14        3       0.628   1.883   0.000  -2.510  -0.000   0.000
   47   14   13   20        3       0.628   1.883   0.000  -2.510  -0.000   0.000
   25    2    3    4        3       0.628   1.883   0.000  -2.510  -0.000   0.000
   29    5    4    7        3       0.628   1.883   0.000  -2.510  -0.000   0.000
   41   10   11   13        3       0.628   1.883   0.000  -2.510  -0.000   0.000
   46   13   11   10        3       0.628   1.883   0.000  -2.510  -0.000   0.000
   48   14   15   16        3       0.628   1.883   0.000  -2.510  -0.000   0.000
   26    3    4    7        3       0.628   1.883   0.000  -2.510  -0.000   0.000
   29    5    4    3        3       0.628   1.883   0.000  -2.510  -0.000   0.000
   55   20   13   11        3       0.628   1.883   0.000  -2.510  -0.000   0.000
   48   14   13   20        3       0.628   1.883   0.000  -2.510  -0.000   0.000
   45   12   11   13        3       0.628   1.883   0.000  -2.510  -0.000   0.000
   42   11   13   14        3       0.628   1.883   0.000  -2.510  -0.000   0.000
   40   10   11   12        3       0.628   1.883   0.000  -2.510  -0.000   0.000
   22    1    2    3        3       0.628   1.883   0.000  -2.510  -0.000   0.000
   40   10    8    7        3       0.628   1.883   0.000  -2.510  -0.000   0.000
   36    8   10   11        3       0.628   1.883   0.000  -2.510  -0.000   0.000
   30    5    4    7        3       0.628   1.883   0.000  -2.510  -0.000   0.000
   35    7    4    5        3       0.628   1.883   0.000  -2.510  -0.000   0.000
   41   10    8    7        3       0.628   1.883   0.000  -2.510  -0.000   0.000
   49   15   14   13        3       0.628   1.883   0.000  -2.510  -0.000   0.000
   32    6    5    4        3       0.628   1.883   0.000  -2.510  -0.000   0.000
   53   19   16   15        3       0.628   1.883   0.000  -2.510  -0.000   0.000
   35    7    8   10        3       0.628   1.883   0.000  -2.510  -0.000   0.000
   54   20   19   16        3       0.628   1.883   0.000  -2.510  -0.000   0.000
   39    9    8   10        3       0.628   1.883   0.000  -2.510  -0.000   0.000
   51   16   15   14        3       0.628   1.883   0.000  -2.510  -0.000   0.000
   23    1    2    3        3       0.628   1.883   0.000  -2.510  -0.000   0.000
   38    9    8    7        3       0.628   1.883   0.000  -2.510  -0.000   0.000
   40   10   11   13        3       0.628   1.883   0.000  -2.510  -0.000   0.000
   41   10   11   12        3       0.628   1.883   0.000  -2.510  -0.000   0.000
   34    7    8   10        3       0.628   1.883   0.000  -2.510  -0.000   0.000
   35    7    8    9        3       0.628   1.883   0.000  -2.510  -0.000   0.000
   37    9    8    7        3       0.628   1.883   0.000  -2.510  -0.000   0.000
   28    4    3    2        3       0.628   1.883   0.000  -2.510  -0.000   0.000
   46   13   14   15        3       0.628   1.883   0.000  -2.510  -0.000   0.000
   45   12   11   10        3       0.628   1.883   0.000  -2.510  -0.000   0.000
   36    8    7    4        3       0.628   1.883   0.000  -2.510  -0.000   0.000
   27    3    4    5        3       0.628   1.883   0.000  -2.510  -0.000   0.000
   43   12   11   10        3       0.628   1.883   0.000  -2.510  -0.000   0.000
   41   10    8    9        3       0.628   1.883   0.000  -2.510  -0.000   0.000
   21    1    2    3        3       0.628   1.883   0.000  -2.510  -0.000   0.000
   42   11   13   20        3       0.628   1.883   0.000  -2.510  -0.000   0.000
   46   13   11   12        3       0.628   1.883   0.000  -2.510  -0.000   0.000
   26    3    2    1        3       0.628   1.883   0.000  -2.510  -0.000   0.000
   31    6    5    4        3       0.628   1.883   0.000  -2.510  -0.000   0.000
   52   19   16   15        3       0.628   1.883   0.000  -2.510  -0.000   0.000
   27    3    4    7        3       0.628   1.883   0.000  -2.510  -0.000   0.000
   49   15   16   17        3       0.766   2.297   0.000  -3.063  -0.000   0.000
   52   19   16   17        3       0.766   2.297   0.000  -3.063  -0.000   0.000
   53   19   16   17        3       0.766   2.297   0.000  -3.063  -0.000   0.000
   50   15   16   17        3       0.766   2.297   0.000  -3.063  -0.000   0.000
   37    9    8   36        3       0.628   1.883   0.000  -2.510  -0.000   0.000
   27    3    2   25        3       0.628   1.883   0.000  -2.510  -0.000   0.000
   30    5    4   28        3       0.628   1.883   0.000  -2.510  -0.000   0.000
   25    2    1   22        3       0.628   1.883   0.000  -2.510  -0.000   0.000
   36    8    7   34        3       0.628   1.883   0.000  -2.510  -0.000   0.000
   39    9    8   36        3       0.628   1.883   0.000  -2.510  -0.000   0.000
   24    2    1   23        3       0.628   1.883   0.000  -2.510  -0.000   0.000
   43   12   11   42        3       0.628   1.883   0.000  -2.510  -0.000   0.000
   47   14   13   46        3       0.628   1.883   0.000  -2.510  -0.000   0.000
   49   15   14   47        3       0.628   1.883   0.000  -2.510  -0.000   0.000
   38    9    8   36        3       0.628   1.883   0.000  -2.510  -0.000   0.000
   28    4    3   26        3       0.628   1.883   0.000  -2.510  -0.000   0.000
   25    2    1   23        3       0.628   1.883   0.000  -2.510  -0.000   0.000
   31    6    5   29        3       0.628   1.883   0.000  -2.510  -0.000   0.000
   53   19   16   51        3       0.628   1.883   0.000  -2.510  -0.000   0.000
   54   20   13   46        3       0.628   1.883   0.000  -2.510  -0.000   0.000
   42   11   10   40        3       0.628   1.883   0.000  -2.510  -0.000   0.000
   33    6    5   29        3       0.628   1.883   0.000  -2.510  -0.000   0.000
   25    2    1   21        3       0.628   1.883   0.000  -2.510  -0.000   0.000
   32    6    5   30        3       0.628   1.883   0.000  -2.510  -0.000   0.000
   52   19   16   51        3       0.628   1.883   0.000  -2.510  -0.000   0.000
   54   20   19   52        3       0.628   1.883   0.000  -2.510  -0.000   0.000
   55   20   19   53        3       0.628   1.883   0.000  -2.510  -0.000   0.000
   27    3    2   24        3       0.628   1.883   0.000  -2.510  -0.000   0.000
   26    3    2   25        3       0.628   1.883   0.000  -2.510  -0.000   0.000
   24    2    1   22        3       0.628   1.883   0.000  -2.510  -0.000   0.000
   31    6    5   30        3       0.628   1.883   0.000  -2.510  -0.000   0.000
   45   12   11   42        3       0.628   1.883   0.000  -2.510  -0.000   0.000
   32    6    5   29        3       0.628   1.883   0.000  -2.510  -0.000   0.000
   51   16   15   50        3       0.628   1.883   0.000  -2.510  -0.000   0.000
   55   20   19   52        3       0.628   1.883   0.000  -2.510  -0.000   0.000
   24    2    1   21        3       0.628   1.883   0.000  -2.510  -0.000   0.000
   29    5    4   28        3       0.628   1.883   0.000  -2.510  -0.000   0.000
   36    8    7   35        3       0.628   1.883   0.000  -2.510  -0.000   0.000
   26    3    2   24        3       0.628   1.883   0.000  -2.510  -0.000   0.000
   49   15   14   48        3       0.628   1.883   0.000  -2.510  -0.000   0.000
   42   11   10   41        3       0.628   1.883   0.000  -2.510  -0.000   0.000
   33    6    5   30        3       0.628   1.883   0.000  -2.510  -0.000   0.000
   34    7    4   28        3       0.628   1.883   0.000  -2.510  -0.000   0.000
   46   13   11   42        3       0.628   1.883   0.000  -2.510  -0.000   0.000
   55   20   13   46        3       0.628   1.883   0.000  -2.510  -0.000   0.000
   28    4    3   27        3       0.628   1.883   0.000  -2.510  -0.000   0.000
   50   15   14   47        3       0.628   1.883   0.000  -2.510  -0.000   0.000
   35    7    4   28        3       0.628   1.883   0.000  -2.510  -0.000   0.000
   44   12   11   42        3       0.628   1.883   0.000  -2.510  -0.000   0.000
   50   15   14   48        3       0.628   1.883   0.000  -2.510  -0.000   0.000
   51   16   15   49        3       0.628   1.883   0.000  -2.510  -0.000   0.000
   40   10    8   36        3       0.628   1.883   0.000  -2.510  -0.000   0.000
   41   10    8   36        3       0.628   1.883   0.000  -2.510  -0.000   0.000
   48   14   13   46        3       0.628   1.883   0.000  -2.510  -0.000   0.000
   54   20   19   53        3       0.628   1.883   0.000  -2.510  -0.000   0.000
   51   16   17   18        3       0.000   0.000   0.000  -0.000  -0.000   0.000
   18   17   16   15        3       0.000   0.000   0.000  -0.000  -0.000   0.000

[ pairs ]
     1     4    1
     2     5    1
     3     6    1
     2     7    1
     3     8    1
     6     7    1
     5     8    1
     4     9    1
     4    10    1
     7    11    1
     9    11    1
     8    12    1
     8    13    1
    10    14    1
     3    21    1
     3    22    1
    12    14    1
    11    15    1
     3    23    1
     1    26    1
     4    24    1
     1    27    1
    13    16    1
     4    25    1
    11    19    1
    10    20    1
     2    28    1
    14    17    1
     5    26    1
    12    20    1
     5    27    1
     3    29    1
    15    18    1
    14    19    1
     7    26    1
     3    30    1
     7    27    1
     6    28    1
    15    20    1
     4    31    1
     8    28    1
     7    29    1
     4    32    1
    18    19    1
    17    20    1
     7    30    1
     4    33    1
     3    34    1
     3    35    1
     5    34    1
     5    35    1
     4    36    1
     9    34    1
    10    34    1
     9    35    1
     7    37    1
    21    24    1
    10    35    1
     7    38    1
    22    24    1
    21    25    1
     7    39    1
    23    24    1
    22    25    1
    11    36    1
    10    37    1
     7    40    1
    23    25    1
    10    38    1
     7    41    1
    10    39    1
     9    40    1
    24    26    1
     9    41    1
     8    42    1
    25    26    1
    24    27    1
    25    27    1
    12    40    1
    13    40    1
    12    41    1
    10    43    1
    26    28    1
    13    41    1
    10    44    1
    27    28    1
    10    45    1
    14    42    1
    13    43    1
    10    46    1
    28    29    1
    13    44    1
    28    30    1
    13    45    1
    12    46    1
    11    47    1
    11    48    1
    29    31    1
    30    31    1
    29    32    1
    15    46    1
    30    32    1
    29    33    1
    28    34    1
    20    42    1
    13    49    1
    30    33    1
    28    35    1
    16    47    1
    13    50    1
    16    48    1
    19    46    1
    14    51    1
    13    52    1
    11    54    1
    17    49    1
    13    53    1
    11    55    1
    20    47    1
    17    50    1
    15    52    1
    20    48    1
    19    49    1
    15    53    1
    14    54    1
    19    50    1
    18    51    1
    17    52    1
    14    55    1
    34    36    1
    17    53    1
    16    54    1
    35    36    1
    20    51    1
    16    55    1
    36    37    1
    36    38    1
    36    39    1
    36    40    1
    36    41    1
    40    42    1
    41    42    1
    42    43    1
    42    44    1
    42    45    1
    42    46    1
    46    47    1
    46    48    1
    47    49    1
    48    49    1
    47    50    1
    48    50    1
    49    51    1
    46    54    1
    50    51    1
    46    55    1
    51    52    1
    51    53    1
    52    54    1
    53    54    1
    52    55    1
    53    55    1

