
;
; GENERATED BY LigParGen Server
; Jorgensen Lab @ Yale University 
;
[ atomtypes ]
  opls_814  C814    12.0110     0.000    A    3.50000E-01   2.76144E-01
  opls_824  H824     1.0080     0.000    A    2.50000E-01   1.25520E-01
  opls_815  C815    12.0110     0.000    A    3.50000E-01   2.76144E-01
  opls_804  C804    12.0110     0.000    A    3.50000E-01   2.76144E-01
  opls_818  C818    12.0110     0.000    A    3.50000E-01   2.76144E-01
  opls_843  H843     1.0080     0.000    A    2.50000E-01   1.25520E-01
  opls_836  H836     1.0080     0.000    A    2.50000E-01   1.25520E-01
  opls_834  H834     1.0080     0.000    A    2.50000E-01   1.25520E-01
  opls_810  C810    12.0110     0.000    A    3.50000E-01   2.76144E-01
  opls_828  H828     1.0080     0.000    A    2.50000E-01   1.25520E-01
  opls_851  H851     1.0080     0.000    A    2.50000E-01   1.25520E-01
  opls_812  C812    12.0110     0.000    A    3.50000E-01   2.76144E-01
  opls_811  C811    12.0110     0.000    A    3.50000E-01   2.76144E-01
  opls_827  H827     1.0080     0.000    A    2.50000E-01   1.25520E-01
  opls_809  C809    12.0110     0.000    A    3.50000E-01   2.76144E-01
  opls_838  H838     1.0080     0.000    A    2.50000E-01   1.25520E-01
  opls_822  H822     1.0080     0.000    A    2.50000E-01   1.25520E-01
  opls_803  C803    12.0110     0.000    A    3.50000E-01   2.76144E-01
  opls_825  H825     1.0080     0.000    A    2.50000E-01   1.25520E-01
  opls_830  H830     1.0080     0.000    A    2.50000E-01   1.25520E-01
  opls_821  H821     1.0080     0.000    A    2.50000E-01   1.25520E-01
  opls_842  H842     1.0080     0.000    A    2.50000E-01   1.25520E-01
  opls_820  H820     1.0080     0.000    A    2.50000E-01   1.25520E-01
  opls_837  H837     1.0080     0.000    A    2.50000E-01   1.25520E-01
  opls_829  H829     1.0080     0.000    A    2.50000E-01   1.25520E-01
  opls_831  H831     1.0080     0.000    A    2.50000E-01   1.25520E-01
  opls_805  C805    12.0110     0.000    A    3.55000E-01   2.92880E-01
  opls_853  H853     1.0080     0.000    A    2.50000E-01   1.25520E-01
  opls_832  H832     1.0080     0.000    A    2.50000E-01   1.25520E-01
  opls_800  C800    12.0110     0.000    A    3.50000E-01   2.76144E-01
  opls_846  H846     1.0080     0.000    A    2.50000E-01   1.25520E-01
  opls_848  H848     1.0080     0.000    A    2.50000E-01   1.25520E-01
  opls_802  C802    12.0110     0.000    A    3.50000E-01   2.76144E-01
  opls_823  H823     1.0080     0.000    A    2.50000E-01   1.25520E-01
  opls_813  C813    12.0110     0.000    A    3.50000E-01   2.76144E-01
  opls_826  H826     1.0080     0.000    A    2.50000E-01   1.25520E-01
  opls_835  H835     1.0080     0.000    A    2.50000E-01   1.25520E-01
  opls_841  H841     1.0080     0.000    A    2.50000E-01   1.25520E-01
  opls_819  H819     1.0080     0.000    A    2.50000E-01   1.25520E-01
  opls_816  C816    12.0110     0.000    A    3.50000E-01   2.76144E-01
  opls_833  H833     1.0080     0.000    A    2.50000E-01   1.25520E-01
  opls_839  H839     1.0080     0.000    A    2.50000E-01   1.25520E-01
  opls_817  C817    12.0110     0.000    A    3.50000E-01   2.76144E-01
  opls_852  H852     1.0080     0.000    A    2.50000E-01   1.25520E-01
  opls_801  C801    12.0110     0.000    A    3.50000E-01   2.76144E-01
  opls_808  C808    12.0110     0.000    A    3.50000E-01   2.76144E-01
  opls_850  H850     1.0080     0.000    A    2.50000E-01   1.25520E-01
  opls_806  O806    15.9990     0.000    A    2.96000E-01   8.78640E-01
  opls_840  H840     1.0080     0.000    A    2.50000E-01   1.25520E-01
  opls_849  H849     1.0080     0.000    A    2.50000E-01   1.25520E-01
  opls_847  H847     1.0080     0.000    A    2.50000E-01   1.25520E-01
  opls_844  H844     1.0080     0.000    A    2.50000E-01   1.25520E-01
  opls_845  H845     1.0080     0.000    A    2.50000E-01   1.25520E-01
  opls_854  H854     1.0080     0.000    A    2.50000E-01   1.25520E-01
  opls_807  C807    12.0110     0.000    A    3.50000E-01   2.76144E-01
[ moleculetype ]
; Name               nrexcl
UNK                   3
[ atoms ]
;   nr       type  resnr residue  atom   cgnr     charge       mass  
     1   opls_800      1    UNK   C00      1    -0.2387    12.0110 
     2   opls_801      1    UNK   C01      1    -0.1795    12.0110 
     3   opls_802      1    UNK   C02      1    -0.1789    12.0110 
     4   opls_803      1    UNK   C03      1    -0.1724    12.0110 
     5   opls_804      1    UNK   C04      1    -0.2357    12.0110 
     6   opls_805      1    UNK   C05      1      0.359    12.0110 
     7   opls_806      1    UNK   O06      1    -0.4476    15.9990 
     8   opls_807      1    UNK   C07      1    -0.2354    12.0110 
     9   opls_808      1    UNK   C08      1    -0.1673    12.0110 
    10   opls_809      1    UNK   C09      1    -0.0971    12.0110 
    11   opls_810      1    UNK   C0A      1    -0.1771    12.0110 
    12   opls_811      1    UNK   C0B      1    -0.2372    12.0110 
    13   opls_812      1    UNK   C0C      1    -0.1078    12.0110 
    14   opls_813      1    UNK   C0D      1    -0.2385    12.0110 
    15   opls_814      1    UNK   C0E      1     -0.177    12.0110 
    16   opls_815      1    UNK   C0F      1    -0.1721    12.0110 
    17   opls_816      1    UNK   C0G      1    -0.1171    12.0110 
    18   opls_817      1    UNK   C0H      1    -0.2347    12.0110 
    19   opls_818      1    UNK   C0I      1    -0.2364    12.0110 
    20   opls_819      1    UNK   H0J      1     0.0814     1.0080 
    21   opls_820      1    UNK   H0K      1     0.0814     1.0080 
    22   opls_821      1    UNK   H0M      1     0.0814     1.0080 
    23   opls_822      1    UNK   H0N      1     0.0911     1.0080 
    24   opls_823      1    UNK   H0O      1     0.0911     1.0080 
    25   opls_824      1    UNK   H0P      1     0.0884     1.0080 
    26   opls_825      1    UNK   H0Q      1     0.0884     1.0080 
    27   opls_826      1    UNK   H0R      1      0.105     1.0080 
    28   opls_827      1    UNK   H0S      1      0.105     1.0080 
    29   opls_828      1    UNK   H0T      1     0.1158     1.0080 
    30   opls_829      1    UNK   H0U      1     0.1158     1.0080 
    31   opls_830      1    UNK   H0V      1     0.1196     1.0080 
    32   opls_831      1    UNK   H0W      1     0.1196     1.0080 
    33   opls_832      1    UNK   H0X      2     0.1056     1.0080 
    34   opls_833      1    UNK   H0Y      2     0.1056     1.0080 
    35   opls_834      1    UNK   H0Z      2     0.0939     1.0080 
    36   opls_835      1    UNK   H10      2     0.0882     1.0080 
    37   opls_836      1    UNK   H11      2     0.0882     1.0080 
    38   opls_837      1    UNK   H12      2     0.0796     1.0080 
    39   opls_838      1    UNK   H13      2     0.0796     1.0080 
    40   opls_839      1    UNK   H14      2     0.0796     1.0080 
    41   opls_840      1    UNK   H15      2     0.0931     1.0080 
    42   opls_841      1    UNK   H16      2     0.0827     1.0080 
    43   opls_842      1    UNK   H17      2     0.0827     1.0080 
    44   opls_843      1    UNK   H18      2     0.0827     1.0080 
    45   opls_844      1    UNK   H19      2     0.0926     1.0080 
    46   opls_845      1    UNK   H1A      2     0.0926     1.0080 
    47   opls_846      1    UNK   H1B      2     0.0879     1.0080 
    48   opls_847      1    UNK   H1C      2     0.0879     1.0080 
    49   opls_848      1    UNK   H1D      2     0.0969     1.0080 
    50   opls_849      1    UNK   H1E      2     0.0822     1.0080 
    51   opls_850      1    UNK   H1F      2     0.0822     1.0080 
    52   opls_851      1    UNK   H1G      2     0.0822     1.0080 
    53   opls_852      1    UNK   H1H      2     0.0805     1.0080 
    54   opls_853      1    UNK   H1I      2     0.0805     1.0080 
    55   opls_854      1    UNK   H1J      2     0.0805     1.0080 
[ bonds ]
    2     1     1      0.1529 224262.400
    3     2     1      0.1529 224262.400
    4     3     1      0.1529 224262.400
    5     4     1      0.1529 224262.400
    6     5     1      0.1522 265265.600
    7     6     1      0.1229 476976.000
    8     6     1      0.1522 265265.600
    9     8     1      0.1529 224262.400
   10     9     1      0.1529 224262.400
   11    10     1      0.1529 224262.400
   12    11     1      0.1529 224262.400
   13    10     1      0.1529 224262.400
   14    13     1      0.1529 224262.400
   15    13     1      0.1529 224262.400
   16    15     1      0.1529 224262.400
   17    16     1      0.1529 224262.400
   18    17     1      0.1529 224262.400
   19    17     1      0.1529 224262.400
   20     1     1      0.1090 284512.000
   21     1     1      0.1090 284512.000
   22     1     1      0.1090 284512.000
   23     2     1      0.1090 284512.000
   24     2     1      0.1090 284512.000
   25     3     1      0.1090 284512.000
   26     3     1      0.1090 284512.000
   27     4     1      0.1090 284512.000
   28     4     1      0.1090 284512.000
   29     5     1      0.1090 284512.000
   30     5     1      0.1090 284512.000
   31     8     1      0.1090 284512.000
   32     8     1      0.1090 284512.000
   33     9     1      0.1090 284512.000
   34     9     1      0.1090 284512.000
   35    10     1      0.1090 284512.000
   36    11     1      0.1090 284512.000
   37    11     1      0.1090 284512.000
   38    12     1      0.1090 284512.000
   39    12     1      0.1090 284512.000
   40    12     1      0.1090 284512.000
   41    13     1      0.1090 284512.000
   42    14     1      0.1090 284512.000
   43    14     1      0.1090 284512.000
   44    14     1      0.1090 284512.000
   45    15     1      0.1090 284512.000
   46    15     1      0.1090 284512.000
   47    16     1      0.1090 284512.000
   48    16     1      0.1090 284512.000
   49    17     1      0.1090 284512.000
   50    18     1      0.1090 284512.000
   51    18     1      0.1090 284512.000
   52    18     1      0.1090 284512.000
   53    19     1      0.1090 284512.000
   54    19     1      0.1090 284512.000
   55    19     1      0.1090 284512.000

[ angles ]
;  ai    aj    ak funct            c0            c1            c2            c3 
    1     2     3     1    112.700    488.273
    2     3     4     1    112.700    488.273
    3     4     5     1    112.700    488.273
    4     5     6     1    111.100    527.184
    5     6     7     1    120.400    669.440
    5     6     8     1    116.000    585.760
    6     8     9     1    111.100    527.184
    8     9    10     1    112.700    488.273
    9    10    11     1    112.700    488.273
   10    11    12     1    112.700    488.273
    9    10    13     1    112.700    488.273
   10    13    14     1    112.700    488.273
   10    13    15     1    112.700    488.273
   13    15    16     1    112.700    488.273
   15    16    17     1    112.700    488.273
   16    17    18     1    112.700    488.273
   16    17    19     1    112.700    488.273
    2     1    20     1    110.700    313.800
    2     1    21     1    110.700    313.800
    2     1    22     1    110.700    313.800
    1     2    23     1    110.700    313.800
    1     2    24     1    110.700    313.800
    2     3    25     1    110.700    313.800
    2     3    26     1    110.700    313.800
    3     4    27     1    110.700    313.800
    3     4    28     1    110.700    313.800
    4     5    29     1    110.700    313.800
    4     5    30     1    110.700    313.800
    6     8    31     1    109.500    292.880
    6     8    32     1    109.500    292.880
    8     9    33     1    110.700    313.800
    8     9    34     1    110.700    313.800
    9    10    35     1    110.700    313.800
   10    11    36     1    110.700    313.800
   10    11    37     1    110.700    313.800
   11    12    38     1    110.700    313.800
   11    12    39     1    110.700    313.800
   11    12    40     1    110.700    313.800
   10    13    41     1    110.700    313.800
   13    14    42     1    110.700    313.800
   13    14    43     1    110.700    313.800
   13    14    44     1    110.700    313.800
   13    15    45     1    110.700    313.800
   13    15    46     1    110.700    313.800
   15    16    47     1    110.700    313.800
   15    16    48     1    110.700    313.800
   16    17    49     1    110.700    313.800
   17    18    50     1    110.700    313.800
   17    18    51     1    110.700    313.800
   17    18    52     1    110.700    313.800
   17    19    53     1    110.700    313.800
   17    19    54     1    110.700    313.800
   17    19    55     1    110.700    313.800
   13    10    35     1    110.700    313.800
   17    16    47     1    110.700    313.800
   12    11    37     1    110.700    313.800
   31     8    32     1    107.800    276.144
   19    17    49     1    110.700    313.800
   39    12    40     1    107.800    276.144
   47    16    48     1    107.800    276.144
   43    14    44     1    107.800    276.144
    9     8    31     1    110.700    313.800
   14    13    15     1    112.700    488.273
   54    19    55     1    107.800    276.144
   29     5    30     1    107.800    276.144
   10     9    33     1    110.700    313.800
   53    19    54     1    107.800    276.144
   16    15    46     1    110.700    313.800
   51    18    52     1    107.800    276.144
   20     1    21     1    107.800    276.144
    5     4    27     1    110.700    313.800
   16    15    45     1    110.700    313.800
   53    19    55     1    107.800    276.144
    6     5    30     1    109.500    292.880
   45    15    46     1    107.800    276.144
    5     4    28     1    110.700    313.800
   14    13    41     1    110.700    313.800
   42    14    44     1    107.800    276.144
   11    10    35     1    110.700    313.800
   36    11    37     1    107.800    276.144
   11    10    13     1    112.700    488.273
   20     1    22     1    107.800    276.144
   18    17    49     1    110.700    313.800
   27     4    28     1    107.800    276.144
   50    18    51     1    107.800    276.144
   12    11    36     1    110.700    313.800
   17    16    48     1    110.700    313.800
   42    14    43     1    107.800    276.144
    4     3    25     1    110.700    313.800
   21     1    22     1    107.800    276.144
    4     3    26     1    110.700    313.800
    9     8    32     1    110.700    313.800
   25     3    26     1    107.800    276.144
   33     9    34     1    107.800    276.144
   10     9    34     1    110.700    313.800
   15    13    41     1    110.700    313.800
    3     2    23     1    110.700    313.800
   38    12    39     1    107.800    276.144
   18    17    19     1    112.700    488.273
    7     6     8     1    120.400    669.440
   23     2    24     1    107.800    276.144
   50    18    52     1    107.800    276.144
    3     2    24     1    110.700    313.800
    6     5    29     1    109.500    292.880
   38    12    40     1    107.800    276.144

[ dihedrals ]
; IMPROPER DIHEDRAL ANGLES 
;  ai    aj    ak    al funct            c0            c1            c2            c3            c4            c5
     8     6     5     7    4        180.000     43.932     2  

[ dihedrals ]
; PROPER DIHEDRAL ANGLES
;  ai    aj    ak    al funct            c0            c1            c2            c3            c4            c5
    6    5    4    3        3      -4.960   6.286   1.310  -2.636  -0.000   0.000
    8    6    5    4        3       0.818  -7.906   0.602   6.485  -0.000   0.000
    9    8    6    5        3       0.818  -7.906   0.602   6.485  -0.000   0.000
    9    8    6    7        3       0.000   0.000   0.000  -0.000  -0.000   0.000
   10    9    8    6        3      -4.960   6.286   1.310  -2.636  -0.000   0.000
    4    3    2    1        3       2.301  -1.464   0.837  -1.674  -0.000   0.000
   15   13   10   11        3       2.301  -1.464   0.837  -1.674  -0.000   0.000
   14   13   10   11        3       2.301  -1.464   0.837  -1.674  -0.000   0.000
   16   15   13   14        3       2.301  -1.464   0.837  -1.674  -0.000   0.000
   19   17   16   15        3       2.301  -1.464   0.837  -1.674  -0.000   0.000
   13   10    9    8        3       2.301  -1.464   0.837  -1.674  -0.000   0.000
   13   10   11   12        3       2.301  -1.464   0.837  -1.674  -0.000   0.000
   15   13   10    9        3       2.301  -1.464   0.837  -1.674  -0.000   0.000
   17   16   15   13        3       2.301  -1.464   0.837  -1.674  -0.000   0.000
   16   15   13   10        3       2.301  -1.464   0.837  -1.674  -0.000   0.000
   14   13   10    9        3       2.301  -1.464   0.837  -1.674  -0.000   0.000
   12   11   10    9        3       2.301  -1.464   0.837  -1.674  -0.000   0.000
   11   10    9    8        3       2.301  -1.464   0.837  -1.674  -0.000   0.000
   18   17   16   15        3       2.301  -1.464   0.837  -1.674  -0.000   0.000
    5    4    3    2        3       2.301  -1.464   0.837  -1.674  -0.000   0.000
   31    8    6    5        3       0.575   1.726   0.000  -2.301  -0.000   0.000
   30    5    6    8        3       0.575   1.726   0.000  -2.301  -0.000   0.000
   29    5    6    8        3       0.575   1.726   0.000  -2.301  -0.000   0.000
   32    8    6    5        3       0.575   1.726   0.000  -2.301  -0.000   0.000
   29    5    6    7        3       0.000   0.000   0.000  -0.000  -0.000   0.000
   30    5    6    7        3       0.000   0.000   0.000  -0.000  -0.000   0.000
   31    8    6    7        3       0.000   0.000   0.000  -0.000  -0.000   0.000
   32    8    6    7        3       0.000   0.000   0.000  -0.000  -0.000   0.000
   33    9    8    6        3      -0.209  -0.628   0.000   0.837  -0.000   0.000
   27    4    5    6        3      -0.209  -0.628   0.000   0.837  -0.000   0.000
   34    9    8    6        3      -0.209  -0.628   0.000   0.837  -0.000   0.000
   28    4    5    6        3      -0.209  -0.628   0.000   0.837  -0.000   0.000
   22    1    2    3        3       0.628   1.883   0.000  -2.510  -0.000   0.000
   36   11   10   13        3       0.628   1.883   0.000  -2.510  -0.000   0.000
   34    9   10   11        3       0.628   1.883   0.000  -2.510  -0.000   0.000
   42   14   13   15        3       0.628   1.883   0.000  -2.510  -0.000   0.000
   46   15   13   10        3       0.628   1.883   0.000  -2.510  -0.000   0.000
   41   13   15   16        3       0.628   1.883   0.000  -2.510  -0.000   0.000
   54   19   17   18        3       0.628   1.883   0.000  -2.510  -0.000   0.000
   48   16   15   13        3       0.628   1.883   0.000  -2.510  -0.000   0.000
   30    5    4    3        3       0.628   1.883   0.000  -2.510  -0.000   0.000
   34    9   10   13        3       0.628   1.883   0.000  -2.510  -0.000   0.000
   40   12   11   10        3       0.628   1.883   0.000  -2.510  -0.000   0.000
   51   18   17   16        3       0.628   1.883   0.000  -2.510  -0.000   0.000
   48   16   17   19        3       0.628   1.883   0.000  -2.510  -0.000   0.000
   49   17   16   15        3       0.628   1.883   0.000  -2.510  -0.000   0.000
   46   15   16   17        3       0.628   1.883   0.000  -2.510  -0.000   0.000
   37   11   10   13        3       0.628   1.883   0.000  -2.510  -0.000   0.000
   41   13   10    9        3       0.628   1.883   0.000  -2.510  -0.000   0.000
   53   19   17   18        3       0.628   1.883   0.000  -2.510  -0.000   0.000
   48   16   17   18        3       0.628   1.883   0.000  -2.510  -0.000   0.000
   43   14   13   15        3       0.628   1.883   0.000  -2.510  -0.000   0.000
   55   19   17   16        3       0.628   1.883   0.000  -2.510  -0.000   0.000
   55   19   17   18        3       0.628   1.883   0.000  -2.510  -0.000   0.000
   26    3    4    5        3       0.628   1.883   0.000  -2.510  -0.000   0.000
   41   13   10   11        3       0.628   1.883   0.000  -2.510  -0.000   0.000
   45   15   16   17        3       0.628   1.883   0.000  -2.510  -0.000   0.000
   50   18   17   19        3       0.628   1.883   0.000  -2.510  -0.000   0.000
   33    9   10   11        3       0.628   1.883   0.000  -2.510  -0.000   0.000
   52   18   17   19        3       0.628   1.883   0.000  -2.510  -0.000   0.000
   47   16   17   19        3       0.628   1.883   0.000  -2.510  -0.000   0.000
   31    8    9   10        3       0.628   1.883   0.000  -2.510  -0.000   0.000
   35   10   13   14        3       0.628   1.883   0.000  -2.510  -0.000   0.000
   32    8    9   10        3       0.628   1.883   0.000  -2.510  -0.000   0.000
   45   15   13   14        3       0.628   1.883   0.000  -2.510  -0.000   0.000
   46   15   13   14        3       0.628   1.883   0.000  -2.510  -0.000   0.000
   24    2    3    4        3       0.628   1.883   0.000  -2.510  -0.000   0.000
   43   14   13   10        3       0.628   1.883   0.000  -2.510  -0.000   0.000
   54   19   17   16        3       0.628   1.883   0.000  -2.510  -0.000   0.000
   47   16   15   13        3       0.628   1.883   0.000  -2.510  -0.000   0.000
   25    3    2    1        3       0.628   1.883   0.000  -2.510  -0.000   0.000
   21    1    2    3        3       0.628   1.883   0.000  -2.510  -0.000   0.000
   36   11   10    9        3       0.628   1.883   0.000  -2.510  -0.000   0.000
   29    5    4    3        3       0.628   1.883   0.000  -2.510  -0.000   0.000
   27    4    3    2        3       0.628   1.883   0.000  -2.510  -0.000   0.000
   52   18   17   16        3       0.628   1.883   0.000  -2.510  -0.000   0.000
   45   15   13   10        3       0.628   1.883   0.000  -2.510  -0.000   0.000
   35   10    9    8        3       0.628   1.883   0.000  -2.510  -0.000   0.000
   51   18   17   19        3       0.628   1.883   0.000  -2.510  -0.000   0.000
   35   10   11   12        3       0.628   1.883   0.000  -2.510  -0.000   0.000
   53   19   17   16        3       0.628   1.883   0.000  -2.510  -0.000   0.000
   50   18   17   16        3       0.628   1.883   0.000  -2.510  -0.000   0.000
   42   14   13   10        3       0.628   1.883   0.000  -2.510  -0.000   0.000
   38   12   11   10        3       0.628   1.883   0.000  -2.510  -0.000   0.000
   20    1    2    3        3       0.628   1.883   0.000  -2.510  -0.000   0.000
   33    9   10   13        3       0.628   1.883   0.000  -2.510  -0.000   0.000
   25    3    4    5        3       0.628   1.883   0.000  -2.510  -0.000   0.000
   35   10   13   15        3       0.628   1.883   0.000  -2.510  -0.000   0.000
   37   11   10    9        3       0.628   1.883   0.000  -2.510  -0.000   0.000
   47   16   17   18        3       0.628   1.883   0.000  -2.510  -0.000   0.000
   44   14   13   15        3       0.628   1.883   0.000  -2.510  -0.000   0.000
   39   12   11   10        3       0.628   1.883   0.000  -2.510  -0.000   0.000
   26    3    2    1        3       0.628   1.883   0.000  -2.510  -0.000   0.000
   44   14   13   10        3       0.628   1.883   0.000  -2.510  -0.000   0.000
   23    2    3    4        3       0.628   1.883   0.000  -2.510  -0.000   0.000
   28    4    3    2        3       0.628   1.883   0.000  -2.510  -0.000   0.000
   34    9    8   32        3       0.628   1.883   0.000  -2.510  -0.000   0.000
   34    9    8   31        3       0.628   1.883   0.000  -2.510  -0.000   0.000
   49   17   16   47        3       0.628   1.883   0.000  -2.510  -0.000   0.000
   23    2    1   21        3       0.628   1.883   0.000  -2.510  -0.000   0.000
   29    5    4   27        3       0.628   1.883   0.000  -2.510  -0.000   0.000
   38   12   11   36        3       0.628   1.883   0.000  -2.510  -0.000   0.000
   35   10    9   33        3       0.628   1.883   0.000  -2.510  -0.000   0.000
   47   16   15   46        3       0.628   1.883   0.000  -2.510  -0.000   0.000
   41   13   10   35        3       0.628   1.883   0.000  -2.510  -0.000   0.000
   54   19   17   49        3       0.628   1.883   0.000  -2.510  -0.000   0.000
   48   16   15   45        3       0.628   1.883   0.000  -2.510  -0.000   0.000
   28    4    3   26        3       0.628   1.883   0.000  -2.510  -0.000   0.000
   50   18   17   49        3       0.628   1.883   0.000  -2.510  -0.000   0.000
   24    2    1   20        3       0.628   1.883   0.000  -2.510  -0.000   0.000
   30    5    4   28        3       0.628   1.883   0.000  -2.510  -0.000   0.000
   36   11   10   35        3       0.628   1.883   0.000  -2.510  -0.000   0.000
   26    3    2   23        3       0.628   1.883   0.000  -2.510  -0.000   0.000
   33    9    8   31        3       0.628   1.883   0.000  -2.510  -0.000   0.000
   23    2    1   20        3       0.628   1.883   0.000  -2.510  -0.000   0.000
   49   17   16   48        3       0.628   1.883   0.000  -2.510  -0.000   0.000
   48   16   15   46        3       0.628   1.883   0.000  -2.510  -0.000   0.000
   33    9    8   32        3       0.628   1.883   0.000  -2.510  -0.000   0.000
   46   15   13   41        3       0.628   1.883   0.000  -2.510  -0.000   0.000
   25    3    2   23        3       0.628   1.883   0.000  -2.510  -0.000   0.000
   26    3    2   24        3       0.628   1.883   0.000  -2.510  -0.000   0.000
   55   19   17   49        3       0.628   1.883   0.000  -2.510  -0.000   0.000
   42   14   13   41        3       0.628   1.883   0.000  -2.510  -0.000   0.000
   29    5    4   28        3       0.628   1.883   0.000  -2.510  -0.000   0.000
   53   19   17   49        3       0.628   1.883   0.000  -2.510  -0.000   0.000
   39   12   11   37        3       0.628   1.883   0.000  -2.510  -0.000   0.000
   51   18   17   49        3       0.628   1.883   0.000  -2.510  -0.000   0.000
   35   10    9   34        3       0.628   1.883   0.000  -2.510  -0.000   0.000
   28    4    3   25        3       0.628   1.883   0.000  -2.510  -0.000   0.000
   27    4    3   26        3       0.628   1.883   0.000  -2.510  -0.000   0.000
   30    5    4   27        3       0.628   1.883   0.000  -2.510  -0.000   0.000
   38   12   11   37        3       0.628   1.883   0.000  -2.510  -0.000   0.000
   45   15   13   41        3       0.628   1.883   0.000  -2.510  -0.000   0.000
   52   18   17   49        3       0.628   1.883   0.000  -2.510  -0.000   0.000
   44   14   13   41        3       0.628   1.883   0.000  -2.510  -0.000   0.000
   43   14   13   41        3       0.628   1.883   0.000  -2.510  -0.000   0.000
   40   12   11   36        3       0.628   1.883   0.000  -2.510  -0.000   0.000
   47   16   15   45        3       0.628   1.883   0.000  -2.510  -0.000   0.000
   24    2    1   22        3       0.628   1.883   0.000  -2.510  -0.000   0.000
   23    2    1   22        3       0.628   1.883   0.000  -2.510  -0.000   0.000
   24    2    1   21        3       0.628   1.883   0.000  -2.510  -0.000   0.000
   27    4    3   25        3       0.628   1.883   0.000  -2.510  -0.000   0.000
   25    3    2   24        3       0.628   1.883   0.000  -2.510  -0.000   0.000
   39   12   11   36        3       0.628   1.883   0.000  -2.510  -0.000   0.000
   37   11   10   35        3       0.628   1.883   0.000  -2.510  -0.000   0.000
   40   12   11   37        3       0.628   1.883   0.000  -2.510  -0.000   0.000
    7    6    5    4        3       0.000   0.000   0.000  -0.000  -0.000   0.000

[ pairs ]
     1     4    1
     2     5    1
     3     6    1
     4     7    1
     4     8    1
     5     9    1
     7     9    1
     6    10    1
     8    11    1
     9    12    1
     8    13    1
     9    14    1
     3    20    1
     9    15    1
     3    21    1
    12    13    1
    11    14    1
     3    22    1
    11    15    1
    10    16    1
     1    25    1
     4    23    1
     1    26    1
     4    24    1
     2    27    1
    14    16    1
    13    17    1
     5    25    1
     2    28    1
     5    26    1
     3    29    1
    15    18    1
     6    27    1
     3    30    1
    15    19    1
     6    28    1
     7    29    1
     5    31    1
     8    29    1
     7    30    1
     5    32    1
     8    30    1
     7    31    1
     7    32    1
     6    33    1
     6    34    1
    10    31    1
    10    32    1
    20    23    1
     8    35    1
    21    23    1
    20    24    1
    11    33    1
    22    23    1
    21    24    1
    11    34    1
     9    36    1
    22    24    1
    13    33    1
     9    37    1
    13    34    1
    12    35    1
    23    25    1
    10    38    1
    24    25    1
    23    26    1
    14    35    1
    13    36    1
    10    39    1
    24    26    1
    15    35    1
    13    37    1
    10    40    1
     9    41    1
    25    27    1
    11    41    1
    10    42    1
    26    27    1
    25    28    1
    10    43    1
    26    28    1
    10    44    1
    10    45    1
    27    29    1
    10    46    1
    28    29    1
    27    30    1
    16    41    1
    15    42    1
    28    30    1
    15    43    1
    15    44    1
    14    45    1
    14    46    1
    13    47    1
    13    48    1
    17    45    1
    17    46    1
    31    33    1
    15    49    1
    32    33    1
    31    34    1
    18    47    1
    32    34    1
    19    47    1
    18    48    1
    16    50    1
    19    48    1
    16    51    1
    33    35    1
    16    52    1
    34    35    1
    19    50    1
    16    53    1
    19    51    1
    16    54    1
    35    36    1
    19    52    1
    18    53    1
    16    55    1
    35    37    1
    18    54    1
    18    55    1
    36    38    1
    37    38    1
    36    39    1
    37    39    1
    36    40    1
    35    41    1
    37    40    1
    41    42    1
    41    43    1
    41    44    1
    41    45    1
    41    46    1
    45    47    1
    46    47    1
    45    48    1
    46    48    1
    47    49    1
    48    49    1
    49    50    1
    49    51    1
    49    52    1
    49    53    1
    49    54    1
    49    55    1

