LIGPARGEN GENERATED GRO FILE
   55
    1UNK    C00    1   0.100   0.100   0.000
    1UNK    C01    2  -0.052   0.100   0.000
    1UNK    C02    3  -0.107   0.100   0.142
    1UNK    C03    4  -0.260   0.100   0.142
    1UNK    C04    5  -0.314   0.100   0.284
    1UNK    C05    6  -0.466   0.100   0.285
    1UNK    O06    7  -0.532   0.039   0.201
    1UNK    C07    8  -0.530   0.174   0.401
    1UNK    C08    9  -0.682   0.182   0.388
    1UNK    C09   10  -0.756   0.249   0.507
    1UNK    C0A   11  -0.728   0.401   0.524
    1UNK    C0B   12  -0.585   0.441   0.560
    1UNK    C0C   13  -0.911   0.226   0.497
    1UNK    C0D   14  -0.972   0.287   0.369
    1UNK    C0E   15  -0.955   0.078   0.504
    1UNK    C0F   16  -0.915   0.007   0.634
    1UNK    C0G   17  -0.960  -0.141   0.639
    1UNK    C0H   18  -0.893  -0.225   0.531
    1UNK    C0I   19  -0.928  -0.199   0.777
    1UNK    H0J   20   0.137   0.100  -0.103
    1UNK    H0K   21   0.139   0.011   0.051
    1UNK    H0M   22   0.139   0.189   0.051
    1UNK    H0N   23  -0.088   0.012  -0.054
    1UNK    H0O   24  -0.089   0.188  -0.054
    1UNK    H0P   25  -0.071   0.188   0.196
    1UNK    H0Q   26  -0.071   0.012   0.196
    1UNK    H0R   27  -0.297   0.012   0.088
    1UNK    H0S   28  -0.297   0.188   0.088
    1UNK    H0T   29  -0.279   0.189   0.336
    1UNK    H0U   30  -0.280   0.012   0.340
    1UNK    H0V   31  -0.486   0.274   0.398
    1UNK    H0W   32  -0.501   0.124   0.494
    1UNK    H0X   33  -0.717   0.079   0.378
    1UNK    H0Y   34  -0.707   0.233   0.295
    1UNK    H0Z   35  -0.720   0.201   0.599
    1UNK    H10   36  -0.792   0.438   0.605
    1UNK    H11   37  -0.757   0.456   0.434
    1UNK    H12   38  -0.536   0.366   0.622
    1UNK    H13   39  -0.586   0.536   0.615
    1UNK    H14   40  -0.526   0.459   0.470
    1UNK    H15   41  -0.958   0.277   0.582
    1UNK    H16   42  -0.933   0.240   0.279
    1UNK    H17   43  -0.953   0.395   0.363
    1UNK    H18   44  -1.081   0.274   0.369
    1UNK    H19   45  -0.916   0.024   0.417
    1UNK    H1A   46  -1.064   0.073   0.495
    1UNK    H1B   47  -0.961   0.061   0.718
    1UNK    H1C   48  -0.807   0.011   0.649
    1UNK    H1D   49  -1.069  -0.146   0.625
    1UNK    H1E   50  -0.784  -0.216   0.535
    1UNK    H1F   51  -0.926  -0.195   0.431
    1UNK    H1G   52  -0.918  -0.331   0.543
    1UNK    H1H   53  -0.820  -0.197   0.797
    1UNK    H1I   54  -0.961  -0.304   0.784
    1UNK    H1J   55  -0.978  -0.143   0.856
   1.00000   1.00000   1.00000

