LIGPARGEN GENERATED GRO FILE
   33
    1UNK    C00    1   0.100   0.100   0.000
    1UNK    C01    2  -0.052   0.100   0.000
    1UNK    C02    3  -0.106   0.100   0.143
    1UNK    C03    4  -0.259   0.100   0.145
    1UNK    C04    5  -0.316   0.100   0.287
    1UNK    C05    6  -0.274   0.218   0.375
    1UNK    C06    7  -0.315   0.354   0.318
    1UNK    C07    8  -0.265   0.472   0.401
    1UNK    S08    9  -0.330   0.474   0.567
    1UNK    O09   10  -0.474   0.475   0.559
    1UNK    O0A   11  -0.260   0.374   0.645
    1UNK    S0B   12  -0.275   0.659   0.649
    1UNK    C0C   13  -0.339   0.637   0.816
    1UNK    H0D   14   0.138   0.100  -0.103
    1UNK    H0E   15   0.139   0.011   0.051
    1UNK    H0F   16   0.139   0.189   0.051
    1UNK    H0G   17  -0.089   0.012  -0.054
    1UNK    H0H   18  -0.088   0.189  -0.053
    1UNK    H0I   19  -0.068   0.189   0.194
    1UNK    H0J   20  -0.069   0.012   0.197
    1UNK    H0K   21  -0.296   0.010   0.093
    1UNK    H0M   22  -0.298   0.186   0.089
    1UNK    H0N   23  -0.286   0.007   0.337
    1UNK    H0O   24  -0.426   0.098   0.280
    1UNK    H0P   25  -0.166   0.216   0.392
    1UNK    H0Q   26  -0.321   0.203   0.472
    1UNK    H0R   27  -0.424   0.358   0.310
    1UNK    H0S   28  -0.275   0.367   0.217
    1UNK    H0T   29  -0.297   0.566   0.353
    1UNK    H0U   30  -0.156   0.472   0.408
    1UNK    H0V   31  -0.318   0.726   0.876
    1UNK    H0W   32  -0.291   0.551   0.864
    1UNK    H0X   33  -0.447   0.620   0.813
   1.00000   1.00000   1.00000

