LIGPARGEN GENERATED GRO FILE
   35
    1UNK    C00    1   0.100   0.100   0.000
    1UNK    C01    2  -0.052   0.100   0.000
    1UNK    C02    3  -0.116   0.100   0.135
    1UNK    C03    4  -0.260   0.068   0.152
    1UNK    C04    5  -0.220   0.199   0.090
    1UNK    C05    6  -0.138   0.229  -0.034
    1UNK    C06    7  -0.066   0.364  -0.022
    1UNK    C07    8  -0.224   0.220  -0.163
    1UNK    C08    9  -0.151   0.254  -0.293
    1UNK    C09   10  -0.037   0.160  -0.331
    1UNK    C0A   11  -0.022   0.179  -0.481
    1UNK    C0B   12  -0.165   0.188  -0.530
    1UNK    C0C   13  -0.245   0.250  -0.415
    1UNK    H0D   14   0.138   0.010   0.051
    1UNK    H0E   15   0.141   0.187   0.052
    1UNK    H0F   16   0.140   0.098  -0.102
    1UNK    H0G   17  -0.085   0.011  -0.057
    1UNK    H0H   18  -0.052   0.131   0.216
    1UNK    H0I   19  -0.300   0.069   0.253
    1UNK    H0J   20  -0.304  -0.008   0.089
    1UNK    H0K   21  -0.238   0.288   0.149
    1UNK    H0M   22  -0.015   0.373   0.075
    1UNK    H0N   23  -0.137   0.447  -0.029
    1UNK    H0O   24   0.011   0.376  -0.099
    1UNK    H0P   25  -0.309   0.289  -0.152
    1UNK    H0Q   26  -0.268   0.119  -0.171
    1UNK    H0R   27  -0.111   0.356  -0.287
    1UNK    H0S   28  -0.062   0.056  -0.308
    1UNK    H0T   29   0.056   0.186  -0.279
    1UNK    H0U   30   0.033   0.097  -0.528
    1UNK    H0V   31   0.032   0.272  -0.502
    1UNK    H0W   32  -0.204   0.088  -0.552
    1UNK    H0X   33  -0.172   0.248  -0.622
    1UNK    H0Y   34  -0.335   0.190  -0.396
    1UNK    H0Z   35  -0.278   0.351  -0.441
   1.00000   1.00000   1.00000

