LIGPARGEN GENERATED GRO FILE
   44
    1UNK    C00    1   0.100   0.100   0.000
    1UNK    C01    2  -0.052   0.100   0.000
    1UNK    C02    3  -0.108   0.100   0.143
    1UNK    C03    4  -0.262   0.100   0.145
    1UNK    O04    5  -0.305  -0.020   0.076
    1UNK    C05    6  -0.341  -0.136   0.138
    1UNK    O06    7  -0.366  -0.237   0.073
    1UNK    O07    8  -0.352  -0.132   0.272
    1UNK    C08    9  -0.304  -0.023   0.352
    1UNK    C09   10  -0.322   0.112   0.286
    1UNK    C0A   11  -0.470   0.167   0.287
    1UNK    C0B   12  -0.565   0.084   0.199
    1UNK    C0C   13  -0.530   0.189   0.432
    1UNK    C0D   14  -0.446   0.282   0.522
    1UNK    C0E   15  -0.432   0.427   0.475
    1UNK    C0F   16  -0.676   0.242   0.430
    1UNK    O0G   17  -0.767   0.140   0.389
    1UNK    C0H   18  -0.895   0.192   0.358
    1UNK    H0I   19   0.138   0.100  -0.103
    1UNK    H0J   20   0.139   0.011   0.050
    1UNK    H0K   21   0.139   0.189   0.051
    1UNK    H0M   22  -0.087   0.012  -0.055
    1UNK    H0N   23  -0.088   0.188  -0.054
    1UNK    H0O   24  -0.071   0.188   0.197
    1UNK    H0P   25  -0.070   0.011   0.194
    1UNK    H0Q   26  -0.297   0.184   0.084
    1UNK    H0R   27  -0.198  -0.043   0.371
    1UNK    H0S   28  -0.353  -0.028   0.448
    1UNK    H0T   29  -0.262   0.185   0.341
    1UNK    H0U   30  -0.465   0.266   0.240
    1UNK    H0V   31  -0.589  -0.012   0.246
    1UNK    H0W   32  -0.525   0.066   0.100
    1UNK    H0X   33  -0.659   0.138   0.180
    1UNK    H0Y   34  -0.533   0.091   0.480
    1UNK    H0Z   35  -0.346   0.240   0.539
    1UNK    H10   36  -0.493   0.284   0.622
    1UNK    H11   37  -0.353   0.436   0.400
    1UNK    H12   38  -0.406   0.491   0.559
    1UNK    H13   39  -0.525   0.466   0.432
    1UNK    H14   40  -0.684   0.329   0.364
    1UNK    H15   41  -0.707   0.273   0.531
    1UNK    H16   42  -0.954   0.113   0.310
    1UNK    H17   43  -0.888   0.276   0.289
    1UNK    H18   44  -0.946   0.222   0.450
   1.00000   1.00000   1.00000

