LIGPARGEN GENERATED GRO FILE
   39
    1UNK    C00    1   0.100   0.100   0.000
    1UNK    C01    2  -0.054   0.100   0.000
    1UNK    C02    3  -0.104   0.100   0.146
    1UNK    C03    4  -0.217  -0.000   0.169
    1UNK    O04    5  -0.340   0.065   0.138
    1UNK    C05    6  -0.413   0.004   0.033
    1UNK    C06    7  -0.492   0.116  -0.037
    1UNK    C07    8  -0.435   0.151  -0.174
    1UNK    C08    9  -0.354   0.284  -0.183
    1UNK    C09   10  -0.453   0.401  -0.171
    1UNK    C0A   11  -0.239   0.289  -0.074
    1UNK    C0B   12  -0.122   0.193  -0.106
    1UNK    C0C   13  -0.024   0.271  -0.198
    1UNK    O0D   14  -0.100   0.345  -0.295
    1UNK    C0E   15  -0.185   0.264  -0.363
    1UNK    O0F   16  -0.152   0.175  -0.439
    1UNK    O0G   17  -0.312   0.291  -0.324
    1UNK    H0H   18   0.137   0.011   0.053
    1UNK    H0I   19   0.141   0.188   0.050
    1UNK    H0J   20   0.142   0.092  -0.101
    1UNK    H0K   21  -0.076  -0.001  -0.038
    1UNK    H0M   22  -0.132   0.201   0.178
    1UNK    H0N   23  -0.022   0.069   0.212
    1UNK    H0O   24  -0.221  -0.027   0.275
    1UNK    H0P   25  -0.203  -0.093   0.114
    1UNK    H0Q   26  -0.482  -0.068   0.079
    1UNK    H0R   27  -0.348  -0.050  -0.037
    1UNK    H0S   28  -0.499   0.203   0.028
    1UNK    H0T   29  -0.595   0.080  -0.051
    1UNK    H0U   30  -0.519   0.158  -0.245
    1UNK    H0V   31  -0.375   0.068  -0.214
    1UNK    H0W   32  -0.508   0.402  -0.076
    1UNK    H0X   33  -0.527   0.397  -0.252
    1UNK    H0Y   34  -0.401   0.497  -0.183
    1UNK    H0Z   35  -0.281   0.272   0.025
    1UNK    H10   36  -0.201   0.393  -0.070
    1UNK    H11   37  -0.167   0.118  -0.172
    1UNK    H12   38   0.047   0.206  -0.250
    1UNK    H13   39   0.033   0.344  -0.138
   1.00000   1.00000   1.00000

