
;
; GENERATED BY LigParGen Server
; Jorgensen Lab @ Yale University 
;
[ atomtypes ]
  opls_818  H818     1.0080     0.000    A    2.50000E-01   1.25520E-01
  opls_805  C805    12.0110     0.000    A    3.45000E-01   3.47272E-01
  opls_824  H824     1.0080     0.000    A    2.50000E-01   1.25520E-01
  opls_804  C804    12.0110     0.000    A    3.50000E-01   2.76144E-01
  opls_828  H828     1.0080     0.000    A    2.50000E-01   1.25520E-01
  opls_813  H813     1.0080     0.000    A    2.50000E-01   1.25520E-01
  opls_801  O801    15.9990     0.000    A    2.90000E-01   5.85760E-01
  opls_807  C807    12.0110     0.000    A    3.45000E-01   3.47272E-01
  opls_802  C802    12.0110     0.000    A    3.50000E-01   2.76144E-01
  opls_815  H815     1.0080     0.000    A    2.50000E-01   1.25520E-01
  opls_806  C806    12.0110     0.000    A    3.50000E-01   2.76144E-01
  opls_822  H822     1.0080     0.000    A    2.50000E-01   1.25520E-01
  opls_803  C803    12.0110     0.000    A    3.50000E-01   2.76144E-01
  opls_825  H825     1.0080     0.000    A    2.50000E-01   1.25520E-01
  opls_814  H814     1.0080     0.000    A    2.50000E-01   1.25520E-01
  opls_821  H821     1.0080     0.000    A    2.50000E-01   1.25520E-01
  opls_820  H820     1.0080     0.000    A    2.50000E-01   1.25520E-01
  opls_829  H829     1.0080     0.000    A    2.50000E-01   1.25520E-01
  opls_816  H816     1.0080     0.000    A    2.50000E-01   1.25520E-01
  opls_800  C800    12.0110     0.000    A    3.50000E-01   2.76144E-01
  opls_811  C811    12.0110     0.000    A    3.50000E-01   2.76144E-01
  opls_823  H823     1.0080     0.000    A    2.50000E-01   1.25520E-01
  opls_826  H826     1.0080     0.000    A    2.50000E-01   1.25520E-01
  opls_819  H819     1.0080     0.000    A    2.50000E-01   1.25520E-01
  opls_810  C810    12.0110     0.000    A    3.50000E-01   2.76144E-01
  opls_827  H827     1.0080     0.000    A    2.50000E-01   1.25520E-01
  opls_808  C808    12.0110     0.000    A    3.50000E-01   2.76144E-01
  opls_817  H817     1.0080     0.000    A    2.50000E-01   1.25520E-01
  opls_809  C809    12.0110     0.000    A    3.45000E-01   3.47272E-01
  opls_812  H812     1.0080     0.000    A    2.50000E-01   1.25520E-01
[ moleculetype ]
; Name               nrexcl
UNK                   3
[ atoms ]
;   nr       type  resnr residue  atom   cgnr     charge       mass  
     1   opls_800      1    UNK   C00      1    -0.0495    12.0110 
     2   opls_801      1    UNK   O01      1    -0.3565    15.9990 
     3   opls_802      1    UNK   C02      1     0.1039    12.0110 
     4   opls_803      1    UNK   C03      1    -0.2095    12.0110 
     5   opls_804      1    UNK   C04      1    -0.1488    12.0110 
     6   opls_805      1    UNK   C05      1    -0.2353    12.0110 
     7   opls_806      1    UNK   C06      1     -0.066    12.0110 
     8   opls_807      1    UNK   C07      1     0.0023    12.0110 
     9   opls_808      1    UNK   C08      1    -0.2286    12.0110 
    10   opls_809      1    UNK   C09      1    -0.2772    12.0110 
    11   opls_810      1    UNK   C0A      1    -0.0838    12.0110 
    12   opls_811      1    UNK   C0B      1    -0.2265    12.0110 
    13   opls_812      1    UNK   H0C      1     0.0822     1.0080 
    14   opls_813      1    UNK   H0D      1     0.0822     1.0080 
    15   opls_814      1    UNK   H0E      1     0.0822     1.0080 
    16   opls_815      1    UNK   H0F      1      0.101     1.0080 
    17   opls_816      1    UNK   H0G      1      0.101     1.0080 
    18   opls_817      1    UNK   H0H      1     0.0974     1.0080 
    19   opls_818      1    UNK   H0I      1     0.0974     1.0080 
    20   opls_819      1    UNK   H0J      1     0.1078     1.0080 
    21   opls_820      1    UNK   H0K      1     0.1078     1.0080 
    22   opls_821      1    UNK   H0M      1     0.1411     1.0080 
    23   opls_822      1    UNK   H0N      1     0.0936     1.0080 
    24   opls_823      1    UNK   H0O      1     0.0936     1.0080 
    25   opls_824      1    UNK   H0P      1     0.0936     1.0080 
    26   opls_825      1    UNK   H0Q      1     0.1346     1.0080 
    27   opls_826      1    UNK   H0R      1     0.1139     1.0080 
    28   opls_827      1    UNK   H0S      1      0.082     1.0080 
    29   opls_828      1    UNK   H0T      1      0.082     1.0080 
    30   opls_829      1    UNK   H0U      1      0.082     1.0080 
[ bonds ]
    2     1     1      0.1410 267776.000
    3     2     1      0.1410 267776.000
    4     3     1      0.1529 224262.400
    5     4     1      0.1529 224262.400
    6     5     1      0.1510 234304.000
    7     3     1      0.1529 224262.400
    8     6     1      0.1520 217568.000
    9     8     1      0.1510 234304.000
   10     6     1      0.1520 217568.000
   11     3     1      0.1529 224262.400
   12    11     1      0.1529 224262.400
   13     1     1      0.1090 284512.000
   14     1     1      0.1090 284512.000
   15     1     1      0.1090 284512.000
   16     4     1      0.1090 284512.000
   17     4     1      0.1090 284512.000
   18     5     1      0.1090 284512.000
   19     5     1      0.1090 284512.000
   20     7     1      0.1090 284512.000
   21     7     1      0.1090 284512.000
   22     8     1      0.1088 284512.000
   23     9     1      0.1090 284512.000
   24     9     1      0.1090 284512.000
   25     9     1      0.1090 284512.000
   26    10     1      0.1088 284512.000
   27    11     1      0.1090 284512.000
   28    12     1      0.1090 284512.000
   29    12     1      0.1090 284512.000
   30    12     1      0.1090 284512.000
    7     6     1      0.1510 234304.000
   10     8     1      0.1520 217568.000
   11    10     1      0.1510 234304.000

[ angles ]
;  ai    aj    ak funct            c0            c1            c2            c3 
    1     2     3     1    109.500    502.080
    2     3     4     1    109.500    418.400
    3     4     5     1    112.700    488.273
    4     5     6     1    112.700    488.273
    2     3     7     1    109.500    418.400
    5     6     8     1    117.200    313.800
    6     8     9     1    117.200    313.800
    5     6    10     1    117.200    313.800
    2     3    11     1    109.500    418.400
    3    11    12     1    112.700    488.273
    2     1    13     1    109.500    292.880
    2     1    14     1    109.500    292.880
    2     1    15     1    109.500    292.880
    3     4    16     1    110.700    313.800
    3     4    17     1    110.700    313.800
    4     5    18     1    110.700    313.800
    4     5    19     1    110.700    313.800
    3     7    20     1    110.700    313.800
    3     7    21     1    110.700    313.800
    6     8    22     1    117.200    313.800
    8     9    23     1    110.700    313.800
    8     9    24     1    110.700    313.800
    8     9    25     1    110.700    313.800
    6    10    26     1    117.200    313.800
    3    11    27     1    110.700    313.800
   11    12    28     1    110.700    313.800
   11    12    29     1    110.700    313.800
   11    12    30     1    110.700    313.800
    7     3    11     1    112.700    488.273
    4     3    11     1    112.700    488.273
   23     9    24     1    107.800    276.144
    9     8    10     1    117.200    313.800
   12    11    27     1    110.700    313.800
   28    12    29     1    107.800    276.144
    6     5    19     1    110.700    313.800
   29    12    30     1    107.800    276.144
    8     6    10     1     83.000    251.040
    6     8    10     1     83.000    251.040
    4     3     7     1    112.700    488.273
   28    12    30     1    107.800    276.144
   16     4    17     1    107.800    276.144
    6     7    21     1    110.700    313.800
    6     7    20     1    110.700    313.800
    8    10    26     1    117.200    313.800
    5     6     7     1    114.300    292.880
    3     7     6     1    112.700    488.273
    6    10     8     1     83.000    251.040
    5     4    16     1    110.700    313.800
   10     8    22     1    117.200    313.800
    8    10    11     1    117.200    313.800
   20     7    21     1    107.800    276.144
   24     9    25     1    107.800    276.144
   14     1    15     1    107.800    276.144
   10    11    12     1    112.700    488.273
   13     1    15     1    107.800    276.144
    7     6     8     1    117.200    313.800
    7     6    10     1    117.200    313.800
   13     1    14     1    107.800    276.144
   11    10    26     1    114.300    292.880
   10    11    27     1    110.700    313.800
   18     5    19     1    107.800    276.144
    6    10    11     1    117.200    313.800
   23     9    25     1    107.800    276.144
    3    11    10     1    112.700    488.273
    9     8    22     1    114.300    292.880
    6     5    18     1    110.700    313.800
    5     4    17     1    110.700    313.800

[ dihedrals ]
; IMPROPER DIHEDRAL ANGLES 
;  ai    aj    ak    al funct            c0            c1            c2            c3            c4            c5

[ dihedrals ]
; PROPER DIHEDRAL ANGLES
;  ai    aj    ak    al funct            c0            c1            c2            c3            c4            c5
   12   11    3    7        3       2.301  -1.464   0.837  -1.674  -0.000   0.000
    7    3    4    5        3       2.301  -1.464   0.837  -1.674  -0.000   0.000
   11    3    4    5        3       2.301  -1.464   0.837  -1.674  -0.000   0.000
   12   11    3    4        3       2.301  -1.464   0.837  -1.674  -0.000   0.000
   11    3    7    6        3       2.301  -1.464   0.837  -1.674  -0.000   0.000
    5    4    3    2        3       2.874   0.582   2.092  -5.548  -0.000   0.000
   12   11    3    2        3       2.874   0.582   2.092  -5.548  -0.000   0.000
   12   11   10    6        3       0.000   0.000   0.000  -0.000  -0.000   0.000
   12   11   10    8        3       0.000   0.000   0.000  -0.000  -0.000   0.000
    7    3    2    1        3       1.715   2.845   1.046  -5.607  -0.000   0.000
   11    3    2    1        3       1.715   2.845   1.046  -5.607  -0.000   0.000
    4    3    2    1        3       1.715   2.845   1.046  -5.607  -0.000   0.000
    5    6    7    3        3       2.301  -1.464   0.837  -1.674  -0.000   0.000
    7    6    5    4        3       2.301  -1.464   0.837  -1.674  -0.000   0.000
   11   10    6    5        3       0.000   0.000   0.000  -0.000  -0.000   0.000
   11   10    6    7        3       0.000   0.000   0.000  -0.000  -0.000   0.000
    9    8    6    7        3       0.000   0.000   0.000  -0.000  -0.000   0.000
   11   10    8    9        3       0.000   0.000   0.000  -0.000  -0.000   0.000
    9    8    6    5        3       0.000   0.000   0.000  -0.000  -0.000   0.000
   11   10    8    6        3       0.000   0.000   0.000  -0.000  -0.000   0.000
    9    8   10    6        3       0.000   0.000   0.000  -0.000  -0.000   0.000
   11   10    6    8        3       0.000   0.000   0.000  -0.000  -0.000   0.000
    6    7    3    4        3       2.301  -1.464   0.837  -1.674  -0.000   0.000
   10   11    3    4        3       2.301  -1.464   0.837  -1.674  -0.000   0.000
   10   11    3    7        3       2.301  -1.464   0.837  -1.674  -0.000   0.000
    6    5    4    3        3       2.301  -1.464   0.837  -1.674  -0.000   0.000
    6    7    3    2        3       2.874   0.582   2.092  -5.548  -0.000   0.000
   10   11    3    2        3       2.874   0.582   2.092  -5.548  -0.000   0.000
    6   10   11    3        3       0.000   0.000   0.000  -0.000  -0.000   0.000
   10    6    7    3        3       0.000   0.000   0.000  -0.000  -0.000   0.000
    8    6    7    3        3       0.000   0.000   0.000  -0.000  -0.000   0.000
    8    6    5    4        3       0.000   0.000   0.000  -0.000  -0.000   0.000
    8   10   11    3        3       0.000   0.000   0.000  -0.000  -0.000   0.000
   10    6    5    4        3       0.000   0.000   0.000  -0.000  -0.000   0.000
   17    4    3    7        3       0.628   1.883   0.000  -2.510  -0.000   0.000
   20    7    3   11        3       0.628   1.883   0.000  -2.510  -0.000   0.000
   21    7    3   11        3       0.628   1.883   0.000  -2.510  -0.000   0.000
   16    4    3   11        3       0.628   1.883   0.000  -2.510  -0.000   0.000
   16    4    3    7        3       0.628   1.883   0.000  -2.510  -0.000   0.000
   30   12   11    3        3       0.628   1.883   0.000  -2.510  -0.000   0.000
   17    4    3   11        3       0.628   1.883   0.000  -2.510  -0.000   0.000
   18    5    4    3        3       0.628   1.883   0.000  -2.510  -0.000   0.000
   27   11    3    4        3       0.628   1.883   0.000  -2.510  -0.000   0.000
   27   11    3    7        3       0.628   1.883   0.000  -2.510  -0.000   0.000
   19    5    4    3        3       0.628   1.883   0.000  -2.510  -0.000   0.000
   21    7    3    4        3       0.628   1.883   0.000  -2.510  -0.000   0.000
   29   12   11    3        3       0.628   1.883   0.000  -2.510  -0.000   0.000
   28   12   11    3        3       0.628   1.883   0.000  -2.510  -0.000   0.000
   20    7    3    4        3       0.628   1.883   0.000  -2.510  -0.000   0.000
   17    4    5    6        3       0.628   1.883   0.000  -2.510  -0.000   0.000
   28   12   11   10        3       0.628   1.883   0.000  -2.510  -0.000   0.000
   16    4    5    6        3       0.628   1.883   0.000  -2.510  -0.000   0.000
   30   12   11   10        3       0.628   1.883   0.000  -2.510  -0.000   0.000
   29   12   11   10        3       0.628   1.883   0.000  -2.510  -0.000   0.000
   29   12   11   27        3       0.628   1.883   0.000  -2.510  -0.000   0.000
   30   12   11   27        3       0.628   1.883   0.000  -2.510  -0.000   0.000
   19    5    4   17        3       0.628   1.883   0.000  -2.510  -0.000   0.000
   18    5    4   16        3       0.628   1.883   0.000  -2.510  -0.000   0.000
   28   12   11   27        3       0.628   1.883   0.000  -2.510  -0.000   0.000
   18    5    4   17        3       0.628   1.883   0.000  -2.510  -0.000   0.000
   19    5    4   16        3       0.628   1.883   0.000  -2.510  -0.000   0.000
   27   11    3    2        3       0.979   2.937   0.000  -3.916  -0.000   0.000
   20    7    3    2        3       0.979   2.937   0.000  -3.916  -0.000   0.000
   21    7    3    2        3       0.979   2.937   0.000  -3.916  -0.000   0.000
   17    4    3    2        3       0.979   2.937   0.000  -3.916  -0.000   0.000
   16    4    3    2        3       0.979   2.937   0.000  -3.916  -0.000   0.000
   19    5    6    7        3       0.628   1.883   0.000  -2.510  -0.000   0.000
   20    7    6    5        3       0.628   1.883   0.000  -2.510  -0.000   0.000
   21    7    6    5        3       0.628   1.883   0.000  -2.510  -0.000   0.000
   18    5    6    7        3       0.628   1.883   0.000  -2.510  -0.000   0.000
   19    5    6   10        3       0.628   1.883   0.000  -2.510  -0.000   0.000
   20    7    6    8        3       0.628   1.883   0.000  -2.510  -0.000   0.000
   27   11   10    6        3       0.628   1.883   0.000  -2.510  -0.000   0.000
   23    9    8    6        3       0.628   1.883   0.000  -2.510  -0.000   0.000
   25    9    8   10        3       0.628   1.883   0.000  -2.510  -0.000   0.000
   21    7    6   10        3       0.628   1.883   0.000  -2.510  -0.000   0.000
   24    9    8   10        3       0.628   1.883   0.000  -2.510  -0.000   0.000
   21    7    6    8        3       0.628   1.883   0.000  -2.510  -0.000   0.000
   19    5    6    8        3       0.628   1.883   0.000  -2.510  -0.000   0.000
   18    5    6    8        3       0.628   1.883   0.000  -2.510  -0.000   0.000
   27   11   10    8        3       0.628   1.883   0.000  -2.510  -0.000   0.000
   25    9    8    6        3       0.628   1.883   0.000  -2.510  -0.000   0.000
   18    5    6   10        3       0.628   1.883   0.000  -2.510  -0.000   0.000
   20    7    6   10        3       0.628   1.883   0.000  -2.510  -0.000   0.000
   23    9    8   10        3       0.628   1.883   0.000  -2.510  -0.000   0.000
   24    9    8    6        3       0.628   1.883   0.000  -2.510  -0.000   0.000
   25    9    8   22        3       0.628   1.883   0.000  -2.510  -0.000   0.000
   23    9    8   22        3       0.628   1.883   0.000  -2.510  -0.000   0.000
   24    9    8   22        3       0.628   1.883   0.000  -2.510  -0.000   0.000
   27   11   10   26        3       0.628   1.883   0.000  -2.510  -0.000   0.000
   14    1    2    3        3       1.590   4.770   0.000  -6.360  -0.000   0.000
   13    1    2    3        3       1.590   4.770   0.000  -6.360  -0.000   0.000
   15    1    2    3        3       1.590   4.770   0.000  -6.360  -0.000   0.000
   26   10   11   12        3       0.628   1.883   0.000  -2.510  -0.000   0.000
   26   10   11    3        3       0.628   1.883   0.000  -2.510  -0.000   0.000
   22    8    6    7        3       0.000   0.000   0.000  -0.000  -0.000   0.000
   26   10    6    5        3       0.000   0.000   0.000  -0.000  -0.000   0.000
   22    8    6    5        3       0.000   0.000   0.000  -0.000  -0.000   0.000
   26   10    8    9        3       0.000   0.000   0.000  -0.000  -0.000   0.000
   26   10    6    7        3       0.000   0.000   0.000  -0.000  -0.000   0.000
   22    8   10   11        3       0.000   0.000   0.000  -0.000  -0.000   0.000
   26   10    8    6        3       0.000   0.000   0.000  -0.000  -0.000   0.000
   22    8    6   10        3       0.000   0.000   0.000  -0.000  -0.000   0.000
   26   10    6    8        3       0.000   0.000   0.000  -0.000  -0.000   0.000
   22    8   10    6        3       0.000   0.000   0.000  -0.000  -0.000   0.000
   26   10    8   22        3       0.000   0.000   0.000  -0.000  -0.000   0.000

[ pairs ]
     1     4    1
     2     5    1
     2     6    1
     1     7    1
     3     8    1
     4     8    1
     2    10    1
     1    11    1
     5     9    1
     4    10    1
     2    12    1
     7     9    1
     5    11    1
     4    12    1
     3    13    1
     3    14    1
     6    12    1
     3    15    1
     2    16    1
     7    12    1
     2    17    1
     9    11    1
     8    12    1
     3    18    1
     6    16    1
     3    19    1
     2    20    1
     7    16    1
     6    17    1
     2    21    1
     7    17    1
     4    20    1
     7    18    1
     5    20    1
     4    21    1
     8    18    1
     7    19    1
     5    21    1
    11    16    1
     8    19    1
     5    22    1
    11    17    1
    10    18    1
     8    20    1
    10    19    1
     8    21    1
     7    22    1
     6    23    1
     3    26    1
     2    27    1
    10    20    1
     6    24    1
    11    20    1
    10    21    1
     6    25    1
     5    26    1
     4    27    1
     3    28    1
    11    21    1
     3    29    1
    11    22    1
    10    23    1
     7    26    1
     6    27    1
     3    30    1
    16    18    1
    10    24    1
     7    27    1
    17    18    1
    16    19    1
    10    25    1
     9    26    1
     8    27    1
    17    19    1
    12    26    1
    10    28    1
    10    29    1
    10    30    1
    22    23    1
    22    24    1
    22    25    1
    22    26    1
    26    27    1
    27    28    1
    27    29    1
    27    30    1

