LIGPARGEN GENERATED GRO FILE
   30
    1UNK    C00    1   0.100   0.100   0.000
    1UNK    O01    2  -0.042   0.100   0.000
    1UNK    C02    3  -0.101   0.100   0.129
    1UNK    C03    4  -0.081  -0.027   0.212
    1UNK    C04    5  -0.194  -0.015   0.316
    1UNK    C05    6  -0.277   0.110   0.268
    1UNK    C06    7  -0.258   0.099   0.118
    1UNK    C07    8  -0.295   0.209   0.383
    1UNK    C08    9  -0.421   0.284   0.408
    1UNK    C09   10  -0.212   0.254   0.271
    1UNK    C0A   11  -0.076   0.230   0.214
    1UNK    C0B   12   0.030   0.228   0.322
    1UNK    H0C   13   0.134   0.109  -0.103
    1UNK    H0D   14   0.139   0.006   0.041
    1UNK    H0E   15   0.140   0.185   0.056
    1UNK    H0F   16   0.018  -0.035   0.258
    1UNK    H0G   17  -0.094  -0.117   0.150
    1UNK    H0H   18  -0.153  -0.003   0.417
    1UNK    H0I   19  -0.257  -0.104   0.314
    1UNK    H0J   20  -0.298   0.181   0.057
    1UNK    H0K   21  -0.296   0.005   0.076
    1UNK    H0M   22  -0.245   0.190   0.478
    1UNK    H0N   23  -0.479   0.301   0.316
    1UNK    H0O   24  -0.397   0.383   0.450
    1UNK    H0P   25  -0.485   0.232   0.480
    1UNK    H0Q   26  -0.259   0.334   0.213
    1UNK    H0R   27  -0.053   0.311   0.145
    1UNK    H0S   28  -0.000   0.170   0.411
    1UNK    H0T   29   0.048   0.330   0.358
    1UNK    H0U   30   0.125   0.189   0.286
   1.00000   1.00000   1.00000

