LIGPARGEN GENERATED GRO FILE
   42
    1UNK    C00    1   0.100   0.100   0.000
    1UNK    C01    2  -0.053   0.100   0.000
    1UNK    C02    3  -0.113   0.100   0.143
    1UNK    C03    4  -0.158   0.233   0.206
    1UNK    C04    5  -0.045   0.332   0.236
    1UNK    C05    6  -0.067   0.473   0.179
    1UNK    C06    7  -0.178   0.547   0.254
    1UNK    C07    8  -0.093   0.474   0.028
    1UNK    O08    9  -0.193   0.527  -0.021
    1UNK    C09   10   0.014   0.413  -0.062
    1UNK    C0A   11   0.088   0.522  -0.140
    1UNK    C0B   12   0.170   0.612  -0.048
    1UNK    C0C   13   0.253   0.710  -0.128
    1UNK    C0D   14   0.329   0.804  -0.036
    1UNK    N0E   15   0.391   0.882   0.041
    1UNK    C0F   16  -0.047   0.311  -0.160
    1UNK    C0G   17  -0.124   0.195  -0.099
    1UNK    H0H   18   0.137   0.007   0.045
    1UNK    H0I   19   0.144   0.181   0.058
    1UNK    H0J   20   0.140   0.105  -0.102
    1UNK    H0K   21  -0.077  -0.001  -0.038
    1UNK    H0M   22  -0.045   0.048   0.211
    1UNK    H0N   23  -0.204   0.038   0.138
    1UNK    H0O   24  -0.205   0.207   0.302
    1UNK    H0P   25  -0.238   0.278   0.147
    1UNK    H0Q   26   0.051   0.293   0.204
    1UNK    H0R   27  -0.035   0.341   0.346
    1UNK    H0S   28   0.025   0.530   0.195
    1UNK    H0T   29  -0.275   0.500   0.241
    1UNK    H0U   30  -0.186   0.651   0.218
    1UNK    H0V   31  -0.156   0.552   0.361
    1UNK    H0W   32   0.088   0.363   0.001
    1UNK    H0X   33   0.018   0.582  -0.198
    1UNK    H0Y   34   0.157   0.475  -0.212
    1UNK    H0Z   35   0.235   0.552   0.016
    1UNK    H10   36   0.102   0.668   0.019
    1UNK    H11   37   0.189   0.770  -0.194
    1UNK    H12   38   0.325   0.657  -0.191
    1UNK    H13   39   0.032   0.271  -0.225
    1UNK    H14   40  -0.116   0.364  -0.227
    1UNK    H15   41  -0.155   0.133  -0.185
    1UNK    H16   42  -0.218   0.232  -0.058
   1.00000   1.00000   1.00000

