LIGPARGEN GENERATED GRO FILE
   47
    1UNK    C00    1   0.100   0.100   0.000
    1UNK    C01    2  -0.052   0.100   0.000
    1UNK    C02    3  -0.116   0.100   0.141
    1UNK    C03    4  -0.072   0.222   0.223
    1UNK    C04    5  -0.271   0.098   0.133
    1UNK    C05    6  -0.327  -0.029   0.067
    1UNK    C06    7  -0.483  -0.045   0.063
    1UNK    C07    8  -0.537  -0.041   0.207
    1UNK    C08    9  -0.541   0.074  -0.023
    1UNK    C09   10  -0.692   0.095  -0.051
    1UNK    C0A   11  -0.761  -0.014  -0.133
    1UNK    C0B   12  -0.776   0.130   0.072
    1UNK    C0C   13  -0.518  -0.179  -0.007
    1UNK    S0D   14  -0.465  -0.332   0.070
    1UNK    C0E   15  -0.527  -0.454  -0.043
    1UNK    O0F   16  -0.321  -0.342   0.066
    1UNK    O0G   17  -0.538  -0.349   0.194
    1UNK    H0H   18   0.137   0.090  -0.103
    1UNK    H0I   19   0.139   0.016   0.059
    1UNK    H0J   20   0.141   0.193   0.040
    1UNK    H0K   21  -0.084   0.010  -0.055
    1UNK    H0M   22  -0.088   0.186  -0.057
    1UNK    H0N   23  -0.082   0.010   0.194
    1UNK    H0O   24  -0.101   0.315   0.174
    1UNK    H0P   25   0.037   0.223   0.238
    1UNK    H0Q   26  -0.118   0.220   0.322
    1UNK    H0R   27  -0.304   0.187   0.079
    1UNK    H0S   28  -0.309   0.106   0.235
    1UNK    H0T   29  -0.284  -0.113   0.122
    1UNK    H0U   30  -0.290  -0.036  -0.036
    1UNK    H0V   31  -0.531   0.060   0.249
    1UNK    H0W   32  -0.480  -0.107   0.273
    1UNK    H0X   33  -0.642  -0.072   0.212
    1UNK    H0Y   34  -0.491   0.070  -0.121
    1UNK    H0Z   35  -0.507   0.168   0.023
    1UNK    H10   36  -0.695   0.185  -0.115
    1UNK    H11   37  -0.796  -0.096  -0.070
    1UNK    H12   38  -0.694  -0.054  -0.210
    1UNK    H13   39  -0.849   0.027  -0.183
    1UNK    H14   40  -0.800   0.041   0.132
    1UNK    H15   41  -0.871   0.174   0.042
    1UNK    H16   42  -0.724   0.202   0.136
    1UNK    H17   43  -0.478  -0.180  -0.109
    1UNK    H18   44  -0.626  -0.191  -0.012
    1UNK    H19   45  -0.468  -0.450  -0.135
    1UNK    H1A   46  -0.632  -0.433  -0.064
    1UNK    H1B   47  -0.516  -0.552   0.003
   1.00000   1.00000   1.00000

