LIGPARGEN GENERATED GRO FILE
   32
    1UNK    C00    1   0.100   0.100   0.000
    1UNK    C01    2  -0.052   0.100   0.000
    1UNK    C02    3  -0.113   0.100   0.141
    1UNK    C03    4  -0.066   0.216   0.229
    1UNK    C04    5  -0.163   0.210   0.346
    1UNK    C05    6  -0.296   0.194   0.274
    1UNK    C06    7  -0.411   0.139   0.354
    1UNK    C07    8  -0.441   0.096   0.503
    1UNK    C08    9  -0.542  -0.003   0.433
    1UNK    C09   10  -0.430  -0.012   0.327
    1UNK    O0A   11  -0.454  -0.040   0.189
    1UNK    C0B   12  -0.340  -0.017   0.115
    1UNK    O0C   13  -0.307  -0.096   0.028
    1UNK    C0D   14  -0.268   0.115   0.143
    1UNK    H0E   15   0.138   0.086  -0.102
    1UNK    H0F   16   0.140   0.019   0.062
    1UNK    H0G   17   0.140   0.195   0.037
    1UNK    H0H   18  -0.086   0.011  -0.054
    1UNK    H0I   19  -0.088   0.187  -0.057
    1UNK    H0J   20  -0.084   0.006   0.190
    1UNK    H0K   21  -0.077   0.312   0.175
    1UNK    H0M   22   0.038   0.208   0.261
    1UNK    H0N   23  -0.160   0.301   0.406
    1UNK    H0O   24  -0.141   0.125   0.411
    1UNK    H0P   25  -0.324   0.296   0.242
    1UNK    H0Q   26  -0.496   0.200   0.320
    1UNK    H0R   27  -0.484   0.171   0.569
    1UNK    H0S   28  -0.359   0.045   0.555
    1UNK    H0T   29  -0.636   0.045   0.399
    1UNK    H0U   30  -0.567  -0.094   0.487
    1UNK    H0V   31  -0.349  -0.077   0.363
    1UNK    H0W   32  -0.299   0.180   0.059
   1.00000   1.00000   1.00000

