LIGPARGEN GENERATED GRO FILE
   36
    1UNK    C00    1   0.100   0.100   0.000
    1UNK    C01    2  -0.052   0.100   0.000
    1UNK    C02    3  -0.108   0.100   0.142
    1UNK    C03    4  -0.261   0.100   0.143
    1UNK    C04    5  -0.315   0.100   0.285
    1UNK    C05    6  -0.467   0.100   0.290
    1UNK    O06    7  -0.536   0.051   0.200
    1UNK    C07    8  -0.531   0.158   0.416
    1UNK    C08    9  -0.553   0.308   0.395
    1UNK    C09   10  -0.664   0.089   0.452
    1UNK    C0A   11  -0.657  -0.062   0.479
    1UNK    C0B   12  -0.567  -0.100   0.594
    1UNK    O0C   13  -0.501  -0.021   0.660
    1UNK    C0D   14  -0.794  -0.121   0.509
    1UNK    F0E   15  -0.892  -0.029   0.507
    1UNK    F0F   16  -0.825  -0.216   0.418
    1UNK    F0G   17  -0.799  -0.181   0.631
    1UNK    H0H   18   0.138   0.100  -0.103
    1UNK    H0I   19   0.139   0.011   0.051
    1UNK    H0J   20   0.139   0.189   0.051
    1UNK    H0K   21  -0.088   0.012  -0.054
    1UNK    H0M   22  -0.088   0.188  -0.054
    1UNK    H0N   23  -0.071   0.188   0.196
    1UNK    H0O   24  -0.071   0.012   0.196
    1UNK    H0P   25  -0.298   0.012   0.089
    1UNK    H0Q   26  -0.298   0.188   0.089
    1UNK    H0R   27  -0.279   0.189   0.338
    1UNK    H0S   28  -0.281   0.012   0.340
    1UNK    H0T   29  -0.459   0.145   0.497
    1UNK    H0U   30  -0.631   0.327   0.321
    1UNK    H0V   31  -0.461   0.357   0.360
    1UNK    H0W   32  -0.583   0.355   0.489
    1UNK    H0X   33  -0.735   0.106   0.370
    1UNK    H0Y   34  -0.706   0.139   0.541
    1UNK    H0Z   35  -0.616  -0.113   0.391
    1UNK    H10   36  -0.560  -0.209   0.615
   1.00000   1.00000   1.00000

