
;
; GENERATED BY LigParGen Server
; Jorgensen Lab @ Yale University 
;
[ atomtypes ]
  opls_818  H818     1.0080     0.000    A    2.50000E-01   1.25520E-01
  opls_808  C808    12.0110     0.000    A    3.50000E-01   2.76144E-01
  opls_824  H824     1.0080     0.000    A    2.50000E-01   1.25520E-01
  opls_834  H834     1.0080     0.000    A    2.50000E-01   1.25520E-01
  opls_828  H828     1.0080     0.000    A    2.50000E-01   1.25520E-01
  opls_802  C802    12.0110     0.000    A    3.50000E-01   2.76144E-01
  opls_827  H827     1.0080     0.000    A    2.50000E-01   1.25520E-01
  opls_809  C809    12.0110     0.000    A    3.50000E-01   2.76144E-01
  opls_822  H822     1.0080     0.000    A    2.50000E-01   1.25520E-01
  opls_814  F814    18.9984     0.000    A    2.90000E-01   2.51040E-01
  opls_825  H825     1.0080     0.000    A    2.50000E-01   1.25520E-01
  opls_830  H830     1.0080     0.000    A    2.50000E-01   1.25520E-01
  opls_804  C804    12.0110     0.000    A    3.50000E-01   2.76144E-01
  opls_820  H820     1.0080     0.000    A    2.50000E-01   1.25520E-01
  opls_821  H821     1.0080     0.000    A    2.50000E-01   1.25520E-01
  opls_831  H831     1.0080     0.000    A    2.50000E-01   1.25520E-01
  opls_805  C805    12.0110     0.000    A    3.55000E-01   2.92880E-01
  opls_812  O812    15.9990     0.000    A    2.96000E-01   8.78640E-01
  opls_832  H832     1.0080     0.000    A    2.50000E-01   1.25520E-01
  opls_800  C800    12.0110     0.000    A    3.50000E-01   2.76144E-01
  opls_807  C807    12.0110     0.000    A    3.50000E-01   2.76144E-01
  opls_823  H823     1.0080     0.000    A    2.50000E-01   1.25520E-01
  opls_811  C811    12.0110     0.000    A    3.55000E-01   2.92880E-01
  opls_833  H833     1.0080     0.000    A    2.50000E-01   1.25520E-01
  opls_813  C813    12.0110     0.000    A    3.50000E-01   2.76144E-01
  opls_826  H826     1.0080     0.000    A    2.50000E-01   1.25520E-01
  opls_835  H835     1.0080     0.000    A    2.50000E-01   1.25520E-01
  opls_819  H819     1.0080     0.000    A    2.50000E-01   1.25520E-01
  opls_810  C810    12.0110     0.000    A    3.50000E-01   2.76144E-01
  opls_801  C801    12.0110     0.000    A    3.50000E-01   2.76144E-01
  opls_816  F816    18.9984     0.000    A    2.90000E-01   2.51040E-01
  opls_806  O806    15.9990     0.000    A    2.96000E-01   8.78640E-01
  opls_817  H817     1.0080     0.000    A    2.50000E-01   1.25520E-01
  opls_829  H829     1.0080     0.000    A    2.50000E-01   1.25520E-01
  opls_815  F815    18.9984     0.000    A    2.90000E-01   2.51040E-01
  opls_803  C803    12.0110     0.000    A    3.50000E-01   2.76144E-01
[ moleculetype ]
; Name               nrexcl
UNK                   3
[ atoms ]
;   nr       type  resnr residue  atom   cgnr     charge       mass  
     1   opls_800      1    UNK   C00      1    -0.2393    12.0110 
     2   opls_801      1    UNK   C01      1    -0.1783    12.0110 
     3   opls_802      1    UNK   C02      1    -0.1787    12.0110 
     4   opls_803      1    UNK   C03      1    -0.1728    12.0110 
     5   opls_804      1    UNK   C04      1    -0.2302    12.0110 
     6   opls_805      1    UNK   C05      1     0.3598    12.0110 
     7   opls_806      1    UNK   O06      1    -0.4499    15.9990 
     8   opls_807      1    UNK   C07      1    -0.1694    12.0110 
     9   opls_808      1    UNK   C08      1    -0.2294    12.0110 
    10   opls_809      1    UNK   C09      1    -0.1464    12.0110 
    11   opls_810      1    UNK   C0A      1    -0.2782    12.0110 
    12   opls_811      1    UNK   C0B      1     0.3164    12.0110 
    13   opls_812      1    UNK   O0C      1    -0.4178    15.9990 
    14   opls_813      1    UNK   C0D      1     0.4607    12.0110 
    15   opls_814      1    UNK   F0E      1    -0.1634    18.9984 
    16   opls_815      1    UNK   F0F      1    -0.1634    18.9984 
    17   opls_816      1    UNK   F0G      1    -0.1634    18.9984 
    18   opls_817      1    UNK   H0H      1      0.082     1.0080 
    19   opls_818      1    UNK   H0I      1      0.082     1.0080 
    20   opls_819      1    UNK   H0J      1      0.082     1.0080 
    21   opls_820      1    UNK   H0K      1     0.0913     1.0080 
    22   opls_821      1    UNK   H0M      1     0.0913     1.0080 
    23   opls_822      1    UNK   H0N      1     0.0889     1.0080 
    24   opls_823      1    UNK   H0O      1     0.0889     1.0080 
    25   opls_824      1    UNK   H0P      1     0.1048     1.0080 
    26   opls_825      1    UNK   H0Q      1     0.1048     1.0080 
    27   opls_826      1    UNK   H0R      1     0.1203     1.0080 
    28   opls_827      1    UNK   H0S      1     0.1203     1.0080 
    29   opls_828      1    UNK   H0T      1     0.1405     1.0080 
    30   opls_829      1    UNK   H0U      1     0.0955     1.0080 
    31   opls_830      1    UNK   H0V      1     0.0955     1.0080 
    32   opls_831      1    UNK   H0W      1     0.0955     1.0080 
    33   opls_832      1    UNK   H0X      2     0.1228     1.0080 
    34   opls_833      1    UNK   H0Y      2     0.1228     1.0080 
    35   opls_834      1    UNK   H0Z      2     0.1822     1.0080 
    36   opls_835      1    UNK   H10      2     0.1321     1.0080 
[ bonds ]
    2     1     1      0.1529 224262.400
    3     2     1      0.1529 224262.400
    4     3     1      0.1529 224262.400
    5     4     1      0.1529 224262.400
    6     5     1      0.1522 265265.600
    7     6     1      0.1229 476976.000
    8     6     1      0.1522 265265.600
    9     8     1      0.1529 224262.400
   10     8     1      0.1529 224262.400
   11    10     1      0.1529 224262.400
   12    11     1      0.1522 265265.600
   13    12     1      0.1229 476976.000
   14    11     1      0.1529 224262.400
   15    14     1      0.1360 307105.600
   16    14     1      0.1360 307105.600
   17    14     1      0.1360 307105.600
   18     1     1      0.1090 284512.000
   19     1     1      0.1090 284512.000
   20     1     1      0.1090 284512.000
   21     2     1      0.1090 284512.000
   22     2     1      0.1090 284512.000
   23     3     1      0.1090 284512.000
   24     3     1      0.1090 284512.000
   25     4     1      0.1090 284512.000
   26     4     1      0.1090 284512.000
   27     5     1      0.1090 284512.000
   28     5     1      0.1090 284512.000
   29     8     1      0.1090 284512.000
   30     9     1      0.1090 284512.000
   31     9     1      0.1090 284512.000
   32     9     1      0.1090 284512.000
   33    10     1      0.1090 284512.000
   34    10     1      0.1090 284512.000
   35    11     1      0.1090 284512.000
   36    12     1      0.1090 284512.000

[ angles ]
;  ai    aj    ak funct            c0            c1            c2            c3 
    1     2     3     1    112.700    488.273
    2     3     4     1    112.700    488.273
    3     4     5     1    112.700    488.273
    4     5     6     1    111.100    527.184
    5     6     7     1    120.400    669.440
    5     6     8     1    116.000    585.760
    6     8     9     1    111.100    527.184
    6     8    10     1    111.100    527.184
    8    10    11     1    112.700    488.273
   10    11    12     1    111.100    527.184
   11    12    13     1    120.400    669.440
   10    11    14     1    112.700    488.273
   11    14    15     1    109.500    418.400
   11    14    16     1    109.500    418.400
   11    14    17     1    109.500    418.400
    2     1    18     1    110.700    313.800
    2     1    19     1    110.700    313.800
    2     1    20     1    110.700    313.800
    1     2    21     1    110.700    313.800
    1     2    22     1    110.700    313.800
    2     3    23     1    110.700    313.800
    2     3    24     1    110.700    313.800
    3     4    25     1    110.700    313.800
    3     4    26     1    110.700    313.800
    4     5    27     1    110.700    313.800
    4     5    28     1    110.700    313.800
    6     8    29     1    109.500    292.880
    8     9    30     1    110.700    313.800
    8     9    31     1    110.700    313.800
    8     9    32     1    110.700    313.800
    8    10    33     1    110.700    313.800
    8    10    34     1    110.700    313.800
   10    11    35     1    110.700    313.800
   11    12    36     1    115.000    292.880
   11    10    33     1    110.700    313.800
   14    11    35     1    110.700    313.800
    3     2    21     1    110.700    313.800
   30     9    31     1    107.800    276.144
    9     8    29     1    110.700    313.800
    5     4    26     1    110.700    313.800
   12    11    35     1    109.500    292.880
   11    10    34     1    110.700    313.800
   13    12    36     1    123.000    292.880
   15    14    17     1    109.100    644.336
   25     4    26     1    107.800    276.144
    4     3    23     1    110.700    313.800
    3     2    22     1    110.700    313.800
   10     8    29     1    110.700    313.800
   23     3    24     1    107.800    276.144
    6     5    27     1    109.500    292.880
   15    14    16     1    109.100    644.336
   16    14    17     1    109.100    644.336
   30     9    32     1    107.800    276.144
    5     4    25     1    110.700    313.800
    4     3    24     1    110.700    313.800
   21     2    22     1    107.800    276.144
   27     5    28     1    107.800    276.144
    7     6     8     1    120.400    669.440
   18     1    20     1    107.800    276.144
   33    10    34     1    107.800    276.144
   31     9    32     1    107.800    276.144
   12    11    14     1    111.100    527.184
   18     1    19     1    107.800    276.144
   19     1    20     1    107.800    276.144
    6     5    28     1    109.500    292.880
    9     8    10     1    112.700    488.273

[ dihedrals ]
; IMPROPER DIHEDRAL ANGLES 
;  ai    aj    ak    al funct            c0            c1            c2            c3            c4            c5
     8     6     5     7    4        180.000     43.932     2  
    36    12    11    13    4        180.000     43.932     2  

[ dihedrals ]
; PROPER DIHEDRAL ANGLES
;  ai    aj    ak    al funct            c0            c1            c2            c3            c4            c5
   12   11   10    8        3      -4.960   6.286   1.310  -2.636  -0.000   0.000
    6    5    4    3        3      -4.960   6.286   1.310  -2.636  -0.000   0.000
   14   11   12   13        3       0.000   0.000   0.000  -0.000  -0.000   0.000
   14   11   10    8        3       2.301  -1.464   0.837  -1.674  -0.000   0.000
    8    6    5    4        3       0.818  -7.906   0.602   6.485  -0.000   0.000
   10    8    6    5        3       0.818  -7.906   0.602   6.485  -0.000   0.000
    9    8    6    5        3       0.818  -7.906   0.602   6.485  -0.000   0.000
    9    8    6    7        3       0.000   0.000   0.000  -0.000  -0.000   0.000
   10    8    6    7        3       0.000   0.000   0.000  -0.000  -0.000   0.000
   11   10    8    6        3      -4.960   6.286   1.310  -2.636  -0.000   0.000
   11   10    8    9        3       2.301  -1.464   0.837  -1.674  -0.000   0.000
    5    4    3    2        3       2.301  -1.464   0.837  -1.674  -0.000   0.000
    4    3    2    1        3       2.301  -1.464   0.837  -1.674  -0.000   0.000
   15   14   11   12        3       0.000   0.000   0.000  -0.000  -0.000   0.000
   17   14   11   12        3       0.000   0.000   0.000  -0.000  -0.000   0.000
   16   14   11   12        3       0.000   0.000   0.000  -0.000  -0.000   0.000
   15   14   11   10        3       0.000   0.000   0.000  -0.000  -0.000   0.000
   16   14   11   10        3       0.000   0.000   0.000  -0.000  -0.000   0.000
   17   14   11   10        3       0.000   0.000   0.000  -0.000  -0.000   0.000
   36   12   11   14        3       0.000   0.000   0.000  -0.000  -0.000   0.000
   36   12   11   10        3       0.000   0.000   0.000  -0.000  -0.000   0.000
   36   12   11   35        3       0.753   2.259   0.000  -3.012  -0.000   0.000
   29    8    6    5        3       0.575   1.726   0.000  -2.301  -0.000   0.000
   27    5    6    8        3       0.575   1.726   0.000  -2.301  -0.000   0.000
   28    5    6    8        3       0.575   1.726   0.000  -2.301  -0.000   0.000
   27    5    6    7        3       0.000   0.000   0.000  -0.000  -0.000   0.000
   35   11   12   13        3       0.000   0.000   0.000  -0.000  -0.000   0.000
   28    5    6    7        3       0.000   0.000   0.000  -0.000  -0.000   0.000
   29    8    6    7        3       0.000   0.000   0.000  -0.000  -0.000   0.000
   35   11   14   15        3       0.753   2.259   0.000  -3.012  -0.000   0.000
   35   11   14   17        3       0.753   2.259   0.000  -3.012  -0.000   0.000
   35   11   14   16        3       0.753   2.259   0.000  -3.012  -0.000   0.000
   32    9    8    6        3      -0.209  -0.628   0.000   0.837  -0.000   0.000
   33   10    8    6        3      -0.209  -0.628   0.000   0.837  -0.000   0.000
   33   10   11   12        3      -0.209  -0.628   0.000   0.837  -0.000   0.000
   25    4    5    6        3      -0.209  -0.628   0.000   0.837  -0.000   0.000
   31    9    8    6        3      -0.209  -0.628   0.000   0.837  -0.000   0.000
   26    4    5    6        3      -0.209  -0.628   0.000   0.837  -0.000   0.000
   34   10    8    6        3      -0.209  -0.628   0.000   0.837  -0.000   0.000
   34   10   11   12        3      -0.209  -0.628   0.000   0.837  -0.000   0.000
   30    9    8    6        3      -0.209  -0.628   0.000   0.837  -0.000   0.000
   34   10   11   14        3       0.628   1.883   0.000  -2.510  -0.000   0.000
   33   10   11   14        3       0.628   1.883   0.000  -2.510  -0.000   0.000
   24    3    4    5        3       0.628   1.883   0.000  -2.510  -0.000   0.000
   19    1    2    3        3       0.628   1.883   0.000  -2.510  -0.000   0.000
   34   10    8    9        3       0.628   1.883   0.000  -2.510  -0.000   0.000
   31    9    8   10        3       0.628   1.883   0.000  -2.510  -0.000   0.000
   20    1    2    3        3       0.628   1.883   0.000  -2.510  -0.000   0.000
   23    3    2    1        3       0.628   1.883   0.000  -2.510  -0.000   0.000
   24    3    2    1        3       0.628   1.883   0.000  -2.510  -0.000   0.000
   33   10    8    9        3       0.628   1.883   0.000  -2.510  -0.000   0.000
   27    5    4    3        3       0.628   1.883   0.000  -2.510  -0.000   0.000
   30    9    8   10        3       0.628   1.883   0.000  -2.510  -0.000   0.000
   28    5    4    3        3       0.628   1.883   0.000  -2.510  -0.000   0.000
   23    3    4    5        3       0.628   1.883   0.000  -2.510  -0.000   0.000
   35   11   10    8        3       0.628   1.883   0.000  -2.510  -0.000   0.000
   25    4    3    2        3       0.628   1.883   0.000  -2.510  -0.000   0.000
   29    8   10   11        3       0.628   1.883   0.000  -2.510  -0.000   0.000
   18    1    2    3        3       0.628   1.883   0.000  -2.510  -0.000   0.000
   26    4    3    2        3       0.628   1.883   0.000  -2.510  -0.000   0.000
   22    2    3    4        3       0.628   1.883   0.000  -2.510  -0.000   0.000
   32    9    8   10        3       0.628   1.883   0.000  -2.510  -0.000   0.000
   21    2    3    4        3       0.628   1.883   0.000  -2.510  -0.000   0.000
   22    2    1   18        3       0.628   1.883   0.000  -2.510  -0.000   0.000
   21    2    1   19        3       0.628   1.883   0.000  -2.510  -0.000   0.000
   28    5    4   26        3       0.628   1.883   0.000  -2.510  -0.000   0.000
   28    5    4   25        3       0.628   1.883   0.000  -2.510  -0.000   0.000
   32    9    8   29        3       0.628   1.883   0.000  -2.510  -0.000   0.000
   27    5    4   26        3       0.628   1.883   0.000  -2.510  -0.000   0.000
   22    2    1   19        3       0.628   1.883   0.000  -2.510  -0.000   0.000
   31    9    8   29        3       0.628   1.883   0.000  -2.510  -0.000   0.000
   24    3    2   22        3       0.628   1.883   0.000  -2.510  -0.000   0.000
   34   10    8   29        3       0.628   1.883   0.000  -2.510  -0.000   0.000
   24    3    2   21        3       0.628   1.883   0.000  -2.510  -0.000   0.000
   26    4    3   24        3       0.628   1.883   0.000  -2.510  -0.000   0.000
   25    4    3   24        3       0.628   1.883   0.000  -2.510  -0.000   0.000
   26    4    3   23        3       0.628   1.883   0.000  -2.510  -0.000   0.000
   35   11   10   33        3       0.628   1.883   0.000  -2.510  -0.000   0.000
   23    3    2   21        3       0.628   1.883   0.000  -2.510  -0.000   0.000
   22    2    1   20        3       0.628   1.883   0.000  -2.510  -0.000   0.000
   33   10    8   29        3       0.628   1.883   0.000  -2.510  -0.000   0.000
   27    5    4   25        3       0.628   1.883   0.000  -2.510  -0.000   0.000
   30    9    8   29        3       0.628   1.883   0.000  -2.510  -0.000   0.000
   35   11   10   34        3       0.628   1.883   0.000  -2.510  -0.000   0.000
   21    2    1   20        3       0.628   1.883   0.000  -2.510  -0.000   0.000
   25    4    3   23        3       0.628   1.883   0.000  -2.510  -0.000   0.000
   21    2    1   18        3       0.628   1.883   0.000  -2.510  -0.000   0.000
   23    3    2   22        3       0.628   1.883   0.000  -2.510  -0.000   0.000
   13   12   11   10        3       0.000   0.000   0.000  -0.000  -0.000   0.000
    7    6    5    4        3       0.000   0.000   0.000  -0.000  -0.000   0.000

[ pairs ]
     1     4    1
     2     5    1
     3     6    1
     4     7    1
     4     8    1
     5     9    1
     5    10    1
     7     9    1
     7    10    1
     6    11    1
     9    11    1
     8    12    1
     3    18    1
     8    14    1
     3    19    1
    10    13    1
     3    20    1
     1    23    1
    10    15    1
     4    21    1
     1    24    1
    10    16    1
     4    22    1
    13    14    1
    12    15    1
    10    17    1
     2    25    1
    12    16    1
     5    23    1
     2    26    1
    12    17    1
     5    24    1
     3    27    1
     6    25    1
     3    28    1
     6    26    1
     7    27    1
     5    29    1
     8    27    1
     7    28    1
     8    28    1
     7    29    1
     6    30    1
     6    31    1
     6    32    1
    18    21    1
     6    33    1
    19    21    1
    18    22    1
    11    29    1
    10    30    1
     6    34    1
    20    21    1
    19    22    1
    10    31    1
    20    22    1
    10    32    1
     9    33    1
     9    34    1
     8    35    1
    21    23    1
    22    23    1
    21    24    1
    12    33    1
    22    24    1
    12    34    1
    10    36    1
    14    33    1
    23    25    1
    14    34    1
    13    35    1
    24    25    1
    23    26    1
    24    26    1
    15    35    1
    14    36    1
    16    35    1
    25    27    1
    17    35    1
    26    27    1
    25    28    1
    26    28    1
    29    30    1
    29    31    1
    29    32    1
    29    33    1
    29    34    1
    33    35    1
    34    35    1
    35    36    1

