LIGPARGEN GENERATED GRO FILE
   36
    1UNK    C00    1   0.100   0.100   0.000
    1UNK    C01    2  -0.052   0.100   0.000
    1UNK    C02    3  -0.114   0.100   0.141
    1UNK    C03    4  -0.074   0.225   0.220
    1UNK    C04    5  -0.269   0.088   0.138
    1UNK    C05    6  -0.314  -0.043   0.075
    1UNK    C06    7  -0.277  -0.178   0.146
    1UNK    C07    8  -0.265  -0.183   0.298
    1UNK    C08    9  -0.411  -0.235   0.091
    1UNK    C09   10  -0.397  -0.314  -0.039
    1UNK    C0A   11  -0.464  -0.088   0.087
    1UNK    C0B   12  -0.558  -0.051  -0.026
    1UNK    H0C   13   0.137   0.090  -0.102
    1UNK    H0D   14   0.139   0.016   0.059
    1UNK    H0E   15   0.140   0.193   0.040
    1UNK    H0F   16  -0.083   0.010  -0.055
    1UNK    H0G   17  -0.089   0.186  -0.057
    1UNK    H0H   18  -0.074   0.014   0.195
    1UNK    H0I   19  -0.097   0.316   0.164
    1UNK    H0J   20   0.033   0.225   0.242
    1UNK    H0K   21  -0.127   0.230   0.316
    1UNK    H0M   22  -0.311   0.173   0.082
    1UNK    H0N   23  -0.308   0.096   0.240
    1UNK    H0O   24  -0.285  -0.044  -0.031
    1UNK    H0P   25  -0.187  -0.224   0.102
    1UNK    H0Q   26  -0.350  -0.134   0.347
    1UNK    H0R   27  -0.174  -0.133   0.332
    1UNK    H0S   28  -0.262  -0.287   0.332
    1UNK    H0T   29  -0.466  -0.297   0.164
    1UNK    H0U   30  -0.344  -0.257  -0.116
    1UNK    H0V   31  -0.496  -0.340  -0.079
    1UNK    H0W   32  -0.342  -0.407  -0.022
    1UNK    H0X   33  -0.508  -0.058   0.183
    1UNK    H0Y   34  -0.514  -0.068  -0.124
    1UNK    H0Z   35  -0.587   0.055  -0.020
    1UNK    H10   36  -0.650  -0.111  -0.019
   1.00000   1.00000   1.00000

