LIGPARGEN GENERATED GRO FILE
   39
    1UNK    C00    1   0.100   0.100   0.000
    1UNK    C01    2  -0.052   0.100   0.000
    1UNK    C02    3  -0.110   0.100   0.143
    1UNK    C03    4  -0.267   0.100   0.155
    1UNK    C04    5  -0.318   0.234   0.096
    1UNK    C05    6  -0.328  -0.015   0.070
    1UNK    C06    7  -0.290  -0.154   0.121
    1UNK    C07    8  -0.328  -0.177   0.268
    1UNK    C08    9  -0.476  -0.214   0.283
    1UNK    C09   10  -0.284  -0.060   0.358
    1UNK    C0A   11  -0.314   0.084   0.307
    1UNK    C0B   12  -0.242   0.182   0.403
    1UNK    C0C   13  -0.466   0.114   0.325
    1UNK    H0D   14   0.138   0.089  -0.102
    1UNK    H0E   15   0.140   0.017   0.060
    1UNK    H0F   16   0.139   0.194   0.040
    1UNK    H0G   17  -0.086   0.011  -0.055
    1UNK    H0H   18  -0.086   0.188  -0.056
    1UNK    H0I   19  -0.069   0.189   0.194
    1UNK    H0J   20  -0.068   0.013   0.195
    1UNK    H0K   21  -0.291   0.244  -0.010
    1UNK    H0M   22  -0.276   0.320   0.149
    1UNK    H0N   23  -0.427   0.242   0.099
    1UNK    H0O   24  -0.298  -0.007  -0.034
    1UNK    H0P   25  -0.437  -0.007   0.068
    1UNK    H0Q   26  -0.182  -0.169   0.110
    1UNK    H0R   27  -0.338  -0.230   0.058
    1UNK    H0S   28  -0.273  -0.266   0.302
    1UNK    H0T   29  -0.542  -0.143   0.233
    1UNK    H0U   30  -0.504  -0.220   0.389
    1UNK    H0V   31  -0.494  -0.312   0.238
    1UNK    H0W   32  -0.175  -0.069   0.371
    1UNK    H0X   33  -0.326  -0.074   0.458
    1UNK    H0Y   34  -0.133   0.170   0.401
    1UNK    H0Z   35  -0.273   0.165   0.506
    1UNK    H10   36  -0.265   0.286   0.379
    1UNK    H11   37  -0.528   0.066   0.250
    1UNK    H12   38  -0.486   0.221   0.319
    1UNK    H13   39  -0.500   0.081   0.424
   1.00000   1.00000   1.00000

