LIGPARGEN GENERATED GRO FILE
   44
    1UNK    C00    1   0.100   0.100   0.000
    1UNK    C01    2  -0.052   0.100   0.000
    1UNK    C02    3  -0.119   0.100   0.140
    1UNK    C03    4  -0.272   0.100   0.118
    1UNK    C04    5  -0.363   0.100   0.245
    1UNK    C05    6  -0.341   0.228   0.330
    1UNK    C06    7  -0.373   0.359   0.261
    1UNK    C07    8  -0.515   0.076   0.205
    1UNK    C08    9  -0.531  -0.062   0.138
    1UNK    C09   10  -0.618   0.093   0.322
    1UNK    C0A   11  -0.764   0.082   0.275
    1UNK    C0B   12  -0.596  -0.004   0.438
    1UNK    O0C   13  -0.083  -0.021   0.209
    1UNK    C0D   14   0.024  -0.016   0.293
    1UNK    C0E   15   0.054  -0.152   0.348
    1UNK    O0F   16   0.090   0.084   0.317
    1UNK    H0G   17   0.137   0.117  -0.102
    1UNK    H0H   18   0.140   0.004   0.033
    1UNK    H0I   19   0.140   0.179   0.064
    1UNK    H0J   20  -0.085   0.011  -0.056
    1UNK    H0K   21  -0.086   0.188  -0.056
    1UNK    H0M   22  -0.089   0.189   0.196
    1UNK    H0N   23  -0.293   0.010   0.061
    1UNK    H0O   24  -0.300   0.185   0.055
    1UNK    H0P   25  -0.332   0.015   0.308
    1UNK    H0Q   26  -0.237   0.231   0.365
    1UNK    H0R   27  -0.401   0.221   0.422
    1UNK    H0S   28  -0.295   0.386   0.189
    1UNK    H0T   29  -0.378   0.440   0.335
    1UNK    H0U   30  -0.469   0.357   0.209
    1UNK    H0V   31  -0.541   0.150   0.129
    1UNK    H0W   32  -0.500  -0.143   0.205
    1UNK    H0X   33  -0.473  -0.071   0.046
    1UNK    H0Y   34  -0.635  -0.081   0.107
    1UNK    H0Z   35  -0.608   0.195   0.362
    1UNK    H10   36  -0.788  -0.015   0.231
    1UNK    H11   37  -0.787   0.160   0.202
    1UNK    H12   38  -0.833   0.096   0.360
    1UNK    H13   39  -0.609  -0.108   0.407
    1UNK    H14   40  -0.668   0.015   0.519
    1UNK    H15   41  -0.496   0.006   0.481
    1UNK    H16   42  -0.039  -0.203   0.375
    1UNK    H17   43   0.114  -0.141   0.439
    1UNK    H18   44   0.110  -0.210   0.275
   1.00000   1.00000   1.00000

