LIGPARGEN GENERATED GRO FILE
   40
    1UNK    C00    1   0.100   0.100   0.000
    1UNK    C01    2  -0.053   0.100   0.000
    1UNK    C02    3  -0.109   0.100   0.143
    1UNK    C03    4  -0.070   0.223   0.222
    1UNK    O04    5  -0.137   0.326   0.222
    1UNK    C05    6  -0.110   0.218  -0.081
    1UNK    C06    7  -0.073   0.213  -0.228
    1UNK    O07    8  -0.062   0.107  -0.289
    1UNK    C08    9  -0.051   0.348  -0.295
    1UNK    C09   10  -0.080   0.342  -0.446
    1UNK    C0A   11  -0.060   0.475  -0.525
    1UNK    C0B   12  -0.154   0.584  -0.467
    1UNK    C0C   13   0.086   0.523  -0.507
    1UNK    C0D   14  -0.089   0.448  -0.678
    1UNK    C0E   15  -0.231   0.398  -0.708
    1UNK    C0F   16  -0.064   0.568  -0.761
    1UNK    N0G   17  -0.045   0.662  -0.826
    1UNK    H0H   18   0.138   0.015   0.057
    1UNK    H0I   19   0.140   0.192   0.044
    1UNK    H0J   20   0.140   0.092  -0.102
    1UNK    H0K   21  -0.086   0.006  -0.047
    1UNK    H0M   22  -0.074   0.013   0.199
    1UNK    H0N   23  -0.219   0.094   0.141
    1UNK    H0O   24   0.026   0.217   0.275
    1UNK    H0P   25  -0.073   0.312  -0.040
    1UNK    H0Q   26  -0.219   0.219  -0.076
    1UNK    H0R   27   0.052   0.377  -0.275
    1UNK    H0S   28  -0.119   0.420  -0.248
    1UNK    H0T   29  -0.183   0.306  -0.457
    1UNK    H0U   30  -0.016   0.264  -0.491
    1UNK    H0V   31  -0.127   0.610  -0.365
    1UNK    H0W   32  -0.258   0.550  -0.466
    1UNK    H0X   33  -0.149   0.676  -0.526
    1UNK    H0Y   34   0.109   0.545  -0.402
    1UNK    H0Z   35   0.106   0.615  -0.563
    1UNK    H10   36   0.156   0.446  -0.542
    1UNK    H11   37  -0.019   0.371  -0.711
    1UNK    H12   38  -0.308   0.468  -0.676
    1UNK    H13   39  -0.251   0.301  -0.661
    1UNK    H14   40  -0.244   0.383  -0.816
   1.00000   1.00000   1.00000

