LIGPARGEN GENERATED GRO FILE
   32
    1UNK    C00    1   0.100   0.100   0.000
    1UNK    C01    2  -0.051   0.100   0.000
    1UNK    O02    3  -0.113   0.100   0.106
    1UNK    C03    4  -0.125   0.106  -0.132
    1UNK    C04    5  -0.051   0.174  -0.235
    1UNK    N05    6   0.018   0.224  -0.314
    1UNK    C06    7  -0.218  -0.009  -0.179
    1UNK    C07    8  -0.244  -0.145  -0.114
    1UNK    C08    9  -0.308  -0.141   0.026
    1UNK    C09   10  -0.345  -0.222  -0.204
    1UNK    C0A   11  -0.114  -0.226  -0.109
    1UNK    C0B   12  -0.276   0.120  -0.122
    1UNK    S0C   13  -0.370   0.210  -0.246
    1UNK    O0D   14  -0.288   0.237  -0.362
    1UNK    O0E   15  -0.496   0.141  -0.258
    1UNK    C0F   16  -0.408   0.365  -0.170
    1UNK    O0G   17  -0.322   0.427  -0.109
    1UNK    H0H   18   0.136   0.023   0.069
    1UNK    H0I   19   0.135   0.198   0.034
    1UNK    H0J   20   0.142   0.078  -0.098
    1UNK    H0K   21  -0.220  -0.021  -0.287
    1UNK    H0M   22  -0.404  -0.089   0.025
    1UNK    H0N   23  -0.244  -0.092   0.100
    1UNK    H0O   24  -0.327  -0.242   0.063
    1UNK    H0P   25  -0.438  -0.165  -0.217
    1UNK    H0Q   26  -0.370  -0.319  -0.161
    1UNK    H0R   27  -0.303  -0.239  -0.304
    1UNK    H0S   28  -0.037  -0.174  -0.050
    1UNK    H0T   29  -0.073  -0.241  -0.209
    1UNK    H0U   30  -0.130  -0.324  -0.063
    1UNK    H0V   31  -0.320   0.121  -0.024
    1UNK    H0W   32  -0.512   0.399  -0.178
   1.00000   1.00000   1.00000

