LIGPARGEN GENERATED GRO FILE
   37
    1UNK    C00    1   0.100   0.100   0.000
    1UNK    O01    2  -0.041   0.100   0.000
    1UNK    C02    3  -0.116   0.100   0.125
    1UNK    C03    4  -0.071   0.222   0.207
    1UNK    C04    5  -0.264   0.124   0.067
    1UNK    C05    6  -0.292   0.004  -0.023
    1UNK    N06    7  -0.316  -0.095  -0.096
    1UNK    C07    8  -0.384   0.140   0.161
    1UNK    O08    9  -0.351   0.196   0.288
    1UNK    C09   10  -0.350   0.110   0.394
    1UNK    O0A   11  -0.422   0.124   0.491
    1UNK    O0B   12  -0.236   0.036   0.396
    1UNK    C0C   13  -0.221  -0.069   0.300
    1UNK    C0D   14  -0.104  -0.044   0.200
    1UNK    N0E   15   0.031  -0.090   0.252
    1UNK    C0F   16   0.070  -0.026   0.379
    1UNK    C0G   17   0.032  -0.239   0.266
    1UNK    C0H   18   0.163  -0.295   0.317
    1UNK    O0I   19   0.170  -0.378   0.408
    1UNK    H0J   20   0.133   0.189  -0.054
    1UNK    H0K   21   0.134   0.013  -0.056
    1UNK    H0M   22   0.146   0.100   0.099
    1UNK    H0N   23  -0.093   0.315   0.152
    1UNK    H0O   24   0.037   0.224   0.224
    1UNK    H0P   25  -0.118   0.230   0.305
    1UNK    H0Q   26  -0.260   0.213   0.001
    1UNK    H0R   27  -0.442   0.047   0.173
    1UNK    H0S   28  -0.455   0.209   0.114
    1UNK    H0T   29  -0.314  -0.090   0.247
    1UNK    H0U   30  -0.205  -0.160   0.359
    1UNK    H0V   31  -0.120  -0.115   0.118
    1UNK    H0W   32   0.089   0.080   0.365
    1UNK    H0X   33   0.165  -0.066   0.416
    1UNK    H0Y   34  -0.004  -0.039   0.458
    1UNK    H0Z   35   0.016  -0.285   0.168
    1UNK    H10   36  -0.045  -0.275   0.335
    1UNK    H11   37   0.254  -0.263   0.264
   1.00000   1.00000   1.00000

