LIGPARGEN GENERATED GRO FILE
   24
    1UNK    C00    1   0.100   0.100   0.000
    1UNK    C01    2  -0.053   0.100   0.000
    1UNK    C02    3  -0.118   0.100   0.139
    1UNK    P03    4  -0.076   0.254   0.238
    1UNK    C04    5  -0.273   0.091   0.130
    1UNK    C05    6  -0.323  -0.039   0.066
    1UNK    C06    7  -0.475  -0.045   0.058
    1UNK    C07    8  -0.534  -0.166  -0.009
    1UNK    O08    9  -0.547   0.043   0.104
    1UNK    H09   10   0.137   0.081  -0.101
    1UNK    H0A   11   0.140   0.022   0.065
    1UNK    H0B   12   0.141   0.197   0.031
    1UNK    H0C   13  -0.083   0.009  -0.054
    1UNK    H0D   14  -0.088   0.185  -0.059
    1UNK    H0E   15  -0.081   0.014   0.197
    1UNK    H0F   16  -0.095   0.348   0.134
    1UNK    H0G   17   0.065   0.247   0.228
    1UNK    H0H   18  -0.312   0.177   0.074
    1UNK    H0I   19  -0.316   0.098   0.231
    1UNK    H0J   20  -0.288  -0.125   0.124
    1UNK    H0K   21  -0.286  -0.047  -0.037
    1UNK    H0M   22  -0.457  -0.242  -0.024
    1UNK    H0N   23  -0.574  -0.137  -0.106
    1UNK    H0O   24  -0.612  -0.208   0.055
   1.00000   1.00000   1.00000

