
;
; GENERATED BY LigParGen Server
; Jorgensen Lab @ Yale University 
;
[ atomtypes ]
  opls_818  H818     1.0080     0.000    A    2.50000E-01   1.25520E-01
  opls_808  O808    15.9990     0.000    A    2.96000E-01   8.78640E-01
  opls_813  H813     1.0080     0.000    A    2.50000E-01   1.25520E-01
  opls_803  P803    30.9738     0.000    A    3.74000E-01   8.36800E-01
  opls_802  C802    12.0110     0.000    A    3.50000E-01   2.76144E-01
  opls_815  H815     1.0080     0.000    A    0.00000E+00   0.00000E+00
  opls_801  C801    12.0110     0.000    A    3.50000E-01   2.76144E-01
  opls_822  H822     1.0080     0.000    A    2.50000E-01   1.25520E-01
  opls_807  C807    12.0110     0.000    A    3.50000E-01   2.76144E-01
  opls_814  H814     1.0080     0.000    A    2.50000E-01   1.25520E-01
  opls_821  H821     1.0080     0.000    A    2.50000E-01   1.25520E-01
  opls_820  H820     1.0080     0.000    A    2.50000E-01   1.25520E-01
  opls_811  H811     1.0080     0.000    A    2.50000E-01   1.25520E-01
  opls_810  H810     1.0080     0.000    A    2.50000E-01   1.25520E-01
  opls_816  H816     1.0080     0.000    A    0.00000E+00   0.00000E+00
  opls_800  C800    12.0110     0.000    A    3.50000E-01   2.76144E-01
  opls_805  C805    12.0110     0.000    A    3.50000E-01   2.76144E-01
  opls_823  H823     1.0080     0.000    A    2.50000E-01   1.25520E-01
  opls_806  C806    12.0110     0.000    A    3.55000E-01   2.92880E-01
  opls_819  H819     1.0080     0.000    A    2.50000E-01   1.25520E-01
  opls_804  C804    12.0110     0.000    A    3.50000E-01   2.76144E-01
  opls_817  H817     1.0080     0.000    A    2.50000E-01   1.25520E-01
  opls_812  H812     1.0080     0.000    A    2.50000E-01   1.25520E-01
  opls_809  H809     1.0080     0.000    A    2.50000E-01   1.25520E-01
[ moleculetype ]
; Name               nrexcl
UNK                   3
[ atoms ]
;   nr       type  resnr residue  atom   cgnr     charge       mass  
     1   opls_800      1    UNK   C00      1    -0.2454    12.0110 
     2   opls_801      1    UNK   C01      1    -0.1947    12.0110 
     3   opls_802      1    UNK   C02      1    -0.1775    12.0110 
     4   opls_803      1    UNK   P03      1     0.0039    30.9738 
     5   opls_804      1    UNK   C04      1    -0.1686    12.0110 
     6   opls_805      1    UNK   C05      1    -0.2342    12.0110 
     7   opls_806      1    UNK   C06      1     0.3599    12.0110 
     8   opls_807      1    UNK   C07      1    -0.3033    12.0110 
     9   opls_808      1    UNK   O08      1    -0.4448    15.9990 
    10   opls_809      1    UNK   H09      1     0.0853     1.0080 
    11   opls_810      1    UNK   H0A      1     0.0853     1.0080 
    12   opls_811      1    UNK   H0B      1     0.0853     1.0080 
    13   opls_812      1    UNK   H0C      1     0.0938     1.0080 
    14   opls_813      1    UNK   H0D      1     0.0938     1.0080 
    15   opls_814      1    UNK   H0E      1     0.1131     1.0080 
    16   opls_815      1    UNK   H0F      1     0.0157     1.0080 
    17   opls_816      1    UNK   H0G      1     0.0157     1.0080 
    18   opls_817      1    UNK   H0H      1     0.1159     1.0080 
    19   opls_818      1    UNK   H0I      1     0.1159     1.0080 
    20   opls_819      1    UNK   H0J      1     0.1182     1.0080 
    21   opls_820      1    UNK   H0K      1     0.1182     1.0080 
    22   opls_821      1    UNK   H0M      1     0.1163     1.0080 
    23   opls_822      1    UNK   H0N      1     0.1163     1.0080 
    24   opls_823      1    UNK   H0O      1     0.1163     1.0080 
[ bonds ]
    2     1     1      0.1529 224262.400
    3     2     1      0.1529 224262.400
    4     3     1      0.1843 177401.600
    5     3     1      0.1529 224262.400
    6     5     1      0.1529 224262.400
    7     6     1      0.1522 265265.600
    8     7     1      0.1522 265265.600
    9     7     1      0.1229 476976.000
   10     1     1      0.1090 284512.000
   11     1     1      0.1090 284512.000
   12     1     1      0.1090 284512.000
   13     2     1      0.1090 284512.000
   14     2     1      0.1090 284512.000
   15     3     1      0.1090 284512.000
   16     4     1      0.1310 214806.560
   17     4     1      0.1310 214806.560
   18     5     1      0.1090 284512.000
   19     5     1      0.1090 284512.000
   20     6     1      0.1090 284512.000
   21     6     1      0.1090 284512.000
   22     8     1      0.1090 284512.000
   23     8     1      0.1090 284512.000
   24     8     1      0.1090 284512.000

[ angles ]
;  ai    aj    ak funct            c0            c1            c2            c3 
    1     2     3     1    112.700    488.273
    2     3     4     1    109.500    359.824
    2     3     5     1    112.700    488.273
    3     5     6     1    112.700    488.273
    5     6     7     1    111.100    527.184
    6     7     8     1    116.000    585.760
    6     7     9     1    120.400    669.440
    2     1    10     1    110.700    313.800
    2     1    11     1    110.700    313.800
    2     1    12     1    110.700    313.800
    1     2    13     1    110.700    313.800
    1     2    14     1    110.700    313.800
    2     3    15     1    110.700    313.800
    3     4    16     1    108.400    531.954
    3     4    17     1    108.400    531.954
    3     5    18     1    110.700    313.800
    3     5    19     1    110.700    313.800
    5     6    20     1    110.700    313.800
    5     6    21     1    110.700    313.800
    7     8    22     1    109.500    292.880
    7     8    23     1    109.500    292.880
    7     8    24     1    109.500    292.880
    3     2    14     1    110.700    313.800
   13     2    14     1    107.800    276.144
   20     6    21     1    107.800    276.144
    6     5    19     1    110.700    313.800
    8     7     9     1    120.400    669.440
    4     3     5     1    109.500    359.824
   16     4    17     1    108.400    531.954
   22     8    23     1    107.800    276.144
   11     1    12     1    107.800    276.144
   22     8    24     1    107.800    276.144
    5     3    15     1    110.700    313.800
   10     1    12     1    107.800    276.144
   10     1    11     1    107.800    276.144
    3     2    13     1    110.700    313.800
   18     5    19     1    107.800    276.144
   23     8    24     1    107.800    276.144
    7     6    21     1    109.500    292.880
    4     3    15     1    109.500    343.088
    7     6    20     1    109.500    292.880
    6     5    18     1    110.700    313.800

[ dihedrals ]
; IMPROPER DIHEDRAL ANGLES 
;  ai    aj    ak    al funct            c0            c1            c2            c3            c4            c5
     9     7     6     8    4        180.000     43.932     2  

[ dihedrals ]
; PROPER DIHEDRAL ANGLES
;  ai    aj    ak    al funct            c0            c1            c2            c3            c4            c5
    7    6    5    3        3      -4.960   6.286   1.310  -2.636  -0.000   0.000
    8    7    6    5        3       0.818  -7.906   0.602   6.485  -0.000   0.000
    6    5    3    2        3       2.301  -1.464   0.837  -1.674  -0.000   0.000
    5    3    2    1        3       2.301  -1.464   0.837  -1.674  -0.000   0.000
    6    5    3    4        3      -0.766   2.707   4.025  -5.966  -0.000   0.000
   16    4    3    5        3       0.000   0.000   0.000  -0.000  -0.000   0.000
   17    4    3    2        3       0.000   0.000   0.000  -0.000  -0.000   0.000
   17    4    3    5        3       0.000   0.000   0.000  -0.000  -0.000   0.000
   16    4    3    2        3       0.000   0.000   0.000  -0.000  -0.000   0.000
   17    4    3   15        3       0.000   0.000   0.000  -0.000  -0.000   0.000
   16    4    3   15        3       0.000   0.000   0.000  -0.000  -0.000   0.000
   23    8    7    6        3       0.575   1.726   0.000  -2.301  -0.000   0.000
   22    8    7    6        3       0.575   1.726   0.000  -2.301  -0.000   0.000
   21    6    7    8        3       0.575   1.726   0.000  -2.301  -0.000   0.000
   24    8    7    6        3       0.575   1.726   0.000  -2.301  -0.000   0.000
   20    6    7    8        3       0.575   1.726   0.000  -2.301  -0.000   0.000
   23    8    7    9        3       0.000   0.000   0.000  -0.000  -0.000   0.000
   20    6    7    9        3       0.000   0.000   0.000  -0.000  -0.000   0.000
   22    8    7    9        3       0.000   0.000   0.000  -0.000  -0.000   0.000
   21    6    7    9        3       0.000   0.000   0.000  -0.000  -0.000   0.000
   24    8    7    9        3       0.000   0.000   0.000  -0.000  -0.000   0.000
   18    5    6    7        3      -0.209  -0.628   0.000   0.837  -0.000   0.000
   19    5    6    7        3      -0.209  -0.628   0.000   0.837  -0.000   0.000
   19    5    3    2        3       0.628   1.883   0.000  -2.510  -0.000   0.000
   15    3    2    1        3       0.628   1.883   0.000  -2.510  -0.000   0.000
   12    1    2    3        3       0.628   1.883   0.000  -2.510  -0.000   0.000
   13    2    3    5        3       0.628   1.883   0.000  -2.510  -0.000   0.000
   18    5    3    2        3       0.628   1.883   0.000  -2.510  -0.000   0.000
   11    1    2    3        3       0.628   1.883   0.000  -2.510  -0.000   0.000
   21    6    5    3        3       0.628   1.883   0.000  -2.510  -0.000   0.000
   20    6    5    3        3       0.628   1.883   0.000  -2.510  -0.000   0.000
   14    2    3    5        3       0.628   1.883   0.000  -2.510  -0.000   0.000
   10    1    2    3        3       0.628   1.883   0.000  -2.510  -0.000   0.000
   15    3    5    6        3       0.628   1.883   0.000  -2.510  -0.000   0.000
   14    2    1   10        3       0.628   1.883   0.000  -2.510  -0.000   0.000
   13    2    1   10        3       0.628   1.883   0.000  -2.510  -0.000   0.000
   15    3    2   13        3       0.628   1.883   0.000  -2.510  -0.000   0.000
   15    3    2   14        3       0.628   1.883   0.000  -2.510  -0.000   0.000
   20    6    5   18        3       0.628   1.883   0.000  -2.510  -0.000   0.000
   18    5    3   15        3       0.628   1.883   0.000  -2.510  -0.000   0.000
   13    2    1   11        3       0.628   1.883   0.000  -2.510  -0.000   0.000
   14    2    1   11        3       0.628   1.883   0.000  -2.510  -0.000   0.000
   14    2    1   12        3       0.628   1.883   0.000  -2.510  -0.000   0.000
   21    6    5   19        3       0.628   1.883   0.000  -2.510  -0.000   0.000
   13    2    1   12        3       0.628   1.883   0.000  -2.510  -0.000   0.000
   21    6    5   18        3       0.628   1.883   0.000  -2.510  -0.000   0.000
   20    6    5   19        3       0.628   1.883   0.000  -2.510  -0.000   0.000
   19    5    3   15        3       0.628   1.883   0.000  -2.510  -0.000   0.000
   19    5    3    4        3       0.628   1.883   0.000  -2.510  -0.000   0.000
   14    2    3    4        3       0.628   1.883   0.000  -2.510  -0.000   0.000
   13    2    3    4        3       0.628   1.883   0.000  -2.510  -0.000   0.000
   18    5    3    4        3       0.628   1.883   0.000  -2.510  -0.000   0.000
    9    7    6    5        3       0.000   0.000   0.000  -0.000  -0.000   0.000
    4    3    2    1        3      -0.766   2.707   4.025  -5.966  -0.000   0.000

[ pairs ]
     1     4    1
     1     5    1
     2     6    1
     4     6    1
     3     7    1
     5     8    1
     3    10    1
     5     9    1
     3    11    1
     3    12    1
     1    15    1
     4    13    1
     5    13    1
     4    14    1
     2    16    1
     5    14    1
     2    17    1
     2    18    1
     6    15    1
     5    16    1
     2    19    1
     5    17    1
     4    18    1
    10    13    1
     4    19    1
     3    20    1
    11    13    1
    10    14    1
     3    21    1
    12    13    1
    11    14    1
     7    18    1
    12    14    1
     7    19    1
    13    15    1
     8    20    1
     6    22    1
    14    15    1
     9    20    1
     8    21    1
     6    23    1
     9    21    1
     6    24    1
    15    16    1
     9    22    1
    15    17    1
     9    23    1
    15    18    1
     9    24    1
    15    19    1
    18    20    1
    19    20    1
    18    21    1
    19    21    1

