LIGPARGEN GENERATED GRO FILE
   36
    1UNK    C00    1   0.100   0.100   0.000
    1UNK    C01    2  -0.052   0.100   0.000
    1UNK    F02    3  -0.093   0.100   0.131
    1UNK    C03    4  -0.114   0.223  -0.067
    1UNK    C04    5  -0.080   0.242  -0.217
    1UNK    C05    6  -0.126   0.125  -0.305
    1UNK    C06    7  -0.279   0.122  -0.324
    1UNK    C07    8  -0.320  -0.002  -0.403
    1UNK    C08    9  -0.331   0.255  -0.386
    1UNK    C09   10  -0.291   0.272  -0.533
    1UNK    C0A   11  -0.286   0.373  -0.296
    1UNK    C0B   12  -0.333   0.509  -0.349
    1UNK    C0C   13  -0.135   0.375  -0.270
    1UNK    H0D   14   0.137   0.016   0.060
    1UNK    H0E   15   0.139   0.192   0.046
    1UNK    H0F   16   0.141   0.091  -0.101
    1UNK    H0G   17  -0.089   0.007  -0.044
    1UNK    H0H   18  -0.082   0.312  -0.012
    1UNK    H0I   19  -0.223   0.217  -0.053
    1UNK    H0J   20   0.030   0.248  -0.225
    1UNK    H0K   21  -0.092   0.029  -0.264
    1UNK    H0M   22  -0.077   0.133  -0.403
    1UNK    H0N   23  -0.325   0.112  -0.225
    1UNK    H0O   24  -0.270  -0.008  -0.500
    1UNK    H0P   25  -0.429  -0.003  -0.419
    1UNK    H0Q   26  -0.294  -0.093  -0.348
    1UNK    H0R   27  -0.441   0.251  -0.383
    1UNK    H0S   28  -0.183   0.280  -0.546
    1UNK    H0T   29  -0.337   0.362  -0.576
    1UNK    H0U   30  -0.327   0.188  -0.594
    1UNK    H0V   31  -0.335   0.360  -0.199
    1UNK    H0W   32  -0.282   0.537  -0.442
    1UNK    H0X   33  -0.313   0.588  -0.276
    1UNK    H0Y   34  -0.441   0.509  -0.368
    1UNK    H0Z   35  -0.111   0.456  -0.200
    1UNK    H10   36  -0.083   0.399  -0.364
   1.00000   1.00000   1.00000

