LIGPARGEN GENERATED GRO FILE
   42
    1UNK    C00    1   0.100   0.100   0.000
    1UNK    C01    2  -0.052   0.100   0.000
    1UNK    C02    3  -0.108   0.100   0.143
    1UNK    C03    4  -0.263   0.106   0.149
    1UNK    C04    5  -0.328  -0.017   0.085
    1UNK    C05    6  -0.314   0.117   0.296
    1UNK    C06    7  -0.272   0.243   0.377
    1UNK    C07    8  -0.319   0.369   0.302
    1UNK    C08    9  -0.320   0.240   0.528
    1UNK    C09   10  -0.274   0.369   0.601
    1UNK    C0A   11  -0.473   0.240   0.531
    1UNK    O0B   12  -0.541   0.139   0.544
    1UNK    C0C   13  -0.269   0.113   0.605
    1UNK    C0D   14  -0.117   0.093   0.604
    1UNK    C0E   15  -0.319   0.109   0.750
    1UNK    O0F   16  -0.256   0.154   0.845
    1UNK    H0G   17   0.138   0.095  -0.103
    1UNK    H0H   18   0.139   0.013   0.054
    1UNK    H0I   19   0.139   0.191   0.047
    1UNK    H0J   20  -0.085   0.012  -0.055
    1UNK    H0K   21  -0.088   0.188  -0.054
    1UNK    H0M   22  -0.066   0.187   0.194
    1UNK    H0N   23  -0.073   0.011   0.196
    1UNK    H0O   24  -0.296   0.194   0.092
    1UNK    H0P   25  -0.323  -0.104   0.150
    1UNK    H0Q   26  -0.282  -0.045  -0.011
    1UNK    H0R   27  -0.434   0.004   0.064
    1UNK    H0S   28  -0.280   0.027   0.348
    1UNK    H0T   29  -0.424   0.112   0.294
    1UNK    H0U   30  -0.163   0.248   0.379
    1UNK    H0V   31  -0.427   0.367   0.283
    1UNK    H0W   32  -0.269   0.378   0.205
    1UNK    H0X   33  -0.296   0.461   0.355
    1UNK    H0Y   34  -0.323   0.458   0.562
    1UNK    H0Z   35  -0.166   0.384   0.592
    1UNK    H10   36  -0.300   0.367   0.707
    1UNK    H11   37  -0.521   0.338   0.516
    1UNK    H12   38  -0.312   0.022   0.561
    1UNK    H13   39  -0.062   0.188   0.616
    1UNK    H14   40  -0.084   0.048   0.510
    1UNK    H15   41  -0.084   0.027   0.686
    1UNK    H16   42  -0.420   0.068   0.764
   1.00000   1.00000   1.00000

