LIGPARGEN GENERATED GRO FILE
   44
    1UNK    C00    1   0.100   0.100   0.000
    1UNK    C01    2  -0.052   0.100   0.000
    1UNK    C02    3  -0.121   0.100   0.139
    1UNK    C03    4  -0.262   0.165   0.117
    1UNK    C04    5  -0.345   0.197   0.242
    1UNK    C05    6  -0.280   0.295   0.342
    1UNK    C06    7  -0.252   0.431   0.278
    1UNK    C07    8  -0.372   0.313   0.463
    1UNK    C08    9  -0.139  -0.042   0.202
    1UNK    C09   10  -0.017  -0.124   0.256
    1UNK    C0A   11  -0.071  -0.244   0.336
    1UNK    C0B   12   0.065  -0.186   0.140
    1UNK    C0C   13   0.074  -0.038   0.349
    1UNK    C0D   14   0.009   0.010   0.479
    1UNK    H0E   15   0.138   0.040  -0.083
    1UNK    H0F   16   0.144   0.061   0.091
    1UNK    H0G   17   0.139   0.201  -0.013
    1UNK    H0H   18  -0.090   0.016  -0.059
    1UNK    H0I   19  -0.081   0.190  -0.056
    1UNK    H0J   20  -0.064   0.164   0.207
    1UNK    H0K   21  -0.321   0.097   0.054
    1UNK    H0M   22  -0.251   0.257   0.060
    1UNK    H0N   23  -0.371   0.104   0.294
    1UNK    H0O   24  -0.441   0.239   0.208
    1UNK    H0P   25  -0.186   0.254   0.377
    1UNK    H0Q   26  -0.342   0.476   0.236
    1UNK    H0R   27  -0.177   0.423   0.199
    1UNK    H0S   28  -0.212   0.501   0.353
    1UNK    H0T   29  -0.468   0.356   0.434
    1UNK    H0U   30  -0.326   0.380   0.537
    1UNK    H0V   31  -0.391   0.217   0.512
    1UNK    H0W   32  -0.194  -0.105   0.130
    1UNK    H0X   33  -0.208  -0.031   0.287
    1UNK    H0Y   34  -0.134  -0.309   0.274
    1UNK    H0Z   35  -0.134  -0.213   0.421
    1UNK    H10   36   0.011  -0.305   0.376
    1UNK    H11   37   0.048  -0.294   0.131
    1UNK    H12   38   0.173  -0.172   0.154
    1UNK    H13   39   0.038  -0.146   0.043
    1UNK    H14   40   0.111   0.050   0.296
    1UNK    H15   41   0.163  -0.096   0.376
    1UNK    H16   42  -0.084   0.063   0.460
    1UNK    H17   43   0.077   0.079   0.530
    1UNK    H18   44  -0.011  -0.073   0.546
   1.00000   1.00000   1.00000

