LIGPARGEN GENERATED GRO FILE
   42
    1UNK    C00    1   0.100   0.100   0.000
    1UNK    C01    2  -0.053   0.100   0.000
    1UNK    C02    3  -0.104   0.100   0.144
    1UNK    C03    4  -0.114   0.212  -0.091
    1UNK    C04    5  -0.269   0.204  -0.093
    1UNK    C05    6  -0.331   0.255  -0.224
    1UNK    C06    7  -0.382   0.399  -0.220
    1UNK    C07    8  -0.364   0.474  -0.353
    1UNK    C08    9  -0.217   0.499  -0.392
    1UNK    C09   10  -0.148   0.603  -0.303
    1UNK    C0A   11   0.004   0.588  -0.303
    1UNK    C0B   12   0.065   0.547  -0.168
    1UNK    C0C   13   0.057   0.397  -0.138
    1UNK    C0D   14  -0.065   0.355  -0.058
    1UNK    H0E   15   0.138   0.011   0.050
    1UNK    H0F   16   0.140   0.187   0.053
    1UNK    H0G   17   0.139   0.100  -0.102
    1UNK    H0H   18  -0.084   0.004  -0.044
    1UNK    H0I   19  -0.075   0.191   0.198
    1UNK    H0J   20  -0.063   0.014   0.199
    1UNK    H0K   21  -0.213   0.091   0.149
    1UNK    H0M   22  -0.080   0.187  -0.192
    1UNK    H0N   23  -0.313   0.255  -0.006
    1UNK    H0O   24  -0.298   0.098  -0.085
    1UNK    H0P   25  -0.417   0.192  -0.248
    1UNK    H0Q   26  -0.261   0.238  -0.307
    1UNK    H0R   27  -0.337   0.457  -0.138
    1UNK    H0S   28  -0.489   0.396  -0.197
    1UNK    H0T   29  -0.417   0.570  -0.347
    1UNK    H0U   30  -0.412   0.416  -0.433
    1UNK    H0V   31  -0.216   0.536  -0.495
    1UNK    H0W   32  -0.162   0.405  -0.392
    1UNK    H0X   33  -0.187   0.602  -0.201
    1UNK    H0Y   34  -0.174   0.703  -0.343
    1UNK    H0Z   35   0.047   0.686  -0.329
    1UNK    H10   36   0.038   0.519  -0.382
    1UNK    H11   37   0.021   0.606  -0.086
    1UNK    H12   38   0.171   0.574  -0.171
    1UNK    H13   39   0.146   0.370  -0.080
    1UNK    H14   40   0.065   0.341  -0.232
    1UNK    H15   41  -0.145   0.426  -0.077
    1UNK    H16   42  -0.044   0.365   0.049
   1.00000   1.00000   1.00000

