LIGPARGEN GENERATED GRO FILE
   24
    1UNK    C00    1   0.100   0.100   0.000
    1UNK    C01    2  -0.053   0.100   0.000
    1UNK    C02    3  -0.105   0.100   0.144
    1UNK    C03    4  -0.111   0.221  -0.076
    1UNK    C04    5  -0.076   0.230  -0.226
    1UNK    C05    6  -0.122   0.107  -0.304
    1UNK    C06    7  -0.130   0.361  -0.288
    1UNK    C07    8  -0.277   0.371  -0.285
    1UNK    N08    9  -0.392   0.379  -0.281
    1UNK    H09   10   0.139   0.015   0.058
    1UNK    H0A   11   0.140   0.192   0.044
    1UNK    H0B   12   0.140   0.090  -0.101
    1UNK    H0C   13  -0.087   0.007  -0.047
    1UNK    H0D   14  -0.093   0.199   0.191
    1UNK    H0E   15  -0.051   0.027   0.206
    1UNK    H0F   16  -0.211   0.074   0.147
    1UNK    H0G   17  -0.078   0.313  -0.027
    1UNK    H0H   18  -0.221   0.218  -0.065
    1UNK    H0I   19   0.033   0.236  -0.236
    1UNK    H0J   20  -0.227   0.083  -0.283
    1UNK    H0K   21  -0.061   0.020  -0.279
    1UNK    H0M   22  -0.112   0.123  -0.412
    1UNK    H0N   23  -0.097   0.367  -0.393
    1UNK    H0O   24  -0.087   0.447  -0.236
   1.00000   1.00000   1.00000

