
;
; GENERATED BY LigParGen Server
; Jorgensen Lab @ Yale University 
;
[ atomtypes ]
  opls_818  H818     1.0080     0.000    A    2.50000E-01   1.25520E-01
  opls_814  C814    12.0110     0.000    A    3.50000E-01   2.76144E-01
  opls_803  O803    15.9990     0.000    A    2.90000E-01   5.85760E-01
  opls_824  H824     1.0080     0.000    A    2.50000E-01   1.25520E-01
  opls_828  H828     1.0080     0.000    A    2.50000E-01   1.25520E-01
  opls_806  C806    12.0110     0.000    A    3.50000E-01   2.76144E-01
  opls_827  H827     1.0080     0.000    A    2.50000E-01   1.25520E-01
  opls_809  C809    12.0110     0.000    A    3.50000E-01   2.76144E-01
  opls_830  H830     1.0080     0.000    A    2.50000E-01   1.25520E-01
  opls_802  O802    15.9990     0.000    A    2.96000E-01   8.78640E-01
  opls_822  H822     1.0080     0.000    A    2.50000E-01   1.25520E-01
  opls_807  C807    12.0110     0.000    A    3.50000E-01   2.76144E-01
  opls_825  H825     1.0080     0.000    A    2.50000E-01   1.25520E-01
  opls_815  C815    12.0110     0.000    A    3.30000E-01   2.76144E-01
  opls_805  C805    12.0110     0.000    A    3.50000E-01   2.76144E-01
  opls_820  H820     1.0080     0.000    A    2.50000E-01   1.25520E-01
  opls_801  C801    12.0110     0.000    A    3.55000E-01   2.92880E-01
  opls_821  H821     1.0080     0.000    A    2.50000E-01   1.25520E-01
  opls_831  H831     1.0080     0.000    A    2.50000E-01   1.25520E-01
  opls_810  C810    12.0110     0.000    A    3.55000E-01   2.92880E-01
  opls_832  H832     1.0080     0.000    A    2.50000E-01   1.25520E-01
  opls_800  C800    12.0110     0.000    A    3.50000E-01   2.76144E-01
  opls_823  H823     1.0080     0.000    A    2.50000E-01   1.25520E-01
  opls_833  H833     1.0080     0.000    A    2.50000E-01   1.25520E-01
  opls_826  H826     1.0080     0.000    A    2.50000E-01   1.25520E-01
  opls_813  O813    15.9990     0.000    A    2.96000E-01   8.78640E-01
  opls_816  N816    14.0070     0.000    A    3.20000E-01   7.11280E-01
  opls_819  H819     1.0080     0.000    A    2.50000E-01   1.25520E-01
  opls_804  C804    12.0110     0.000    A    3.50000E-01   2.76144E-01
  opls_829  H829     1.0080     0.000    A    2.50000E-01   1.25520E-01
  opls_808  C808    12.0110     0.000    A    3.50000E-01   2.76144E-01
  opls_817  H817     1.0080     0.000    A    2.50000E-01   1.25520E-01
  opls_811  O811    15.9990     0.000    A    2.96000E-01   8.78640E-01
  opls_812  C812    12.0110     0.000    A    3.55000E-01   2.92880E-01
[ moleculetype ]
; Name               nrexcl
UNK                   3
[ atoms ]
;   nr       type  resnr residue  atom   cgnr     charge       mass  
     1   opls_800      1    UNK   C00      1    -0.2615    12.0110 
     2   opls_801      1    UNK   C01      1     0.4373    12.0110 
     3   opls_802      1    UNK   O02      1    -0.4607    15.9990 
     4   opls_803      1    UNK   O03      1    -0.3662    15.9990 
     5   opls_804      1    UNK   C04      1    -0.0067    12.0110 
     6   opls_805      1    UNK   C05      1    -0.0444    12.0110 
     7   opls_806      1    UNK   C06      1    -0.2398    12.0110 
     8   opls_807      1    UNK   C07      1    -0.2414    12.0110 
     9   opls_808      1    UNK   C08      1    -0.1285    12.0110 
    10   opls_809      1    UNK   C09      1     -0.255    12.0110 
    11   opls_810      1    UNK   C0A      1     0.3199    12.0110 
    12   opls_811      1    UNK   O0B      1    -0.4354    15.9990 
    13   opls_812      1    UNK   C0C      1     0.3621    12.0110 
    14   opls_813      1    UNK   O0D      1    -0.4105    15.9990 
    15   opls_814      1    UNK   C0E      1    -0.0858    12.0110 
    16   opls_815      1    UNK   C0F      1     0.1292    12.0110 
    17   opls_816      1    UNK   N0G      1    -0.3655    14.0070 
    18   opls_817      1    UNK   H0H      1     0.1312     1.0080 
    19   opls_818      1    UNK   H0I      1     0.1312     1.0080 
    20   opls_819      1    UNK   H0J      1     0.1312     1.0080 
    21   opls_820      1    UNK   H0K      1     0.1233     1.0080 
    22   opls_821      1    UNK   H0M      1     0.1233     1.0080 
    23   opls_822      1    UNK   H0N      1     0.0939     1.0080 
    24   opls_823      1    UNK   H0O      1     0.0939     1.0080 
    25   opls_824      1    UNK   H0P      1     0.0939     1.0080 
    26   opls_825      1    UNK   H0Q      1     0.1007     1.0080 
    27   opls_826      1    UNK   H0R      1     0.1007     1.0080 
    28   opls_827      1    UNK   H0S      1     0.1007     1.0080 
    29   opls_828      1    UNK   H0T      1     0.1175     1.0080 
    30   opls_829      1    UNK   H0U      1     0.1407     1.0080 
    31   opls_830      1    UNK   H0V      1     0.1407     1.0080 
    32   opls_831      1    UNK   H0W      1     0.1073     1.0080 
    33   opls_832      1    UNK   H0X      2     0.1613     1.0080 
    34   opls_833      1    UNK   H0Y      2     0.1613     1.0080 
[ bonds ]
    2     1     1      0.1522 265265.600
    3     2     1      0.1229 476976.000
    4     2     1      0.1327 179075.200
    5     4     1      0.1410 267776.000
    6     5     1      0.1529 224262.400
    7     6     1      0.1529 224262.400
    8     6     1      0.1529 224262.400
    9     6     1      0.1529 224262.400
   10     9     1      0.1529 224262.400
   11    10     1      0.1522 265265.600
   12    11     1      0.1229 476976.000
   13     9     1      0.1522 265265.600
   14    13     1      0.1229 476976.000
   15    13     1      0.1522 265265.600
   16    15     1      0.1470 326352.000
   17    16     1      0.1157 543920.000
   18     1     1      0.1090 284512.000
   19     1     1      0.1090 284512.000
   20     1     1      0.1090 284512.000
   21     5     1      0.1090 284512.000
   22     5     1      0.1090 284512.000
   23     7     1      0.1090 284512.000
   24     7     1      0.1090 284512.000
   25     7     1      0.1090 284512.000
   26     8     1      0.1090 284512.000
   27     8     1      0.1090 284512.000
   28     8     1      0.1090 284512.000
   29     9     1      0.1090 284512.000
   30    10     1      0.1090 284512.000
   31    10     1      0.1090 284512.000
   32    11     1      0.1090 284512.000
   33    15     1      0.1090 284512.000
   34    15     1      0.1090 284512.000

[ angles ]
;  ai    aj    ak funct            c0            c1            c2            c3 
    1     2     3     1    120.400    669.440
    1     2     4     1    111.400    677.808
    2     4     5     1    116.900    694.544
    4     5     6     1    109.500    418.400
    5     6     7     1    112.700    488.273
    5     6     8     1    112.700    488.273
    5     6     9     1    112.700    488.273
    6     9    10     1    112.700    488.273
    9    10    11     1    111.100    527.184
   10    11    12     1    120.400    669.440
    6     9    13     1    111.100    527.184
    9    13    14     1    120.400    669.440
    9    13    15     1    116.000    585.760
   13    15    16     1    110.580    432.207
   15    16    17     1    180.000   1255.200
    2     1    18     1    109.500    292.880
    2     1    19     1    109.500    292.880
    2     1    20     1    109.500    292.880
    4     5    21     1    109.500    292.880
    4     5    22     1    109.500    292.880
    6     7    23     1    110.700    313.800
    6     7    24     1    110.700    313.800
    6     7    25     1    110.700    313.800
    6     8    26     1    110.700    313.800
    6     8    27     1    110.700    313.800
    6     8    28     1    110.700    313.800
    6     9    29     1    110.700    313.800
    9    10    30     1    110.700    313.800
    9    10    31     1    110.700    313.800
   10    11    32     1    115.000    292.880
   13    15    33     1    109.500    292.880
   13    15    34     1    109.500    292.880
   23     7    24     1    107.800    276.144
   10     9    29     1    110.700    313.800
    7     6     9     1    112.700    488.273
   23     7    25     1    107.800    276.144
   26     8    27     1    107.800    276.144
   10     9    13     1    111.100    527.184
   21     5    22     1    107.800    276.144
    6     5    22     1    110.700    313.800
   33    15    34     1    107.800    276.144
   26     8    28     1    107.800    276.144
   12    11    32     1    123.000    292.880
   14    13    15     1    120.400    669.440
   27     8    28     1    107.800    276.144
   16    15    34     1    108.500    292.880
   30    10    31     1    107.800    276.144
    3     2     4     1    123.400    694.544
    7     6     8     1    112.700    488.273
   13     9    29     1    109.500    292.880
    6     5    21     1    110.700    313.800
   18     1    20     1    107.800    276.144
    8     6     9     1    112.700    488.273
   18     1    19     1    107.800    276.144
   19     1    20     1    107.800    276.144
   16    15    33     1    108.500    292.880
   24     7    25     1    107.800    276.144
   11    10    30     1    109.500    292.880
   11    10    31     1    109.500    292.880

[ dihedrals ]
; IMPROPER DIHEDRAL ANGLES 
;  ai    aj    ak    al funct            c0            c1            c2            c3            c4            c5
    15    13     9    14    4        180.000     43.932     2  
    32    11    10    12    4        180.000     43.932     2  
     4     2     1     3    4        180.000     43.932     2  

[ dihedrals ]
; PROPER DIHEDRAL ANGLES
;  ai    aj    ak    al funct            c0            c1            c2            c3            c4            c5
   13    9   10   11        3       0.941   7.427   0.000  -8.368  -0.000   0.000
   13    9    6    8        3      -4.960   6.286   1.310  -2.636  -0.000   0.000
   13    9    6    5        3      -4.960   6.286   1.310  -2.636  -0.000   0.000
   11   10    9    6        3      -4.960   6.286   1.310  -2.636  -0.000   0.000
   13    9    6    7        3      -4.960   6.286   1.310  -2.636  -0.000   0.000
   15   13    9    6        3       0.818  -7.906   0.602   6.485  -0.000   0.000
   15   13    9   10        3       0.818  -7.906   0.602   6.485  -0.000   0.000
   10    9    6    5        3       2.301  -1.464   0.837  -1.674  -0.000   0.000
   10    9    6    7        3       2.301  -1.464   0.837  -1.674  -0.000   0.000
   10    9    6    8        3       2.301  -1.464   0.837  -1.674  -0.000   0.000
    9    6    5    4        3       2.874   0.582   2.092  -5.548  -0.000   0.000
    8    6    5    4        3       2.874   0.582   2.092  -5.548  -0.000   0.000
    7    6    5    4        3       2.874   0.582   2.092  -5.548  -0.000   0.000
    6    5    4    2        3      -2.197   5.201   0.527  -3.531  -0.000   0.000
    5    4    2    1        3      31.206  -9.768  -21.439  -0.000  -0.000   0.000
    5    4    2    3        3      21.439   0.000  -21.439  -0.000  -0.000   0.000
   16   15   13    9        3       0.818  -7.906   0.602   6.485  -0.000   0.000
   16   15   13   14        3       0.000   0.000   0.000  -0.000  -0.000   0.000
   32   11   10    9        3       0.000   0.000   0.000  -0.000  -0.000   0.000
   32   11   10   31        3       0.753   2.259   0.000  -3.012  -0.000   0.000
   32   11   10   30        3       0.753   2.259   0.000  -3.012  -0.000   0.000
   33   15   13    9        3       0.575   1.726   0.000  -2.301  -0.000   0.000
   34   15   13    9        3       0.575   1.726   0.000  -2.301  -0.000   0.000
   29    9   13   15        3       0.575   1.726   0.000  -2.301  -0.000   0.000
   29    9   13   14        3       0.000   0.000   0.000  -0.000  -0.000   0.000
   30   10   11   12        3       0.000   0.000   0.000  -0.000  -0.000   0.000
   18    1    2    3        3       0.000   0.000   0.000  -0.000  -0.000   0.000
   33   15   13   14        3       0.000   0.000   0.000  -0.000  -0.000   0.000
   20    1    2    3        3       0.000   0.000   0.000  -0.000  -0.000   0.000
   34   15   13   14        3       0.000   0.000   0.000  -0.000  -0.000   0.000
   19    1    2    3        3       0.000   0.000   0.000  -0.000  -0.000   0.000
   31   10   11   12        3       0.000   0.000   0.000  -0.000  -0.000   0.000
   19    1    2    4        3       0.276   0.828   0.000  -1.105  -0.000   0.000
   18    1    2    4        3       0.276   0.828   0.000  -1.105  -0.000   0.000
   20    1    2    4        3       0.276   0.828   0.000  -1.105  -0.000   0.000
   29    9   10   11        3      -0.209  -0.628   0.000   0.837  -0.000   0.000
   30   10    9   13        3      -0.209  -0.628   0.000   0.837  -0.000   0.000
   31   10    9   13        3      -0.209  -0.628   0.000   0.837  -0.000   0.000
   21    5    6    7        3       0.628   1.883   0.000  -2.510  -0.000   0.000
   26    8    6    7        3       0.628   1.883   0.000  -2.510  -0.000   0.000
   30   10    9    6        3       0.628   1.883   0.000  -2.510  -0.000   0.000
   29    9    6    8        3       0.628   1.883   0.000  -2.510  -0.000   0.000
   25    7    6    8        3       0.628   1.883   0.000  -2.510  -0.000   0.000
   24    7    6    9        3       0.628   1.883   0.000  -2.510  -0.000   0.000
   24    7    6    5        3       0.628   1.883   0.000  -2.510  -0.000   0.000
   28    8    6    5        3       0.628   1.883   0.000  -2.510  -0.000   0.000
   21    5    6    8        3       0.628   1.883   0.000  -2.510  -0.000   0.000
   21    5    6    9        3       0.628   1.883   0.000  -2.510  -0.000   0.000
   22    5    6    7        3       0.628   1.883   0.000  -2.510  -0.000   0.000
   31   10    9    6        3       0.628   1.883   0.000  -2.510  -0.000   0.000
   22    5    6    8        3       0.628   1.883   0.000  -2.510  -0.000   0.000
   29    9    6    5        3       0.628   1.883   0.000  -2.510  -0.000   0.000
   27    8    6    9        3       0.628   1.883   0.000  -2.510  -0.000   0.000
   22    5    6    9        3       0.628   1.883   0.000  -2.510  -0.000   0.000
   27    8    6    5        3       0.628   1.883   0.000  -2.510  -0.000   0.000
   25    7    6    5        3       0.628   1.883   0.000  -2.510  -0.000   0.000
   26    8    6    5        3       0.628   1.883   0.000  -2.510  -0.000   0.000
   27    8    6    7        3       0.628   1.883   0.000  -2.510  -0.000   0.000
   28    8    6    7        3       0.628   1.883   0.000  -2.510  -0.000   0.000
   23    7    6    8        3       0.628   1.883   0.000  -2.510  -0.000   0.000
   23    7    6    9        3       0.628   1.883   0.000  -2.510  -0.000   0.000
   24    7    6    8        3       0.628   1.883   0.000  -2.510  -0.000   0.000
   26    8    6    9        3       0.628   1.883   0.000  -2.510  -0.000   0.000
   25    7    6    9        3       0.628   1.883   0.000  -2.510  -0.000   0.000
   29    9    6    7        3       0.628   1.883   0.000  -2.510  -0.000   0.000
   23    7    6    5        3       0.628   1.883   0.000  -2.510  -0.000   0.000
   28    8    6    9        3       0.628   1.883   0.000  -2.510  -0.000   0.000
   31   10    9   29        3       0.628   1.883   0.000  -2.510  -0.000   0.000
   30   10    9   29        3       0.628   1.883   0.000  -2.510  -0.000   0.000
   33   15   16   17        3       0.000   0.000   0.000  -0.000  -0.000   0.000
   34   15   16   17        3       0.000   0.000   0.000  -0.000  -0.000   0.000
   21    5    4    2        3       0.414   1.243   0.000  -1.657  -0.000   0.000
   22    5    4    2        3       0.414   1.243   0.000  -1.657  -0.000   0.000
   17   16   15   13        3       0.000   0.000   0.000  -0.000  -0.000   0.000
   14   13    9   10        3       0.000   0.000   0.000  -0.000  -0.000   0.000
   14   13    9    6        3       0.000   0.000   0.000  -0.000  -0.000   0.000
   12   11   10    9        3       0.000   0.000   0.000  -0.000  -0.000   0.000

[ pairs ]
     1     5    1
     3     5    1
     2     6    1
     4     7    1
     4     8    1
     4     9    1
     5    10    1
     7    10    1
     6    11    1
     8    10    1
     5    13    1
     7    13    1
     6    14    1
     9    12    1
     8    13    1
     6    15    1
     3    18    1
     4    18    1
     3    19    1
     4    19    1
     3    20    1
     2    21    1
    11    13    1
    10    14    1
     4    20    1
     2    22    1
    10    15    1
     9    16    1
     7    21    1
     5    23    1
     8    21    1
     7    22    1
     5    24    1
    14    16    1
    13    17    1
     9    21    1
     8    22    1
     5    25    1
     9    22    1
     8    23    1
     5    26    1
     9    23    1
     8    24    1
     5    27    1
     9    24    1
     8    25    1
     7    26    1
     5    28    1
     9    25    1
     7    27    1
     5    29    1
     9    26    1
     7    28    1
     9    27    1
     7    29    1
     6    30    1
     9    28    1
     8    29    1
     6    31    1
    11    29    1
     9    32    1
    12    30    1
     9    33    1
    14    29    1
    13    30    1
    12    31    1
     9    34    1
    15    29    1
    13    31    1
    14    33    1
    14    34    1
    17    33    1
    17    34    1
    29    30    1
    29    31    1
    30    32    1
    31    32    1

