LIGPARGEN GENERATED GRO FILE
   34
    1UNK    C00    1   0.100   0.100   0.000
    1UNK    C01    2  -0.050   0.100   0.000
    1UNK    O02    3  -0.118   0.100   0.101
    1UNK    O03    4  -0.097   0.108  -0.127
    1UNK    C04    5  -0.240   0.109  -0.144
    1UNK    C05    6  -0.282   0.227  -0.237
    1UNK    C06    7  -0.213   0.204  -0.374
    1UNK    C07    8  -0.434   0.218  -0.261
    1UNK    C08    9  -0.238   0.365  -0.173
    1UNK    C09   10  -0.278   0.493  -0.250
    1UNK    C0A   11  -0.212   0.509  -0.384
    1UNK    O0B   12  -0.272   0.550  -0.483
    1UNK    C0C   13  -0.296   0.382  -0.030
    1UNK    O0D   14  -0.417   0.387  -0.011
    1UNK    C0E   15  -0.201   0.399   0.086
    1UNK    C0F   16  -0.173   0.548   0.105
    1UNK    N0G   17  -0.151   0.671   0.120
    1UNK    H0H   18   0.136   0.106   0.103
    1UNK    H0I   19   0.137   0.187  -0.054
    1UNK    H0J   20   0.137   0.008  -0.045
    1UNK    H0K   21  -0.294   0.114  -0.049
    1UNK    H0M   22  -0.267   0.014  -0.191
    1UNK    H0N   23  -0.232   0.102  -0.410
    1UNK    H0O   24  -0.104   0.217  -0.367
    1UNK    H0P   25  -0.252   0.271  -0.451
    1UNK    H0Q   26  -0.460   0.123  -0.310
    1UNK    H0R   27  -0.470   0.298  -0.326
    1UNK    H0S   28  -0.491   0.221  -0.168
    1UNK    H0T   29  -0.128   0.365  -0.165
    1UNK    H0U   30  -0.246   0.581  -0.191
    1UNK    H0V   31  -0.386   0.501  -0.262
    1UNK    H0W   32  -0.104   0.488  -0.389
    1UNK    H0X   33  -0.106   0.349   0.066
    1UNK    H0Y   34  -0.245   0.357   0.176
   1.00000   1.00000   1.00000

