
;
; GENERATED BY LigParGen Server
; Jorgensen Lab @ Yale University 
;
[ atomtypes ]
  opls_805  C805    12.0110     0.000    A    3.45000E-01   3.47272E-01
  opls_814  C814    12.0110     0.000    A    3.50000E-01   2.76144E-01
  opls_824  H824     1.0080     0.000    A    2.50000E-01   1.25520E-01
  opls_804  C804    12.0110     0.000    A    3.50000E-01   2.76144E-01
  opls_818  C818    12.0110     0.000    A    3.50000E-01   2.76144E-01
  opls_843  H843     1.0080     0.000    A    2.50000E-01   1.25520E-01
  opls_836  H836     1.0080     0.000    A    2.50000E-01   1.25520E-01
  opls_834  H834     1.0080     0.000    A    2.50000E-01   1.25520E-01
  opls_828  H828     1.0080     0.000    A    2.50000E-01   1.25520E-01
  opls_801  O801    15.9990     0.000    A    2.90000E-01   5.85760E-01
  opls_807  C807    12.0110     0.000    A    3.45000E-01   3.47272E-01
  opls_803  O803    15.9990     0.000    A    2.96000E-01   8.78640E-01
  opls_815  C815    12.0110     0.000    A    3.50000E-01   2.76144E-01
  opls_827  H827     1.0080     0.000    A    2.50000E-01   1.25520E-01
  opls_809  C809    12.0110     0.000    A    3.50000E-01   2.76144E-01
  opls_838  H838     1.0080     0.000    A    2.50000E-01   1.25520E-01
  opls_811  O811    15.9990     0.000    A    2.96000E-01   8.78640E-01
  opls_822  H822     1.0080     0.000    A    2.50000E-01   1.25520E-01
  opls_830  H830     1.0080     0.000    A    2.50000E-01   1.25520E-01
  opls_821  H821     1.0080     0.000    A    2.50000E-01   1.25520E-01
  opls_842  H842     1.0080     0.000    A    2.50000E-01   1.25520E-01
  opls_826  H826     1.0080     0.000    A    2.50000E-01   1.25520E-01
  opls_837  H837     1.0080     0.000    A    2.50000E-01   1.25520E-01
  opls_829  H829     1.0080     0.000    A    2.50000E-01   1.25520E-01
  opls_831  H831     1.0080     0.000    A    2.50000E-01   1.25520E-01
  opls_810  C810    12.0110     0.000    A    3.55000E-01   2.92880E-01
  opls_832  H832     1.0080     0.000    A    2.50000E-01   1.25520E-01
  opls_800  C800    12.0110     0.000    A    3.50000E-01   2.76144E-01
  opls_846  H846     1.0080     0.000    A    2.50000E-01   1.25520E-01
  opls_848  H848     1.0080     0.000    A    2.50000E-01   1.25520E-01
  opls_823  H823     1.0080     0.000    A    2.50000E-01   1.25520E-01
  opls_802  C802    12.0110     0.000    A    3.55000E-01   2.92880E-01
  opls_833  H833     1.0080     0.000    A    2.50000E-01   1.25520E-01
  opls_819  C819    12.0110     0.000    A    3.50000E-01   2.76144E-01
  opls_820  C820    12.0110     0.000    A    3.50000E-01   2.76144E-01
  opls_806  C806    12.0110     0.000    A    3.45000E-01   3.47272E-01
  opls_813  C813    12.0110     0.000    A    3.50000E-01   2.76144E-01
  opls_841  H841     1.0080     0.000    A    2.50000E-01   1.25520E-01
  opls_825  H825     1.0080     0.000    A    2.50000E-01   1.25520E-01
  opls_816  C816    12.0110     0.000    A    3.50000E-01   2.76144E-01
  opls_839  H839     1.0080     0.000    A    2.50000E-01   1.25520E-01
  opls_817  C817    12.0110     0.000    A    3.50000E-01   2.76144E-01
  opls_835  H835     1.0080     0.000    A    2.50000E-01   1.25520E-01
  opls_812  C812    12.0110     0.000    A    3.50000E-01   2.76144E-01
  opls_840  H840     1.0080     0.000    A    2.50000E-01   1.25520E-01
  opls_849  H849     1.0080     0.000    A    2.50000E-01   1.25520E-01
  opls_808  N808    14.0070     0.000    A    3.25000E-01   7.11280E-01
  opls_847  H847     1.0080     0.000    A    2.50000E-01   1.25520E-01
  opls_844  H844     1.0080     0.000    A    2.50000E-01   1.25520E-01
  opls_845  H845     1.0080     0.000    A    2.50000E-01   1.25520E-01
[ moleculetype ]
; Name               nrexcl
UNK                   3
[ atoms ]
;   nr       type  resnr residue  atom   cgnr     charge       mass  
     1   opls_800      1    UNK   C00      1    -0.0563    12.0110 
     2   opls_801      1    UNK   O01      1    -0.3618    15.9990 
     3   opls_802      1    UNK   C02      1     0.4348    12.0110 
     4   opls_803      1    UNK   O03      1    -0.4478    15.9990 
     5   opls_804      1    UNK   C04      1    -0.1553    12.0110 
     6   opls_805      1    UNK   C05      1    -0.1836    12.0110 
     7   opls_806      1    UNK   C06      1    -0.1964    12.0110 
     8   opls_807      1    UNK   C07      1     0.1054    12.0110 
     9   opls_808      1    UNK   N08      1    -0.8673    14.0070 
    10   opls_809      1    UNK   C09      1      0.081    12.0110 
    11   opls_810      1    UNK   C0A      1     0.5809    12.0110 
    12   opls_811      1    UNK   O0B      1    -0.4577    15.9990 
    13   opls_812      1    UNK   C0C      1    -0.1178    12.0110 
    14   opls_813      1    UNK   C0D      1    -0.1634    12.0110 
    15   opls_814      1    UNK   C0E      1    -0.1131    12.0110 
    16   opls_815      1    UNK   C0F      1    -0.2342    12.0110 
    17   opls_816      1    UNK   C0G      1    -0.0994    12.0110 
    18   opls_817      1    UNK   C0H      1     -0.232    12.0110 
    19   opls_818      1    UNK   C0I      1    -0.1164    12.0110 
    20   opls_819      1    UNK   C0J      1    -0.2309    12.0110 
    21   opls_820      1    UNK   C0K      1    -0.1486    12.0110 
    22   opls_821      1    UNK   H0M      1     0.0994     1.0080 
    23   opls_822      1    UNK   H0N      1     0.0994     1.0080 
    24   opls_823      1    UNK   H0O      1     0.0994     1.0080 
    25   opls_824      1    UNK   H0P      1     0.1464     1.0080 
    26   opls_825      1    UNK   H0Q      1     0.1464     1.0080 
    27   opls_826      1    UNK   H0R      1     0.1466     1.0080 
    28   opls_827      1    UNK   H0S      1     0.1364     1.0080 
    29   opls_828      1    UNK   H0T      1     0.1364     1.0080 
    30   opls_829      1    UNK   H0U      1     0.1475     1.0080 
    31   opls_830      1    UNK   H0V      1     0.0902     1.0080 
    32   opls_831      1    UNK   H0W      1     0.0902     1.0080 
    33   opls_832      1    UNK   H0X      2     0.0902     1.0080 
    34   opls_833      1    UNK   H0Y      2      0.115     1.0080 
    35   opls_834      1    UNK   H0Z      2     0.0945     1.0080 
    36   opls_835      1    UNK   H10      2     0.0945     1.0080 
    37   opls_836      1    UNK   H11      2     0.1013     1.0080 
    38   opls_837      1    UNK   H12      2     0.0823     1.0080 
    39   opls_838      1    UNK   H13      2     0.0823     1.0080 
    40   opls_839      1    UNK   H14      2     0.0823     1.0080 
    41   opls_840      1    UNK   H15      2     0.0957     1.0080 
    42   opls_841      1    UNK   H16      2     0.0801     1.0080 
    43   opls_842      1    UNK   H17      2     0.0801     1.0080 
    44   opls_843      1    UNK   H18      2     0.0801     1.0080 
    45   opls_844      1    UNK   H19      2     0.1212     1.0080 
    46   opls_845      1    UNK   H1A      2     0.0815     1.0080 
    47   opls_846      1    UNK   H1B      2     0.0815     1.0080 
    48   opls_847      1    UNK   H1C      2     0.0815     1.0080 
    49   opls_848      1    UNK   H1D      2     0.0984     1.0080 
    50   opls_849      1    UNK   H1E      2     0.0984     1.0080 
[ bonds ]
    2     1     1      0.1410 267776.000
    3     2     1      0.1327 179075.200
    4     3     1      0.1229 476976.000
    5     3     1      0.1522 265265.600
    6     5     1      0.1510 234304.000
    7     6     1      0.1520 217568.000
    8     6     1      0.1520 217568.000
    9     8     1      0.1449 282001.600
   10     9     1      0.1449 282001.600
   11     9     1      0.1335 410032.000
   12    11     1      0.1229 476976.000
   13    11     1      0.1522 265265.600
   14    13     1      0.1529 224262.400
   15    14     1      0.1529 224262.400
   16    15     1      0.1529 224262.400
   17    15     1      0.1529 224262.400
   18    17     1      0.1529 224262.400
   19    17     1      0.1529 224262.400
   20    19     1      0.1529 224262.400
   21    13     1      0.1529 224262.400
   22     1     1      0.1090 284512.000
   23     1     1      0.1090 284512.000
   24     1     1      0.1090 284512.000
   25     5     1      0.1090 284512.000
   26     5     1      0.1090 284512.000
   27     6     1      0.1088 284512.000
   28     7     1      0.1088 284512.000
   29     7     1      0.1088 284512.000
   30     8     1      0.1088 284512.000
   31    10     1      0.1090 284512.000
   32    10     1      0.1090 284512.000
   33    10     1      0.1090 284512.000
   34    13     1      0.1090 284512.000
   35    14     1      0.1090 284512.000
   36    14     1      0.1090 284512.000
   37    15     1      0.1090 284512.000
   38    16     1      0.1090 284512.000
   39    16     1      0.1090 284512.000
   40    16     1      0.1090 284512.000
   41    17     1      0.1090 284512.000
   42    18     1      0.1090 284512.000
   43    18     1      0.1090 284512.000
   44    18     1      0.1090 284512.000
   45    19     1      0.1090 284512.000
   46    20     1      0.1090 284512.000
   47    20     1      0.1090 284512.000
   48    20     1      0.1090 284512.000
   49    21     1      0.1090 284512.000
   50    21     1      0.1090 284512.000
    8     7     1      0.1520 217568.000
   21    19     1      0.1529 224262.400

[ angles ]
;  ai    aj    ak funct            c0            c1            c2            c3 
    1     2     3     1    116.900    694.544
    2     3     4     1    123.400    694.544
    2     3     5     1    111.400    677.808
    3     5     6     1    111.100    527.184
    5     6     7     1    117.200    313.800
    5     6     8     1    117.200    313.800
    6     8     9     1    126.000    313.800
    8     9    10     1    118.000    418.400
    8     9    11     1    128.000    460.240
    9    11    12     1    122.900    669.440
    9    11    13     1    116.600    585.760
   11    13    14     1    111.100    527.184
   13    14    15     1    112.700    488.273
   14    15    16     1    112.700    488.273
   14    15    17     1    112.700    488.273
   15    17    18     1    112.700    488.273
   15    17    19     1    112.700    488.273
   17    19    20     1    112.700    488.273
   11    13    21     1    111.100    527.184
    2     1    22     1    109.500    292.880
    2     1    23     1    109.500    292.880
    2     1    24     1    109.500    292.880
    3     5    25     1    109.500    292.880
    3     5    26     1    109.500    292.880
    5     6    27     1    114.300    292.880
    6     7    28     1    117.200    313.800
    6     7    29     1    117.200    313.800
    6     8    30     1    117.200    313.800
    9    10    31     1    109.500    292.880
    9    10    32     1    109.500    292.880
    9    10    33     1    109.500    292.880
   11    13    34     1    109.500    292.880
   13    14    35     1    110.700    313.800
   13    14    36     1    110.700    313.800
   14    15    37     1    110.700    313.800
   15    16    38     1    110.700    313.800
   15    16    39     1    110.700    313.800
   15    16    40     1    110.700    313.800
   15    17    41     1    110.700    313.800
   17    18    42     1    110.700    313.800
   17    18    43     1    110.700    313.800
   17    18    44     1    110.700    313.800
   17    19    45     1    110.700    313.800
   19    20    46     1    110.700    313.800
   19    20    47     1    110.700    313.800
   19    20    48     1    110.700    313.800
   13    21    49     1    110.700    313.800
   13    21    50     1    110.700    313.800
   42    18    44     1    107.800    276.144
   20    19    21     1    112.700    488.273
   21    19    45     1    110.700    313.800
   46    20    48     1    107.800    276.144
   14    13    34     1    110.700    313.800
   22     1    24     1    107.800    276.144
   25     5    26     1    107.800    276.144
   13    21    19     1    112.700    488.273
    6     5    26     1    110.700    313.800
   35    14    36     1    107.800    276.144
   21    13    34     1    110.700    313.800
    6     8     7     1     83.000    251.040
   17    19    21     1    112.700    488.273
   17    15    37     1    110.700    313.800
   39    16    40     1    107.800    276.144
   31    10    32     1    107.800    276.144
   32    10    33     1    107.800    276.144
   31    10    33     1    107.800    276.144
   23     1    24     1    107.800    276.144
    6     7     8     1     83.000    251.040
    4     3     5     1    120.400    669.440
    8     7    28     1    117.200    313.800
   28     7    29     1    114.300    292.880
    7     6    27     1    117.200    313.800
   14    13    21     1    112.700    488.273
   49    21    50     1    107.800    276.144
    9     8    30     1    108.000    292.880
   19    17    41     1    110.700    313.800
    8     7    29     1    117.200    313.800
   42    18    43     1    107.800    276.144
    7     8    30     1    117.200    313.800
   20    19    45     1    110.700    313.800
   38    16    40     1    107.800    276.144
   46    20    47     1    107.800    276.144
    6     5    25     1    110.700    313.800
   15    14    35     1    110.700    313.800
    8     6    27     1    117.200    313.800
   15    14    36     1    110.700    313.800
    7     8     9     1    126.000    313.800
   18    17    41     1    110.700    313.800
   19    21    50     1    110.700    313.800
   22     1    23     1    107.800    276.144
   10     9    11     1    121.900    418.400
   18    17    19     1    112.700    488.273
   47    20    48     1    107.800    276.144
   19    21    49     1    110.700    313.800
    7     6     8     1     83.000    251.040
   12    11    13     1    120.400    669.440
   16    15    37     1    110.700    313.800
   43    18    44     1    107.800    276.144
   16    15    17     1    112.700    488.273
   38    16    39     1    107.800    276.144

[ dihedrals ]
; IMPROPER DIHEDRAL ANGLES 
;  ai    aj    ak    al funct            c0            c1            c2            c3            c4            c5
    11     9     8    10    4        180.000     10.460     2  
    13    11     9    12    4        180.000     43.932     2  
     5     3     2     4    4        180.000     43.932     2  

[ dihedrals ]
; PROPER DIHEDRAL ANGLES
;  ai    aj    ak    al funct            c0            c1            c2            c3            c4            c5
   11    9    8    7        3      -4.707   2.920   1.787  -0.000  -0.000   0.000
   11    9    8    6        3      -4.707   2.920   1.787  -0.000  -0.000   0.000
   13   11    9   10        3      30.288  -4.812  -25.476  -0.000  -0.000   0.000
   13   11    9    8        3      30.288  -4.812  -25.476  -0.000  -0.000   0.000
    5    3    2    1        3      31.206  -9.768  -21.439  -0.000  -0.000   0.000
   14   13   11    9        3       0.734  -9.985  -0.791  10.042  -0.000   0.000
   21   13   11    9        3       0.734  -9.985  -0.791  10.042  -0.000   0.000
   21   13   11   12        3       0.000   0.000   0.000  -0.000  -0.000   0.000
   14   13   11   12        3       0.000   0.000   0.000  -0.000  -0.000   0.000
   19   21   13   11        3      -4.960   6.286   1.310  -2.636  -0.000   0.000
   15   14   13   11        3      -4.960   6.286   1.310  -2.636  -0.000   0.000
   17   19   21   13        3       2.301  -1.464   0.837  -1.674  -0.000   0.000
   19   17   15   14        3       2.301  -1.464   0.837  -1.674  -0.000   0.000
   19   21   13   14        3       2.301  -1.464   0.837  -1.674  -0.000   0.000
   20   19   21   13        3       2.301  -1.464   0.837  -1.674  -0.000   0.000
   21   19   17   18        3       2.301  -1.464   0.837  -1.674  -0.000   0.000
   19   17   15   16        3       2.301  -1.464   0.837  -1.674  -0.000   0.000
   17   15   14   13        3       2.301  -1.464   0.837  -1.674  -0.000   0.000
   21   19   17   15        3       2.301  -1.464   0.837  -1.674  -0.000   0.000
   20   19   17   18        3       2.301  -1.464   0.837  -1.674  -0.000   0.000
   21   13   14   15        3       2.301  -1.464   0.837  -1.674  -0.000   0.000
   18   17   15   16        3       2.301  -1.464   0.837  -1.674  -0.000   0.000
   20   19   17   15        3       2.301  -1.464   0.837  -1.674  -0.000   0.000
   16   15   14   13        3       2.301  -1.464   0.837  -1.674  -0.000   0.000
   18   17   15   14        3       2.301  -1.464   0.837  -1.674  -0.000   0.000
   10    9    8    6        3      -4.707   2.920   1.787  -0.000  -0.000   0.000
   10    9    8    7        3      -4.707   2.920   1.787  -0.000  -0.000   0.000
    6    5    3    4        3       0.000   0.000   0.000  -0.000  -0.000   0.000
    6    5    3    2        3      -1.157  -3.471   0.000   4.628  -0.000   0.000
    8    6    5    3        3      -4.960   6.286   1.310  -2.636  -0.000   0.000
    7    6    5    3        3      -4.960   6.286   1.310  -2.636  -0.000   0.000
    8    6    5    7        3       0.000   0.000   0.000  -0.000  -0.000   0.000
   34   13   11    9        3       0.000   0.000   0.000  -0.000  -0.000   0.000
   34   13   11   12        3       0.000   0.000   0.000  -0.000  -0.000   0.000
   26    5    3    4        3       0.000   0.000   0.000  -0.000  -0.000   0.000
   25    5    3    4        3       0.000   0.000   0.000  -0.000  -0.000   0.000
   26    5    3    2        3       0.276   0.828   0.000  -1.105  -0.000   0.000
   25    5    3    2        3       0.276   0.828   0.000  -1.105  -0.000   0.000
   36   14   13   11        3      -0.209  -0.628   0.000   0.837  -0.000   0.000
   49   21   13   11        3      -0.209  -0.628   0.000   0.837  -0.000   0.000
   35   14   13   11        3      -0.209  -0.628   0.000   0.837  -0.000   0.000
   50   21   13   11        3      -0.209  -0.628   0.000   0.837  -0.000   0.000
   44   18   17   19        3       0.628   1.883   0.000  -2.510  -0.000   0.000
   49   21   13   14        3       0.628   1.883   0.000  -2.510  -0.000   0.000
   39   16   15   17        3       0.628   1.883   0.000  -2.510  -0.000   0.000
   36   14   15   17        3       0.628   1.883   0.000  -2.510  -0.000   0.000
   44   18   17   15        3       0.628   1.883   0.000  -2.510  -0.000   0.000
   43   18   17   19        3       0.628   1.883   0.000  -2.510  -0.000   0.000
   48   20   19   17        3       0.628   1.883   0.000  -2.510  -0.000   0.000
   41   17   19   20        3       0.628   1.883   0.000  -2.510  -0.000   0.000
   37   15   17   19        3       0.628   1.883   0.000  -2.510  -0.000   0.000
   45   19   17   15        3       0.628   1.883   0.000  -2.510  -0.000   0.000
   34   13   21   19        3       0.628   1.883   0.000  -2.510  -0.000   0.000
   40   16   15   17        3       0.628   1.883   0.000  -2.510  -0.000   0.000
   35   14   15   16        3       0.628   1.883   0.000  -2.510  -0.000   0.000
   49   21   19   20        3       0.628   1.883   0.000  -2.510  -0.000   0.000
   42   18   17   19        3       0.628   1.883   0.000  -2.510  -0.000   0.000
   38   16   15   17        3       0.628   1.883   0.000  -2.510  -0.000   0.000
   50   21   13   14        3       0.628   1.883   0.000  -2.510  -0.000   0.000
   46   20   19   21        3       0.628   1.883   0.000  -2.510  -0.000   0.000
   47   20   19   21        3       0.628   1.883   0.000  -2.510  -0.000   0.000
   41   17   15   16        3       0.628   1.883   0.000  -2.510  -0.000   0.000
   41   17   15   14        3       0.628   1.883   0.000  -2.510  -0.000   0.000
   36   14   15   16        3       0.628   1.883   0.000  -2.510  -0.000   0.000
   34   13   14   15        3       0.628   1.883   0.000  -2.510  -0.000   0.000
   42   18   17   15        3       0.628   1.883   0.000  -2.510  -0.000   0.000
   50   21   19   20        3       0.628   1.883   0.000  -2.510  -0.000   0.000
   46   20   19   17        3       0.628   1.883   0.000  -2.510  -0.000   0.000
   49   21   19   17        3       0.628   1.883   0.000  -2.510  -0.000   0.000
   50   21   19   17        3       0.628   1.883   0.000  -2.510  -0.000   0.000
   48   20   19   21        3       0.628   1.883   0.000  -2.510  -0.000   0.000
   47   20   19   17        3       0.628   1.883   0.000  -2.510  -0.000   0.000
   39   16   15   14        3       0.628   1.883   0.000  -2.510  -0.000   0.000
   45   19   17   18        3       0.628   1.883   0.000  -2.510  -0.000   0.000
   37   15   17   18        3       0.628   1.883   0.000  -2.510  -0.000   0.000
   36   14   13   21        3       0.628   1.883   0.000  -2.510  -0.000   0.000
   41   17   19   21        3       0.628   1.883   0.000  -2.510  -0.000   0.000
   45   19   21   13        3       0.628   1.883   0.000  -2.510  -0.000   0.000
   35   14   13   21        3       0.628   1.883   0.000  -2.510  -0.000   0.000
   35   14   15   17        3       0.628   1.883   0.000  -2.510  -0.000   0.000
   38   16   15   14        3       0.628   1.883   0.000  -2.510  -0.000   0.000
   37   15   14   13        3       0.628   1.883   0.000  -2.510  -0.000   0.000
   43   18   17   15        3       0.628   1.883   0.000  -2.510  -0.000   0.000
   40   16   15   14        3       0.628   1.883   0.000  -2.510  -0.000   0.000
   40   16   15   37        3       0.628   1.883   0.000  -2.510  -0.000   0.000
   35   14   13   34        3       0.628   1.883   0.000  -2.510  -0.000   0.000
   37   15   14   36        3       0.628   1.883   0.000  -2.510  -0.000   0.000
   36   14   13   34        3       0.628   1.883   0.000  -2.510  -0.000   0.000
   39   16   15   37        3       0.628   1.883   0.000  -2.510  -0.000   0.000
   50   21   19   45        3       0.628   1.883   0.000  -2.510  -0.000   0.000
   50   21   13   34        3       0.628   1.883   0.000  -2.510  -0.000   0.000
   47   20   19   45        3       0.628   1.883   0.000  -2.510  -0.000   0.000
   41   17   15   37        3       0.628   1.883   0.000  -2.510  -0.000   0.000
   48   20   19   45        3       0.628   1.883   0.000  -2.510  -0.000   0.000
   43   18   17   41        3       0.628   1.883   0.000  -2.510  -0.000   0.000
   46   20   19   45        3       0.628   1.883   0.000  -2.510  -0.000   0.000
   38   16   15   37        3       0.628   1.883   0.000  -2.510  -0.000   0.000
   44   18   17   41        3       0.628   1.883   0.000  -2.510  -0.000   0.000
   49   21   13   34        3       0.628   1.883   0.000  -2.510  -0.000   0.000
   45   19   17   41        3       0.628   1.883   0.000  -2.510  -0.000   0.000
   49   21   19   45        3       0.628   1.883   0.000  -2.510  -0.000   0.000
   37   15   14   35        3       0.628   1.883   0.000  -2.510  -0.000   0.000
   42   18   17   41        3       0.628   1.883   0.000  -2.510  -0.000   0.000
   25    5    6    8        3       0.628   1.883   0.000  -2.510  -0.000   0.000
   26    5    6    8        3       0.628   1.883   0.000  -2.510  -0.000   0.000
   25    5    6    7        3       0.628   1.883   0.000  -2.510  -0.000   0.000
   26    5    6    7        3       0.628   1.883   0.000  -2.510  -0.000   0.000
   33   10    9   11        3       0.000   0.000   0.000  -0.000  -0.000   0.000
   31   10    9   11        3       0.000   0.000   0.000  -0.000  -0.000   0.000
   32   10    9   11        3       0.000   0.000   0.000  -0.000  -0.000   0.000
   32   10    9    8        3       0.000   0.000   0.000  -0.000  -0.000   0.000
   31   10    9    8        3       0.000   0.000   0.000  -0.000  -0.000   0.000
   33   10    9    8        3       0.000   0.000   0.000  -0.000  -0.000   0.000
   23    1    2    3        3       0.414   1.243   0.000  -1.657  -0.000   0.000
   24    1    2    3        3       0.414   1.243   0.000  -1.657  -0.000   0.000
   22    1    2    3        3       0.414   1.243   0.000  -1.657  -0.000   0.000
   27    6    5    3        3      -0.209  -0.628   0.000   0.837  -0.000   0.000
   27    6    5   26        3       0.628   1.883   0.000  -2.510  -0.000   0.000
   27    6    5   25        3       0.628   1.883   0.000  -2.510  -0.000   0.000
   30    8    6    5        3       0.000   0.000   0.000  -0.000  -0.000   0.000
   29    7    6    5        3       0.000   0.000   0.000  -0.000  -0.000   0.000
   28    7    6    5        3       0.000   0.000   0.000  -0.000  -0.000   0.000
   30    8    6    7        3       0.000   0.000   0.000  -0.000  -0.000   0.000
   28    7    6    8        3       0.000   0.000   0.000  -0.000  -0.000   0.000
   27    6    8    7        3       0.000   0.000   0.000  -0.000  -0.000   0.000
   28    7    8    6        3       0.000   0.000   0.000  -0.000  -0.000   0.000
   29    7    6    8        3       0.000   0.000   0.000  -0.000  -0.000   0.000
   30    8    7    6        3       0.000   0.000   0.000  -0.000  -0.000   0.000
   29    7    8    6        3       0.000   0.000   0.000  -0.000  -0.000   0.000
   27    6    7    8        3       0.000   0.000   0.000  -0.000  -0.000   0.000
   30    8    7   28        3       0.000   0.000   0.000  -0.000  -0.000   0.000
   28    7    6   27        3       0.000   0.000   0.000  -0.000  -0.000   0.000
   30    8    7   29        3       0.000   0.000   0.000  -0.000  -0.000   0.000
   30    8    6   27        3       0.000   0.000   0.000  -0.000  -0.000   0.000
   29    7    6   27        3       0.000   0.000   0.000  -0.000  -0.000   0.000
   28    7    8    9        3       0.000   0.000   0.000  -0.000  -0.000   0.000
   27    6    8    9        3       0.000   0.000   0.000  -0.000  -0.000   0.000
   29    7    8    9        3       0.000   0.000   0.000  -0.000  -0.000   0.000
   30    8    9   11        3       0.000   0.000   0.000  -0.000  -0.000   0.000
   30    8    9   10        3       0.000   0.000   0.000  -0.000  -0.000   0.000
    9    8    6    5        3       0.000   0.000   0.000  -0.000  -0.000   0.000
    9    8    6    7        3       0.000   0.000   0.000  -0.000  -0.000   0.000
    9    8    7    6        3       0.000   0.000   0.000  -0.000  -0.000   0.000
   12   11    9   10        3      25.476   0.000  -25.476  -0.000  -0.000   0.000
   12   11    9    8        3      25.476   0.000  -25.476  -0.000  -0.000   0.000
    4    3    2    1        3      21.439   0.000  -21.439  -0.000  -0.000   0.000

[ pairs ]
     1     4    1
     1     5    1
     2     6    1
     4     6    1
     3     7    1
     3     8    1
     5     9    1
     6    10    1
     7    10    1
     6    11    1
     7    11    1
     8    12    1
     8    13    1
    10    12    1
    10    13    1
     9    14    1
     3    22    1
    12    14    1
    11    15    1
     3    23    1
     3    24    1
     2    25    1
     2    26    1
    13    16    1
     4    25    1
    13    17    1
    11    19    1
     9    21    1
     4    26    1
     3    27    1
    14    18    1
     7    25    1
    14    19    1
    13    20    1
    12    21    1
     8    25    1
     7    26    1
     5    28    1
    16    18    1
     8    26    1
     5    29    1
    16    19    1
    15    20    1
     5    30    1
    15    21    1
     9    27    1
     9    28    1
    18    20    1
     9    29    1
    18    21    1
     8    31    1
    10    30    1
     8    32    1
    11    30    1
     8    33    1
    11    31    1
    11    32    1
     9    34    1
    11    33    1
    12    34    1
    11    35    1
    11    36    1
    15    34    1
    13    37    1
    16    35    1
    25    27    1
    17    35    1
    16    36    1
    14    38    1
    26    27    1
    19    34    1
    17    36    1
    14    39    1
    14    40    1
    27    28    1
    18    37    1
    17    38    1
    14    41    1
    27    29    1
    21    35    1
    19    37    1
    17    39    1
    27    30    1
    21    36    1
    17    40    1
    16    41    1
    15    42    1
    28    30    1
    15    43    1
    13    45    1
    29    30    1
    15    44    1
    15    45    1
    11    49    1
    20    41    1
    19    42    1
    11    50    1
    21    41    1
    19    43    1
    19    44    1
    18    45    1
    17    46    1
    14    49    1
    17    47    1
    14    50    1
    17    48    1
    17    49    1
    21    46    1
    17    50    1
    21    47    1
    34    35    1
    21    48    1
    20    49    1
    34    36    1
    20    50    1
    35    37    1
    36    37    1
    37    38    1
    37    39    1
    37    40    1
    37    41    1
    41    42    1
    34    49    1
    41    43    1
    34    50    1
    41    44    1
    41    45    1
    45    46    1
    45    47    1
    45    48    1
    45    49    1
    45    50    1

