LIGPARGEN GENERATED GRO FILE
   50
    1UNK    C00    1   0.100   0.100   0.000
    1UNK    O01    2  -0.043   0.100   0.000
    1UNK    C02    3  -0.099   0.100   0.125
    1UNK    O03    4  -0.036   0.100   0.230
    1UNK    C04    5  -0.248   0.100   0.110
    1UNK    C05    6  -0.325   0.100   0.239
    1UNK    C06    7  -0.323   0.207   0.344
    1UNK    C07    8  -0.439   0.200   0.250
    1UNK    N08    9  -0.570   0.141   0.270
    1UNK    C09   10  -0.632   0.156   0.400
    1UNK    C0A   11  -0.630   0.087   0.155
    1UNK    O0B   12  -0.567   0.087   0.049
    1UNK    C0C   13  -0.770   0.024   0.161
    1UNK    C0D   14  -0.884   0.119   0.199
    1UNK    C0E   15  -0.908   0.225   0.090
    1UNK    C0F   16  -1.007   0.331   0.139
    1UNK    C0G   17  -0.949   0.159  -0.044
    1UNK    C0H   18  -1.088   0.095  -0.043
    1UNK    C0I   19  -0.837   0.059  -0.086
    1UNK    C0J   20  -0.866  -0.012  -0.219
    1UNK    C0K   21  -0.804  -0.042   0.025
    1UNK    H0M   22   0.133   0.095  -0.104
    1UNK    H0N   23   0.139   0.012   0.053
    1UNK    H0O   24   0.138   0.193   0.044
    1UNK    H0P   25  -0.276   0.009   0.055
    1UNK    H0Q   26  -0.276   0.187   0.049
    1UNK    H0R   27  -0.340  -0.001   0.276
    1UNK    H0S   28  -0.252   0.289   0.332
    1UNK    H0T   29  -0.334   0.176   0.447
    1UNK    H0U   30  -0.443   0.282   0.179
    1UNK    H0V   31  -0.555   0.161   0.479
    1UNK    H0W   32  -0.697   0.071   0.422
    1UNK    H0X   33  -0.689   0.248   0.401
    1UNK    H0Y   34  -0.764  -0.056   0.236
    1UNK    H0Z   35  -0.864   0.169   0.294
    1UNK    H10   36  -0.975   0.061   0.215
    1UNK    H11   37  -0.814   0.278   0.073
    1UNK    H12   38  -1.105   0.288   0.163
    1UNK    H13   39  -1.021   0.408   0.063
    1UNK    H14   40  -0.969   0.379   0.229
    1UNK    H15   41  -0.952   0.239  -0.120
    1UNK    H16   42  -1.093   0.008   0.023
    1UNK    H17   43  -1.117   0.063  -0.143
    1UNK    H18   44  -1.165   0.166  -0.011
    1UNK    H19   45  -0.748   0.120  -0.105
    1UNK    H1A   46  -0.952  -0.079  -0.211
    1UNK    H1B   47  -0.780  -0.072  -0.249
    1UNK    H1C   48  -0.886   0.061  -0.298
    1UNK    H1D   49  -0.720  -0.105  -0.008
    1UNK    H1E   50  -0.889  -0.111   0.039
   1.00000   1.00000   1.00000

