
;
; GENERATED BY LigParGen Server
; Jorgensen Lab @ Yale University 
;
[ atomtypes ]
  opls_818  H818     1.0080     0.000    A    2.50000E-01   1.25520E-01
  opls_824  H824     1.0080     0.000    A    2.50000E-01   1.25520E-01
  opls_830  H830     1.0080     0.000    A    2.50000E-01   1.25520E-01
  opls_805  C805    12.0110     0.000    A    3.50000E-01   2.76144E-01
  opls_833  H833     1.0080     0.000    A    2.50000E-01   1.25520E-01
  opls_836  H836     1.0080     0.000    A    2.50000E-01   1.25520E-01
  opls_828  H828     1.0080     0.000    A    2.50000E-01   1.25520E-01
  opls_813  H813     1.0080     0.000    A    2.50000E-01   1.25520E-01
  opls_832  H832     1.0080     0.000    A    2.50000E-01   1.25520E-01
  opls_802  C802    12.0110     0.000    A    3.50000E-01   2.76144E-01
  opls_815  H815     1.0080     0.000    A    2.50000E-01   1.25520E-01
  opls_809  C809    12.0110     0.000    A    3.50000E-01   2.76144E-01
  opls_806  C806    12.0110     0.000    A    3.50000E-01   2.76144E-01
  opls_822  H822     1.0080     0.000    A    2.50000E-01   1.25520E-01
  opls_803  C803    12.0110     0.000    A    3.50000E-01   2.76144E-01
  opls_825  H825     1.0080     0.000    A    2.50000E-01   1.25520E-01
  opls_814  H814     1.0080     0.000    A    2.50000E-01   1.25520E-01
  opls_810  C810    12.0110     0.000    A    3.50000E-01   2.76144E-01
  opls_820  H820     1.0080     0.000    A    2.50000E-01   1.25520E-01
  opls_837  H837     1.0080     0.000    A    2.50000E-01   1.25520E-01
  opls_821  H821     1.0080     0.000    A    2.50000E-01   1.25520E-01
  opls_834  H834     1.0080     0.000    A    2.50000E-01   1.25520E-01
  opls_831  H831     1.0080     0.000    A    2.50000E-01   1.25520E-01
  opls_816  H816     1.0080     0.000    A    2.50000E-01   1.25520E-01
  opls_800  C800    12.0110     0.000    A    3.50000E-01   2.76144E-01
  opls_811  C811    12.0110     0.000    A    3.50000E-01   2.76144E-01
  opls_823  H823     1.0080     0.000    A    2.50000E-01   1.25520E-01
  opls_826  H826     1.0080     0.000    A    2.50000E-01   1.25520E-01
  opls_835  H835     1.0080     0.000    A    2.50000E-01   1.25520E-01
  opls_819  H819     1.0080     0.000    A    2.50000E-01   1.25520E-01
  opls_804  C804    12.0110     0.000    A    3.50000E-01   2.76144E-01
  opls_827  H827     1.0080     0.000    A    2.50000E-01   1.25520E-01
  opls_801  C801    12.0110     0.000    A    3.50000E-01   2.76144E-01
  opls_808  C808    12.0110     0.000    A    3.50000E-01   2.76144E-01
  opls_817  H817     1.0080     0.000    A    2.50000E-01   1.25520E-01
  opls_812  H812     1.0080     0.000    A    2.50000E-01   1.25520E-01
  opls_829  H829     1.0080     0.000    A    2.50000E-01   1.25520E-01
  opls_807  C807    12.0110     0.000    A    3.50000E-01   2.76144E-01
[ moleculetype ]
; Name               nrexcl
UNK                   3
[ atoms ]
;   nr       type  resnr residue  atom   cgnr     charge       mass  
     1   opls_800      1    UNK   C00      1    -0.2384    12.0110 
     2   opls_801      1    UNK   C01      1    -0.1798    12.0110 
     3   opls_802      1    UNK   C02      1    -0.1783    12.0110 
     4   opls_803      1    UNK   C03      1    -0.1826    12.0110 
     5   opls_804      1    UNK   C04      1    -0.1703    12.0110 
     6   opls_805      1    UNK   C05      1    -0.0849    12.0110 
     7   opls_806      1    UNK   C06      1    -0.1754    12.0110 
     8   opls_807      1    UNK   C07      1    -0.2361    12.0110 
     9   opls_808      1    UNK   C08      1     -0.048    12.0110 
    10   opls_809      1    UNK   C09      1    -0.2328    12.0110 
    11   opls_810      1    UNK   C0A      1    -0.2319    12.0110 
    12   opls_811      1    UNK   C0B      1      -0.23    12.0110 
    13   opls_812      1    UNK   H0C      1     0.0807     1.0080 
    14   opls_813      1    UNK   H0D      1     0.0807     1.0080 
    15   opls_814      1    UNK   H0E      1     0.0807     1.0080 
    16   opls_815      1    UNK   H0F      1     0.0876     1.0080 
    17   opls_816      1    UNK   H0G      1     0.0876     1.0080 
    18   opls_817      1    UNK   H0H      1     0.0891     1.0080 
    19   opls_818      1    UNK   H0I      1     0.0891     1.0080 
    20   opls_819      1    UNK   H0J      1     0.0902     1.0080 
    21   opls_820      1    UNK   H0K      1     0.0902     1.0080 
    22   opls_821      1    UNK   H0M      1      0.088     1.0080 
    23   opls_822      1    UNK   H0N      1      0.088     1.0080 
    24   opls_823      1    UNK   H0O      1     0.0932     1.0080 
    25   opls_824      1    UNK   H0P      1     0.0866     1.0080 
    26   opls_825      1    UNK   H0Q      1     0.0866     1.0080 
    27   opls_826      1    UNK   H0R      1     0.0801     1.0080 
    28   opls_827      1    UNK   H0S      1     0.0801     1.0080 
    29   opls_828      1    UNK   H0T      1     0.0801     1.0080 
    30   opls_829      1    UNK   H0U      1     0.0811     1.0080 
    31   opls_830      1    UNK   H0V      1     0.0811     1.0080 
    32   opls_831      1    UNK   H0W      1     0.0811     1.0080 
    33   opls_832      1    UNK   H0X      2     0.0812     1.0080 
    34   opls_833      1    UNK   H0Y      2     0.0812     1.0080 
    35   opls_834      1    UNK   H0Z      2     0.0812     1.0080 
    36   opls_835      1    UNK   H10      2     0.0809     1.0080 
    37   opls_836      1    UNK   H11      2     0.0809     1.0080 
    38   opls_837      1    UNK   H12      2     0.0809     1.0080 
[ bonds ]
    2     1     1      0.1529 224262.400
    3     2     1      0.1529 224262.400
    4     3     1      0.1529 224262.400
    5     4     1      0.1529 224262.400
    6     5     1      0.1529 224262.400
    7     6     1      0.1529 224262.400
    8     7     1      0.1529 224262.400
    9     6     1      0.1529 224262.400
   10     9     1      0.1529 224262.400
   11     9     1      0.1529 224262.400
   12     9     1      0.1529 224262.400
   13     1     1      0.1090 284512.000
   14     1     1      0.1090 284512.000
   15     1     1      0.1090 284512.000
   16     2     1      0.1090 284512.000
   17     2     1      0.1090 284512.000
   18     3     1      0.1090 284512.000
   19     3     1      0.1090 284512.000
   20     4     1      0.1090 284512.000
   21     4     1      0.1090 284512.000
   22     5     1      0.1090 284512.000
   23     5     1      0.1090 284512.000
   24     6     1      0.1090 284512.000
   25     7     1      0.1090 284512.000
   26     7     1      0.1090 284512.000
   27     8     1      0.1090 284512.000
   28     8     1      0.1090 284512.000
   29     8     1      0.1090 284512.000
   30    10     1      0.1090 284512.000
   31    10     1      0.1090 284512.000
   32    10     1      0.1090 284512.000
   33    11     1      0.1090 284512.000
   34    11     1      0.1090 284512.000
   35    11     1      0.1090 284512.000
   36    12     1      0.1090 284512.000
   37    12     1      0.1090 284512.000
   38    12     1      0.1090 284512.000

[ angles ]
;  ai    aj    ak funct            c0            c1            c2            c3 
    1     2     3     1    112.700    488.273
    2     3     4     1    112.700    488.273
    3     4     5     1    112.700    488.273
    4     5     6     1    112.700    488.273
    5     6     7     1    112.700    488.273
    6     7     8     1    112.700    488.273
    5     6     9     1    112.700    488.273
    6     9    10     1    112.700    488.273
    6     9    11     1    112.700    488.273
    6     9    12     1    112.700    488.273
    2     1    13     1    110.700    313.800
    2     1    14     1    110.700    313.800
    2     1    15     1    110.700    313.800
    1     2    16     1    110.700    313.800
    1     2    17     1    110.700    313.800
    2     3    18     1    110.700    313.800
    2     3    19     1    110.700    313.800
    3     4    20     1    110.700    313.800
    3     4    21     1    110.700    313.800
    4     5    22     1    110.700    313.800
    4     5    23     1    110.700    313.800
    5     6    24     1    110.700    313.800
    6     7    25     1    110.700    313.800
    6     7    26     1    110.700    313.800
    7     8    27     1    110.700    313.800
    7     8    28     1    110.700    313.800
    7     8    29     1    110.700    313.800
    9    10    30     1    110.700    313.800
    9    10    31     1    110.700    313.800
    9    10    32     1    110.700    313.800
    9    11    33     1    110.700    313.800
    9    11    34     1    110.700    313.800
    9    11    35     1    110.700    313.800
    9    12    36     1    110.700    313.800
    9    12    37     1    110.700    313.800
    9    12    38     1    110.700    313.800
    7     6     9     1    112.700    488.273
   13     1    14     1    107.800    276.144
   27     8    29     1    107.800    276.144
    9     6    24     1    110.700    313.800
   37    12    38     1    107.800    276.144
    6     5    22     1    110.700    313.800
   10     9    12     1    112.700    488.273
    3     2    17     1    110.700    313.800
   28     8    29     1    107.800    276.144
   11     9    12     1    112.700    488.273
   16     2    17     1    107.800    276.144
    4     3    19     1    110.700    313.800
    8     7    26     1    110.700    313.800
   36    12    37     1    107.800    276.144
    3     2    16     1    110.700    313.800
   27     8    28     1    107.800    276.144
    4     3    18     1    110.700    313.800
   22     5    23     1    107.800    276.144
    7     6    24     1    110.700    313.800
   30    10    31     1    107.800    276.144
    8     7    25     1    110.700    313.800
   34    11    35     1    107.800    276.144
   14     1    15     1    107.800    276.144
   33    11    34     1    107.800    276.144
   18     3    19     1    107.800    276.144
   25     7    26     1    107.800    276.144
    5     4    20     1    110.700    313.800
   10     9    11     1    112.700    488.273
   33    11    35     1    107.800    276.144
   31    10    32     1    107.800    276.144
    6     5    23     1    110.700    313.800
    5     4    21     1    110.700    313.800
   30    10    32     1    107.800    276.144
   13     1    15     1    107.800    276.144
   36    12    38     1    107.800    276.144
   20     4    21     1    107.800    276.144

[ dihedrals ]
; IMPROPER DIHEDRAL ANGLES 
;  ai    aj    ak    al funct            c0            c1            c2            c3            c4            c5

[ dihedrals ]
; PROPER DIHEDRAL ANGLES
;  ai    aj    ak    al funct            c0            c1            c2            c3            c4            c5
    4    3    2    1        3       2.301  -1.464   0.837  -1.674  -0.000   0.000
    9    6    5    4        3       2.301  -1.464   0.837  -1.674  -0.000   0.000
   12    9    6    7        3       2.301  -1.464   0.837  -1.674  -0.000   0.000
   12    9    6    5        3       2.301  -1.464   0.837  -1.674  -0.000   0.000
   10    9    6    7        3       2.301  -1.464   0.837  -1.674  -0.000   0.000
   11    9    6    7        3       2.301  -1.464   0.837  -1.674  -0.000   0.000
    9    6    7    8        3       2.301  -1.464   0.837  -1.674  -0.000   0.000
   11    9    6    5        3       2.301  -1.464   0.837  -1.674  -0.000   0.000
   10    9    6    5        3       2.301  -1.464   0.837  -1.674  -0.000   0.000
    5    4    3    2        3       2.301  -1.464   0.837  -1.674  -0.000   0.000
    6    5    4    3        3       2.301  -1.464   0.837  -1.674  -0.000   0.000
    7    6    5    4        3       2.301  -1.464   0.837  -1.674  -0.000   0.000
    8    7    6    5        3       2.301  -1.464   0.837  -1.674  -0.000   0.000
   31   10    9    6        3       0.628   1.883   0.000  -2.510  -0.000   0.000
   18    3    4    5        3       0.628   1.883   0.000  -2.510  -0.000   0.000
   31   10    9   11        3       0.628   1.883   0.000  -2.510  -0.000   0.000
   21    4    3    2        3       0.628   1.883   0.000  -2.510  -0.000   0.000
   20    4    5    6        3       0.628   1.883   0.000  -2.510  -0.000   0.000
   23    5    4    3        3       0.628   1.883   0.000  -2.510  -0.000   0.000
   25    7    6    5        3       0.628   1.883   0.000  -2.510  -0.000   0.000
   18    3    2    1        3       0.628   1.883   0.000  -2.510  -0.000   0.000
   36   12    9   10        3       0.628   1.883   0.000  -2.510  -0.000   0.000
   38   12    9    6        3       0.628   1.883   0.000  -2.510  -0.000   0.000
   30   10    9   12        3       0.628   1.883   0.000  -2.510  -0.000   0.000
   24    6    9   12        3       0.628   1.883   0.000  -2.510  -0.000   0.000
   22    5    4    3        3       0.628   1.883   0.000  -2.510  -0.000   0.000
   32   10    9    6        3       0.628   1.883   0.000  -2.510  -0.000   0.000
   31   10    9   12        3       0.628   1.883   0.000  -2.510  -0.000   0.000
   24    6    5    4        3       0.628   1.883   0.000  -2.510  -0.000   0.000
   32   10    9   12        3       0.628   1.883   0.000  -2.510  -0.000   0.000
   35   11    9    6        3       0.628   1.883   0.000  -2.510  -0.000   0.000
   38   12    9   10        3       0.628   1.883   0.000  -2.510  -0.000   0.000
   35   11    9   12        3       0.628   1.883   0.000  -2.510  -0.000   0.000
   33   11    9   10        3       0.628   1.883   0.000  -2.510  -0.000   0.000
   14    1    2    3        3       0.628   1.883   0.000  -2.510  -0.000   0.000
   26    7    6    5        3       0.628   1.883   0.000  -2.510  -0.000   0.000
   24    6    9   11        3       0.628   1.883   0.000  -2.510  -0.000   0.000
   19    3    4    5        3       0.628   1.883   0.000  -2.510  -0.000   0.000
   21    4    5    6        3       0.628   1.883   0.000  -2.510  -0.000   0.000
   22    5    6    9        3       0.628   1.883   0.000  -2.510  -0.000   0.000
   38   12    9   11        3       0.628   1.883   0.000  -2.510  -0.000   0.000
   29    8    7    6        3       0.628   1.883   0.000  -2.510  -0.000   0.000
   37   12    9    6        3       0.628   1.883   0.000  -2.510  -0.000   0.000
   30   10    9   11        3       0.628   1.883   0.000  -2.510  -0.000   0.000
   24    6    7    8        3       0.628   1.883   0.000  -2.510  -0.000   0.000
   15    1    2    3        3       0.628   1.883   0.000  -2.510  -0.000   0.000
   37   12    9   10        3       0.628   1.883   0.000  -2.510  -0.000   0.000
   36   12    9   11        3       0.628   1.883   0.000  -2.510  -0.000   0.000
   28    8    7    6        3       0.628   1.883   0.000  -2.510  -0.000   0.000
   37   12    9   11        3       0.628   1.883   0.000  -2.510  -0.000   0.000
   20    4    3    2        3       0.628   1.883   0.000  -2.510  -0.000   0.000
   22    5    6    7        3       0.628   1.883   0.000  -2.510  -0.000   0.000
   24    6    9   10        3       0.628   1.883   0.000  -2.510  -0.000   0.000
   26    7    6    9        3       0.628   1.883   0.000  -2.510  -0.000   0.000
   34   11    9   10        3       0.628   1.883   0.000  -2.510  -0.000   0.000
   33   11    9    6        3       0.628   1.883   0.000  -2.510  -0.000   0.000
   34   11    9   12        3       0.628   1.883   0.000  -2.510  -0.000   0.000
   36   12    9    6        3       0.628   1.883   0.000  -2.510  -0.000   0.000
   32   10    9   11        3       0.628   1.883   0.000  -2.510  -0.000   0.000
   35   11    9   10        3       0.628   1.883   0.000  -2.510  -0.000   0.000
   25    7    6    9        3       0.628   1.883   0.000  -2.510  -0.000   0.000
   23    5    6    9        3       0.628   1.883   0.000  -2.510  -0.000   0.000
   34   11    9    6        3       0.628   1.883   0.000  -2.510  -0.000   0.000
   30   10    9    6        3       0.628   1.883   0.000  -2.510  -0.000   0.000
   33   11    9   12        3       0.628   1.883   0.000  -2.510  -0.000   0.000
   13    1    2    3        3       0.628   1.883   0.000  -2.510  -0.000   0.000
   19    3    2    1        3       0.628   1.883   0.000  -2.510  -0.000   0.000
   16    2    3    4        3       0.628   1.883   0.000  -2.510  -0.000   0.000
   27    8    7    6        3       0.628   1.883   0.000  -2.510  -0.000   0.000
   17    2    3    4        3       0.628   1.883   0.000  -2.510  -0.000   0.000
   23    5    6    7        3       0.628   1.883   0.000  -2.510  -0.000   0.000
   21    4    3   18        3       0.628   1.883   0.000  -2.510  -0.000   0.000
   20    4    3   19        3       0.628   1.883   0.000  -2.510  -0.000   0.000
   16    2    1   13        3       0.628   1.883   0.000  -2.510  -0.000   0.000
   16    2    1   15        3       0.628   1.883   0.000  -2.510  -0.000   0.000
   17    2    1   14        3       0.628   1.883   0.000  -2.510  -0.000   0.000
   22    5    4   20        3       0.628   1.883   0.000  -2.510  -0.000   0.000
   27    8    7   25        3       0.628   1.883   0.000  -2.510  -0.000   0.000
   18    3    2   16        3       0.628   1.883   0.000  -2.510  -0.000   0.000
   19    3    2   17        3       0.628   1.883   0.000  -2.510  -0.000   0.000
   28    8    7   26        3       0.628   1.883   0.000  -2.510  -0.000   0.000
   29    8    7   25        3       0.628   1.883   0.000  -2.510  -0.000   0.000
   21    4    3   19        3       0.628   1.883   0.000  -2.510  -0.000   0.000
   22    5    4   21        3       0.628   1.883   0.000  -2.510  -0.000   0.000
   23    5    4   20        3       0.628   1.883   0.000  -2.510  -0.000   0.000
   26    7    6   24        3       0.628   1.883   0.000  -2.510  -0.000   0.000
   28    8    7   25        3       0.628   1.883   0.000  -2.510  -0.000   0.000
   23    5    4   21        3       0.628   1.883   0.000  -2.510  -0.000   0.000
   27    8    7   26        3       0.628   1.883   0.000  -2.510  -0.000   0.000
   17    2    1   13        3       0.628   1.883   0.000  -2.510  -0.000   0.000
   16    2    1   14        3       0.628   1.883   0.000  -2.510  -0.000   0.000
   29    8    7   26        3       0.628   1.883   0.000  -2.510  -0.000   0.000
   19    3    2   16        3       0.628   1.883   0.000  -2.510  -0.000   0.000
   18    3    2   17        3       0.628   1.883   0.000  -2.510  -0.000   0.000
   20    4    3   18        3       0.628   1.883   0.000  -2.510  -0.000   0.000
   24    6    5   22        3       0.628   1.883   0.000  -2.510  -0.000   0.000
   25    7    6   24        3       0.628   1.883   0.000  -2.510  -0.000   0.000
   24    6    5   23        3       0.628   1.883   0.000  -2.510  -0.000   0.000
   17    2    1   15        3       0.628   1.883   0.000  -2.510  -0.000   0.000

[ pairs ]
     1     4    1
     2     5    1
     3     6    1
     4     7    1
     5     8    1
     4     9    1
     5    10    1
     5    11    1
     3    13    1
     8     9    1
     7    10    1
     5    12    1
     3    14    1
     7    11    1
     3    15    1
     7    12    1
     1    18    1
     4    16    1
     1    19    1
     4    17    1
     2    20    1
     5    18    1
     2    21    1
     5    19    1
     3    22    1
     6    20    1
     3    23    1
     6    21    1
     4    24    1
    13    16    1
     7    22    1
    14    16    1
    13    17    1
     7    23    1
     5    25    1
    15    16    1
    14    17    1
     9    22    1
     5    26    1
    15    17    1
     9    23    1
     8    24    1
     6    27    1
    16    18    1
    10    24    1
     9    25    1
     6    28    1
    17    18    1
    16    19    1
    11    24    1
     9    26    1
     6    29    1
    17    19    1
    12    24    1
     6    30    1
     6    31    1
    18    20    1
     6    32    1
    19    20    1
    18    21    1
     6    33    1
    19    21    1
     6    34    1
    11    30    1
     6    35    1
    20    22    1
    12    30    1
    11    31    1
     6    36    1
    21    22    1
    20    23    1
    12    31    1
    11    32    1
    10    33    1
     6    37    1
    21    23    1
    12    32    1
    10    34    1
     6    38    1
    12    33    1
    10    35    1
    22    24    1
    12    34    1
    10    36    1
    23    24    1
    12    35    1
    11    36    1
    10    37    1
    11    37    1
    10    38    1
    24    25    1
    11    38    1
    24    26    1
    25    27    1
    26    27    1
    25    28    1
    26    28    1
    25    29    1
    26    29    1

