LIGPARGEN GENERATED GRO FILE
   47
    1UNK    C00    1   0.100   0.100   0.000
    1UNK    C01    2  -0.052   0.100   0.000
    1UNK    C02    3  -0.108   0.100   0.142
    1UNK    C03    4  -0.262   0.106   0.147
    1UNK    C04    5  -0.327  -0.017   0.086
    1UNK    O05    6  -0.306   0.116   0.284
    1UNK    C06    7  -0.303   0.243   0.335
    1UNK    O07    8  -0.267   0.341   0.273
    1UNK    O08    9  -0.346   0.240   0.464
    1UNK    C09   10  -0.351   0.365   0.538
    1UNK    C0A   11  -0.210   0.424   0.554
    1UNK    C0B   12  -0.446   0.465   0.471
    1UNK    C0C   13  -0.403   0.330   0.681
    1UNK    C0D   14  -0.542   0.266   0.686
    1UNK    C0E   15  -0.594   0.243   0.829
    1UNK    N0F   16  -0.604   0.365   0.912
    1UNK    C0G   17  -0.694   0.465   0.854
    1UNK    C0H   18  -0.651   0.329   1.046
    1UNK    H0I   19   0.138   0.100  -0.103
    1UNK    H0J   20   0.139   0.011   0.051
    1UNK    H0K   21   0.139   0.189   0.051
    1UNK    H0M   22  -0.087   0.012  -0.055
    1UNK    H0N   23  -0.088   0.188  -0.054
    1UNK    H0O   24  -0.067   0.185   0.197
    1UNK    H0P   25  -0.074   0.011   0.197
    1UNK    H0Q   26  -0.298   0.193   0.090
    1UNK    H0R   27  -0.291  -0.109   0.135
    1UNK    H0S   28  -0.308  -0.025  -0.021
    1UNK    H0T   29  -0.436  -0.014   0.101
    1UNK    H0U   30  -0.165   0.452   0.459
    1UNK    H0V   31  -0.142   0.352   0.600
    1UNK    H0W   32  -0.212   0.514   0.617
    1UNK    H0X   33  -0.411   0.496   0.373
    1UNK    H0Y   34  -0.457   0.556   0.532
    1UNK    H0Z   35  -0.545   0.421   0.454
    1UNK    H10   36  -0.402   0.422   0.742
    1UNK    H11   37  -0.332   0.261   0.729
    1UNK    H12   38  -0.538   0.168   0.636
    1UNK    H13   39  -0.615   0.325   0.631
    1UNK    H14   40  -0.525   0.173   0.879
    1UNK    H15   41  -0.691   0.193   0.823
    1UNK    H16   42  -0.653   0.505   0.761
    1UNK    H17   43  -0.704   0.551   0.921
    1UNK    H18   44  -0.794   0.424   0.834
    1UNK    H19   45  -0.583   0.258   1.094
    1UNK    H1A   46  -0.752   0.285   1.044
    1UNK    H1B   47  -0.654   0.418   1.111
   1.00000   1.00000   1.00000

