
;
; GENERATED BY LigParGen Server
; Jorgensen Lab @ Yale University 
;
[ atomtypes ]
  opls_807  O807    15.9990     0.000    A    2.96000E-01   8.78640E-01
  opls_818  H818     1.0080     0.000    A    2.50000E-01   1.25520E-01
  opls_814  C814    12.0110     0.000    A    3.50000E-01   2.76144E-01
  opls_824  H824     1.0080     0.000    A    2.50000E-01   1.25520E-01
  opls_804  C804    12.0110     0.000    A    3.50000E-01   2.76144E-01
  opls_843  H843     1.0080     0.000    A    2.50000E-01   1.25520E-01
  opls_836  H836     1.0080     0.000    A    2.50000E-01   1.25520E-01
  opls_834  H834     1.0080     0.000    A    2.50000E-01   1.25520E-01
  opls_810  C810    12.0110     0.000    A    3.50000E-01   2.76144E-01
  opls_828  H828     1.0080     0.000    A    2.50000E-01   1.25520E-01
  opls_815  N815    14.0070     0.000    A    3.30000E-01   7.11280E-01
  opls_802  C802    12.0110     0.000    A    3.50000E-01   2.76144E-01
  opls_827  H827     1.0080     0.000    A    2.50000E-01   1.25520E-01
  opls_809  C809    12.0110     0.000    A    3.50000E-01   2.76144E-01
  opls_838  H838     1.0080     0.000    A    2.50000E-01   1.25520E-01
  opls_822  H822     1.0080     0.000    A    2.50000E-01   1.25520E-01
  opls_803  C803    12.0110     0.000    A    3.50000E-01   2.76144E-01
  opls_812  C812    12.0110     0.000    A    3.50000E-01   2.76144E-01
  opls_825  H825     1.0080     0.000    A    2.50000E-01   1.25520E-01
  opls_830  H830     1.0080     0.000    A    2.50000E-01   1.25520E-01
  opls_821  H821     1.0080     0.000    A    2.50000E-01   1.25520E-01
  opls_842  H842     1.0080     0.000    A    2.50000E-01   1.25520E-01
  opls_820  H820     1.0080     0.000    A    2.50000E-01   1.25520E-01
  opls_837  H837     1.0080     0.000    A    2.50000E-01   1.25520E-01
  opls_829  H829     1.0080     0.000    A    2.50000E-01   1.25520E-01
  opls_831  H831     1.0080     0.000    A    2.50000E-01   1.25520E-01
  opls_832  H832     1.0080     0.000    A    2.50000E-01   1.25520E-01
  opls_800  C800    12.0110     0.000    A    3.50000E-01   2.76144E-01
  opls_845  H845     1.0080     0.000    A    2.50000E-01   1.25520E-01
  opls_846  H846     1.0080     0.000    A    2.50000E-01   1.25520E-01
  opls_811  C811    12.0110     0.000    A    3.50000E-01   2.76144E-01
  opls_806  C806    12.0110     0.000    A    3.55000E-01   2.92880E-01
  opls_823  H823     1.0080     0.000    A    2.50000E-01   1.25520E-01
  opls_813  C813    12.0110     0.000    A    3.50000E-01   2.76144E-01
  opls_805  O805    15.9990     0.000    A    2.90000E-01   5.85760E-01
  opls_826  H826     1.0080     0.000    A    2.50000E-01   1.25520E-01
  opls_835  H835     1.0080     0.000    A    2.50000E-01   1.25520E-01
  opls_841  H841     1.0080     0.000    A    2.50000E-01   1.25520E-01
  opls_819  H819     1.0080     0.000    A    2.50000E-01   1.25520E-01
  opls_816  C816    12.0110     0.000    A    3.50000E-01   2.76144E-01
  opls_833  H833     1.0080     0.000    A    2.50000E-01   1.25520E-01
  opls_839  H839     1.0080     0.000    A    2.50000E-01   1.25520E-01
  opls_817  C817    12.0110     0.000    A    3.50000E-01   2.76144E-01
  opls_801  C801    12.0110     0.000    A    3.50000E-01   2.76144E-01
  opls_840  H840     1.0080     0.000    A    2.50000E-01   1.25520E-01
  opls_844  H844     1.0080     0.000    A    2.50000E-01   1.25520E-01
  opls_808  O808    15.9990     0.000    A    2.90000E-01   5.85760E-01
[ moleculetype ]
; Name               nrexcl
UNK                   3
[ atoms ]
;   nr       type  resnr residue  atom   cgnr     charge       mass  
     1   opls_800      1    UNK   C00      1    -0.2385    12.0110 
     2   opls_801      1    UNK   C01      1    -0.1721    12.0110 
     3   opls_802      1    UNK   C02      1    -0.2048    12.0110 
     4   opls_803      1    UNK   C03      1       0.08    12.0110 
     5   opls_804      1    UNK   C04      1    -0.2457    12.0110 
     6   opls_805      1    UNK   O05      1    -0.3296    15.9990 
     7   opls_806      1    UNK   C06      1     0.5831    12.0110 
     8   opls_807      1    UNK   O07      1    -0.5085    15.9990 
     9   opls_808      1    UNK   O08      1    -0.3351    15.9990 
    10   opls_809      1    UNK   C09      1     0.1591    12.0110 
    11   opls_810      1    UNK   C0A      1    -0.2753    12.0110 
    12   opls_811      1    UNK   C0B      1    -0.2742    12.0110 
    13   opls_812      1    UNK   C0C      1     -0.164    12.0110 
    14   opls_813      1    UNK   C0D      1    -0.1757    12.0110 
    15   opls_814      1    UNK   C0E      1     0.0084    12.0110 
    16   opls_815      1    UNK   N0F      1    -0.5801    14.0070 
    17   opls_816      1    UNK   C0G      1    -0.0527    12.0110 
    18   opls_817      1    UNK   C0H      1    -0.0522    12.0110 
    19   opls_818      1    UNK   H0I      1     0.0835     1.0080 
    20   opls_819      1    UNK   H0J      1     0.0835     1.0080 
    21   opls_820      1    UNK   H0K      1     0.0835     1.0080 
    22   opls_821      1    UNK   H0M      1     0.0904     1.0080 
    23   opls_822      1    UNK   H0N      1     0.0904     1.0080 
    24   opls_823      1    UNK   H0O      1     0.1061     1.0080 
    25   opls_824      1    UNK   H0P      1     0.1061     1.0080 
    26   opls_825      1    UNK   H0Q      1     0.1239     1.0080 
    27   opls_826      1    UNK   H0R      1     0.0996     1.0080 
    28   opls_827      1    UNK   H0S      1     0.0996     1.0080 
    29   opls_828      1    UNK   H0T      1     0.0996     1.0080 
    30   opls_829      1    UNK   H0U      1     0.1044     1.0080 
    31   opls_830      1    UNK   H0V      1     0.1044     1.0080 
    32   opls_831      1    UNK   H0W      1     0.1044     1.0080 
    33   opls_832      1    UNK   H0X      2     0.1041     1.0080 
    34   opls_833      1    UNK   H0Y      2     0.1041     1.0080 
    35   opls_834      1    UNK   H0Z      2     0.1041     1.0080 
    36   opls_835      1    UNK   H10      2     0.1151     1.0080 
    37   opls_836      1    UNK   H11      2     0.1151     1.0080 
    38   opls_837      1    UNK   H12      2     0.0991     1.0080 
    39   opls_838      1    UNK   H13      2     0.0991     1.0080 
    40   opls_839      1    UNK   H14      2     0.0837     1.0080 
    41   opls_840      1    UNK   H15      2     0.0837     1.0080 
    42   opls_841      1    UNK   H16      2     0.0814     1.0080 
    43   opls_842      1    UNK   H17      2     0.0814     1.0080 
    44   opls_843      1    UNK   H18      2     0.0814     1.0080 
    45   opls_844      1    UNK   H19      2     0.0821     1.0080 
    46   opls_845      1    UNK   H1A      2     0.0821     1.0080 
    47   opls_846      1    UNK   H1B      2     0.0821     1.0080 
[ bonds ]
    2     1     1      0.1529 224262.400
    3     2     1      0.1529 224262.400
    4     3     1      0.1529 224262.400
    5     4     1      0.1529 224262.400
    6     4     1      0.1410 267776.000
    7     6     1      0.1327 179075.200
    8     7     1      0.1229 476976.000
    9     7     1      0.1327 179075.200
   10     9     1      0.1410 267776.000
   11    10     1      0.1529 224262.400
   12    10     1      0.1529 224262.400
   13    10     1      0.1529 224262.400
   14    13     1      0.1529 224262.400
   15    14     1      0.1529 224262.400
   16    15     1      0.1448 319657.600
   17    16     1      0.1448 319657.600
   18    16     1      0.1448 319657.600
   19     1     1      0.1090 284512.000
   20     1     1      0.1090 284512.000
   21     1     1      0.1090 284512.000
   22     2     1      0.1090 284512.000
   23     2     1      0.1090 284512.000
   24     3     1      0.1090 284512.000
   25     3     1      0.1090 284512.000
   26     4     1      0.1090 284512.000
   27     5     1      0.1090 284512.000
   28     5     1      0.1090 284512.000
   29     5     1      0.1090 284512.000
   30    11     1      0.1090 284512.000
   31    11     1      0.1090 284512.000
   32    11     1      0.1090 284512.000
   33    12     1      0.1090 284512.000
   34    12     1      0.1090 284512.000
   35    12     1      0.1090 284512.000
   36    13     1      0.1090 284512.000
   37    13     1      0.1090 284512.000
   38    14     1      0.1090 284512.000
   39    14     1      0.1090 284512.000
   40    15     1      0.1090 284512.000
   41    15     1      0.1090 284512.000
   42    17     1      0.1090 284512.000
   43    17     1      0.1090 284512.000
   44    17     1      0.1090 284512.000
   45    18     1      0.1090 284512.000
   46    18     1      0.1090 284512.000
   47    18     1      0.1090 284512.000

[ angles ]
;  ai    aj    ak funct            c0            c1            c2            c3 
    1     2     3     1    112.700    488.273
    2     3     4     1    112.700    488.273
    3     4     5     1    112.700    488.273
    3     4     6     1    109.500    418.400
    4     6     7     1    116.900    694.544
    6     7     8     1    123.400    694.544
    6     7     9     1    118.180    584.923
    7     9    10     1    116.900    694.544
    9    10    11     1    109.500    418.400
    9    10    12     1    109.500    418.400
    9    10    13     1    109.500    418.400
   10    13    14     1    112.700    488.273
   13    14    15     1    112.700    488.273
   14    15    16     1    109.470    470.282
   15    16    17     1    107.200    433.462
   15    16    18     1    107.200    433.462
    2     1    19     1    110.700    313.800
    2     1    20     1    110.700    313.800
    2     1    21     1    110.700    313.800
    1     2    22     1    110.700    313.800
    1     2    23     1    110.700    313.800
    2     3    24     1    110.700    313.800
    2     3    25     1    110.700    313.800
    3     4    26     1    110.700    313.800
    4     5    27     1    110.700    313.800
    4     5    28     1    110.700    313.800
    4     5    29     1    110.700    313.800
   10    11    30     1    110.700    313.800
   10    11    31     1    110.700    313.800
   10    11    32     1    110.700    313.800
   10    12    33     1    110.700    313.800
   10    12    34     1    110.700    313.800
   10    12    35     1    110.700    313.800
   10    13    36     1    110.700    313.800
   10    13    37     1    110.700    313.800
   13    14    38     1    110.700    313.800
   13    14    39     1    110.700    313.800
   14    15    40     1    110.700    313.800
   14    15    41     1    110.700    313.800
   16    17    42     1    109.500    292.880
   16    17    43     1    109.500    292.880
   16    17    44     1    109.500    292.880
   16    18    45     1    109.500    292.880
   16    18    46     1    109.500    292.880
   16    18    47     1    109.500    292.880
   16    15    40     1    109.500    292.880
   30    11    32     1    107.800    276.144
   11    10    12     1    112.700    488.273
    6     4    26     1    109.500    292.880
   19     1    21     1    107.800    276.144
   33    12    34     1    107.800    276.144
    4     3    24     1    110.700    313.800
   33    12    35     1    107.800    276.144
   30    11    31     1    107.800    276.144
   20     1    21     1    107.800    276.144
   42    17    43     1    107.800    276.144
   36    13    37     1    107.800    276.144
    5     4     6     1    109.500    418.400
   24     3    25     1    107.800    276.144
   28     5    29     1    107.800    276.144
    5     4    26     1    110.700    313.800
   27     5    28     1    107.800    276.144
    8     7     9     1    123.400    694.544
   42    17    44     1    107.800    276.144
   11    10    13     1    112.700    488.273
   14    13    36     1    110.700    313.800
   45    18    47     1    107.800    276.144
   43    17    44     1    107.800    276.144
   16    15    41     1    109.500    292.880
   17    16    18     1    107.200    433.462
   46    18    47     1    107.800    276.144
   22     2    23     1    107.800    276.144
   15    14    39     1    110.700    313.800
   14    13    37     1    110.700    313.800
   12    10    13     1    112.700    488.273
   27     5    29     1    107.800    276.144
    4     3    25     1    110.700    313.800
   31    11    32     1    107.800    276.144
   38    14    39     1    107.800    276.144
    3     2    22     1    110.700    313.800
    3     2    23     1    110.700    313.800
   40    15    41     1    107.800    276.144
   15    14    38     1    110.700    313.800
   34    12    35     1    107.800    276.144
   19     1    20     1    107.800    276.144
   45    18    46     1    107.800    276.144

[ dihedrals ]
; IMPROPER DIHEDRAL ANGLES 
;  ai    aj    ak    al funct            c0            c1            c2            c3            c4            c5
     9     7     6     8    4        180.000     43.932     2  

[ dihedrals ]
; PROPER DIHEDRAL ANGLES
;  ai    aj    ak    al funct            c0            c1            c2            c3            c4            c5
    7    6    4    5        3      -2.197   5.201   0.527  -3.531  -0.000   0.000
    7    6    4    3        3      -2.197   5.201   0.527  -3.531  -0.000   0.000
   14   13   10   12        3       2.301  -1.464   0.837  -1.674  -0.000   0.000
   14   13   10   11        3       2.301  -1.464   0.837  -1.674  -0.000   0.000
   15   14   13   10        3       2.301  -1.464   0.837  -1.674  -0.000   0.000
    4    3    2    1        3       2.301  -1.464   0.837  -1.674  -0.000   0.000
    5    4    3    2        3       2.301  -1.464   0.837  -1.674  -0.000   0.000
   14   13   10    9        3       2.874   0.582   2.092  -5.548  -0.000   0.000
   11   10    9    7        3      -2.197   5.201   0.527  -3.531  -0.000   0.000
   13   10    9    7        3      -2.197   5.201   0.527  -3.531  -0.000   0.000
   12   10    9    7        3      -2.197   5.201   0.527  -3.531  -0.000   0.000
   18   16   15   14        3       1.789   3.492   0.536  -5.816  -0.000   0.000
   17   16   15   14        3       1.789   3.492   0.536  -5.816  -0.000   0.000
   10    9    7    8        3      21.439   0.000  -21.439  -0.000  -0.000   0.000
   10    9    7    6        3      31.206  -9.768  -21.439  -0.000  -0.000   0.000
   23    2    3    4        3       0.628   1.883   0.000  -2.510  -0.000   0.000
   37   13   14   15        3       0.628   1.883   0.000  -2.510  -0.000   0.000
   35   12   10   13        3       0.628   1.883   0.000  -2.510  -0.000   0.000
   28    5    4    3        3       0.628   1.883   0.000  -2.510  -0.000   0.000
   34   12   10   11        3       0.628   1.883   0.000  -2.510  -0.000   0.000
   36   13   10   11        3       0.628   1.883   0.000  -2.510  -0.000   0.000
   40   15   14   13        3       0.628   1.883   0.000  -2.510  -0.000   0.000
   31   11   10   13        3       0.628   1.883   0.000  -2.510  -0.000   0.000
   32   11   10   12        3       0.628   1.883   0.000  -2.510  -0.000   0.000
   20    1    2    3        3       0.628   1.883   0.000  -2.510  -0.000   0.000
   34   12   10   13        3       0.628   1.883   0.000  -2.510  -0.000   0.000
   35   12   10   11        3       0.628   1.883   0.000  -2.510  -0.000   0.000
   24    3    2    1        3       0.628   1.883   0.000  -2.510  -0.000   0.000
   38   14   13   10        3       0.628   1.883   0.000  -2.510  -0.000   0.000
   33   12   10   13        3       0.628   1.883   0.000  -2.510  -0.000   0.000
   30   11   10   12        3       0.628   1.883   0.000  -2.510  -0.000   0.000
   25    3    4    5        3       0.628   1.883   0.000  -2.510  -0.000   0.000
   21    1    2    3        3       0.628   1.883   0.000  -2.510  -0.000   0.000
   36   13   10   12        3       0.628   1.883   0.000  -2.510  -0.000   0.000
   37   13   10   11        3       0.628   1.883   0.000  -2.510  -0.000   0.000
   39   14   13   10        3       0.628   1.883   0.000  -2.510  -0.000   0.000
   24    3    4    5        3       0.628   1.883   0.000  -2.510  -0.000   0.000
   32   11   10   13        3       0.628   1.883   0.000  -2.510  -0.000   0.000
   41   15   14   13        3       0.628   1.883   0.000  -2.510  -0.000   0.000
   37   13   10   12        3       0.628   1.883   0.000  -2.510  -0.000   0.000
   36   13   14   15        3       0.628   1.883   0.000  -2.510  -0.000   0.000
   26    4    3    2        3       0.628   1.883   0.000  -2.510  -0.000   0.000
   31   11   10   12        3       0.628   1.883   0.000  -2.510  -0.000   0.000
   33   12   10   11        3       0.628   1.883   0.000  -2.510  -0.000   0.000
   29    5    4    3        3       0.628   1.883   0.000  -2.510  -0.000   0.000
   27    5    4    3        3       0.628   1.883   0.000  -2.510  -0.000   0.000
   30   11   10   13        3       0.628   1.883   0.000  -2.510  -0.000   0.000
   22    2    3    4        3       0.628   1.883   0.000  -2.510  -0.000   0.000
   19    1    2    3        3       0.628   1.883   0.000  -2.510  -0.000   0.000
   25    3    2    1        3       0.628   1.883   0.000  -2.510  -0.000   0.000
   26    4    3   25        3       0.628   1.883   0.000  -2.510  -0.000   0.000
   41   15   14   38        3       0.628   1.883   0.000  -2.510  -0.000   0.000
   40   15   14   39        3       0.628   1.883   0.000  -2.510  -0.000   0.000
   25    3    2   22        3       0.628   1.883   0.000  -2.510  -0.000   0.000
   25    3    2   23        3       0.628   1.883   0.000  -2.510  -0.000   0.000
   24    3    2   23        3       0.628   1.883   0.000  -2.510  -0.000   0.000
   38   14   13   36        3       0.628   1.883   0.000  -2.510  -0.000   0.000
   40   15   14   38        3       0.628   1.883   0.000  -2.510  -0.000   0.000
   41   15   14   39        3       0.628   1.883   0.000  -2.510  -0.000   0.000
   22    2    1   19        3       0.628   1.883   0.000  -2.510  -0.000   0.000
   26    4    3   24        3       0.628   1.883   0.000  -2.510  -0.000   0.000
   23    2    1   19        3       0.628   1.883   0.000  -2.510  -0.000   0.000
   28    5    4   26        3       0.628   1.883   0.000  -2.510  -0.000   0.000
   23    2    1   20        3       0.628   1.883   0.000  -2.510  -0.000   0.000
   29    5    4   26        3       0.628   1.883   0.000  -2.510  -0.000   0.000
   22    2    1   20        3       0.628   1.883   0.000  -2.510  -0.000   0.000
   22    2    1   21        3       0.628   1.883   0.000  -2.510  -0.000   0.000
   23    2    1   21        3       0.628   1.883   0.000  -2.510  -0.000   0.000
   24    3    2   22        3       0.628   1.883   0.000  -2.510  -0.000   0.000
   38   14   13   37        3       0.628   1.883   0.000  -2.510  -0.000   0.000
   39   14   13   36        3       0.628   1.883   0.000  -2.510  -0.000   0.000
   27    5    4   26        3       0.628   1.883   0.000  -2.510  -0.000   0.000
   39   14   13   37        3       0.628   1.883   0.000  -2.510  -0.000   0.000
   38   14   15   16        3      -4.096   5.088   2.966  -3.958  -0.000   0.000
   39   14   15   16        3      -4.096   5.088   2.966  -3.958  -0.000   0.000
   31   11   10    9        3       0.979   2.937   0.000  -3.916  -0.000   0.000
   37   13   10    9        3       0.979   2.937   0.000  -3.916  -0.000   0.000
   32   11   10    9        3       0.979   2.937   0.000  -3.916  -0.000   0.000
   28    5    4    6        3       0.979   2.937   0.000  -3.916  -0.000   0.000
   24    3    4    6        3       0.979   2.937   0.000  -3.916  -0.000   0.000
   27    5    4    6        3       0.979   2.937   0.000  -3.916  -0.000   0.000
   29    5    4    6        3       0.979   2.937   0.000  -3.916  -0.000   0.000
   25    3    4    6        3       0.979   2.937   0.000  -3.916  -0.000   0.000
   33   12   10    9        3       0.979   2.937   0.000  -3.916  -0.000   0.000
   36   13   10    9        3       0.979   2.937   0.000  -3.916  -0.000   0.000
   30   11   10    9        3       0.979   2.937   0.000  -3.916  -0.000   0.000
   35   12   10    9        3       0.979   2.937   0.000  -3.916  -0.000   0.000
   34   12   10    9        3       0.979   2.937   0.000  -3.916  -0.000   0.000
   44   17   16   18        3       1.172   3.515   0.000  -4.686  -0.000   0.000
   45   18   16   17        3       1.172   3.515   0.000  -4.686  -0.000   0.000
   43   17   16   15        3       1.172   3.515   0.000  -4.686  -0.000   0.000
   46   18   16   15        3       1.172   3.515   0.000  -4.686  -0.000   0.000
   42   17   16   15        3       1.172   3.515   0.000  -4.686  -0.000   0.000
   45   18   16   15        3       1.172   3.515   0.000  -4.686  -0.000   0.000
   47   18   16   15        3       1.172   3.515   0.000  -4.686  -0.000   0.000
   42   17   16   18        3       1.172   3.515   0.000  -4.686  -0.000   0.000
   41   15   16   18        3       1.172   3.515   0.000  -4.686  -0.000   0.000
   43   17   16   18        3       1.172   3.515   0.000  -4.686  -0.000   0.000
   46   18   16   17        3       1.172   3.515   0.000  -4.686  -0.000   0.000
   40   15   16   17        3       1.172   3.515   0.000  -4.686  -0.000   0.000
   44   17   16   15        3       1.172   3.515   0.000  -4.686  -0.000   0.000
   41   15   16   17        3       1.172   3.515   0.000  -4.686  -0.000   0.000
   40   15   16   18        3       1.172   3.515   0.000  -4.686  -0.000   0.000
   47   18   16   17        3       1.172   3.515   0.000  -4.686  -0.000   0.000
   26    4    6    7        3       0.414   1.243   0.000  -1.657  -0.000   0.000
   16   15   14   13        3       3.335  -1.552   2.820  -4.602  -0.000   0.000
    8    7    6    4        3      21.439   0.000  -21.439  -0.000  -0.000   0.000
    9    7    6    4        3      31.206  -9.768  -21.439  -0.000  -0.000   0.000
    6    4    3    2        3       2.874   0.582   2.092  -5.548  -0.000   0.000

[ pairs ]
     1     4    1
     2     5    1
     2     6    1
     3     7    1
     5     7    1
     4     8    1
     4     9    1
     6    10    1
     8    10    1
     7    11    1
     7    12    1
     7    13    1
     3    19    1
     9    14    1
     3    20    1
     3    21    1
    11    14    1
    10    15    1
     1    24    1
    12    14    1
     4    22    1
     1    25    1
     4    23    1
     2    26    1
    13    16    1
     5    24    1
     6    24    1
     5    25    1
     3    27    1
    14    17    1
     6    25    1
     3    28    1
    14    18    1
     3    29    1
     7    26    1
     6    27    1
     6    28    1
     6    29    1
     9    30    1
     9    31    1
    19    22    1
     9    32    1
    20    22    1
    19    23    1
    12    30    1
     9    33    1
    21    22    1
    20    23    1
    13    30    1
    12    31    1
     9    34    1
    21    23    1
    13    31    1
    12    32    1
    11    33    1
     9    35    1
    13    32    1
    11    34    1
     9    36    1
    22    24    1
    13    33    1
    11    35    1
     9    37    1
    23    24    1
    22    25    1
    13    34    1
    11    36    1
    23    25    1
    13    35    1
    12    36    1
    11    37    1
    10    38    1
    12    37    1
    10    39    1
    24    26    1
    25    26    1
    15    36    1
    15    37    1
    26    27    1
    13    40    1
    26    28    1
    16    38    1
    13    41    1
    26    29    1
    16    39    1
    17    40    1
    15    42    1
    18    40    1
    17    41    1
    15    43    1
    18    41    1
    15    44    1
    18    42    1
    15    45    1
    18    43    1
    15    46    1
    18    44    1
    17    45    1
    15    47    1
    17    46    1
    17    47    1
    36    38    1
    37    38    1
    36    39    1
    37    39    1
    38    40    1
    39    40    1
    38    41    1
    39    41    1

