LIGPARGEN GENERATED GRO FILE
   38
    1UNK    C00    1   0.100   0.100   0.000
    1UNK    C01    2  -0.052   0.100   0.000
    1UNK    C02    3  -0.110   0.100   0.142
    1UNK    C03    4  -0.263   0.093   0.136
    1UNK    C04    5  -0.327   0.080   0.274
    1UNK    C05    6  -0.483   0.084   0.278
    1UNK    C06    7  -0.550  -0.037   0.206
    1UNK    C07    8  -0.527  -0.052   0.056
    1UNK    C08    9  -0.538   0.098   0.428
    1UNK    C09   10  -0.490   0.230   0.492
    1UNK    C0A   11  -0.692   0.102   0.433
    1UNK    C0B   12  -0.491  -0.018   0.518
    1UNK    H0C   13   0.137   0.100  -0.103
    1UNK    H0D   14   0.139   0.011   0.050
    1UNK    H0E   15   0.139   0.189   0.051
    1UNK    H0F   16  -0.087   0.012  -0.055
    1UNK    H0G   17  -0.088   0.188  -0.054
    1UNK    H0H   18  -0.078   0.190   0.196
    1UNK    H0I   19  -0.071   0.013   0.197
    1UNK    H0J   20  -0.287   0.007   0.075
    1UNK    H0K   21  -0.302   0.182   0.085
    1UNK    H0M   22  -0.288   0.163   0.334
    1UNK    H0N   23  -0.291  -0.012   0.321
    1UNK    H0O   24  -0.515   0.174   0.224
    1UNK    H0P   25  -0.659  -0.028   0.216
    1UNK    H0Q   26  -0.522  -0.131   0.255
    1UNK    H0R   27  -0.517   0.045   0.006
    1UNK    H0S   28  -0.613  -0.103   0.011
    1UNK    H0T   29  -0.441  -0.115   0.035
    1UNK    H0U   30  -0.519   0.317   0.431
    1UNK    H0V   31  -0.382   0.233   0.507
    1UNK    H0W   32  -0.535   0.244   0.592
    1UNK    H0X   33  -0.732   0.182   0.368
    1UNK    H0Y   34  -0.728   0.122   0.534
    1UNK    H0Z   35  -0.738   0.008   0.402
    1UNK    H10   36  -0.382  -0.019   0.529
    1UNK    H11   37  -0.521  -0.115   0.478
    1UNK    H12   38  -0.533  -0.010   0.618
   1.00000   1.00000   1.00000

