
;
; GENERATED BY LigParGen Server
; Jorgensen Lab @ Yale University 
;
[ atomtypes ]
  opls_818  H818     1.0080     0.000    A    2.50000E-01   1.25520E-01
  opls_806  S806    32.0600     0.000    A    3.55000E-01   1.04600E+00
  opls_805  C805    12.0110     0.000    A    3.50000E-01   2.76144E-01
  opls_808  O808    15.9990     0.000    A    2.96000E-01   7.11280E-01
  opls_807  O807    15.9990     0.000    A    2.96000E-01   7.11280E-01
  opls_813  H813     1.0080     0.000    A    2.50000E-01   1.25520E-01
  opls_802  C802    12.0110     0.000    A    3.50000E-01   2.76144E-01
  opls_815  H815     1.0080     0.000    A    2.50000E-01   1.25520E-01
  opls_801  C801    12.0110     0.000    A    3.50000E-01   2.76144E-01
  opls_822  H822     1.0080     0.000    A    2.50000E-01   1.25520E-01
  opls_803  C803    12.0110     0.000    A    3.50000E-01   2.76144E-01
  opls_814  H814     1.0080     0.000    A    2.50000E-01   1.25520E-01
  opls_821  H821     1.0080     0.000    A    2.50000E-01   1.25520E-01
  opls_820  H820     1.0080     0.000    A    2.50000E-01   1.25520E-01
  opls_811  H811     1.0080     0.000    A    2.50000E-01   1.25520E-01
  opls_810  H810     1.0080     0.000    A    2.50000E-01   1.25520E-01
  opls_816  H816     1.0080     0.000    A    2.50000E-01   1.25520E-01
  opls_800  C800    12.0110     0.000    A    3.50000E-01   2.76144E-01
  opls_819  H819     1.0080     0.000    A    2.50000E-01   1.25520E-01
  opls_804  C804    12.0110     0.000    A    3.50000E-01   2.76144E-01
  opls_817  H817     1.0080     0.000    A    2.50000E-01   1.25520E-01
  opls_812  H812     1.0080     0.000    A    2.50000E-01   1.25520E-01
  opls_809 Cl809    35.4500     0.000    A    3.40000E-01   1.25520E+00
[ moleculetype ]
; Name               nrexcl
UNK                   3
[ atoms ]
;   nr       type  resnr residue  atom   cgnr     charge       mass  
     1   opls_800      1    UNK   C00      1     -0.239    12.0110 
     2   opls_801      1    UNK   C01      1    -0.1805    12.0110 
     3   opls_802      1    UNK   C02      1    -0.1636    12.0110 
     4   opls_803      1    UNK   C03      1    -0.1611    12.0110 
     5   opls_804      1    UNK   C04      1    -0.3734    12.0110 
     6   opls_805      1    UNK   C05      1    -0.2219    12.0110 
     7   opls_806      1    UNK   S06      1     1.2324    32.0600 
     8   opls_807      1    UNK   O07      1    -0.5068    15.9990 
     9   opls_808      1    UNK   O08      1    -0.5068    15.9990 
    10   opls_809      1    UNK   Cl0      1    -0.2549    35.4500 
    11   opls_810      1    UNK   H0A      1     0.0846     1.0080 
    12   opls_811      1    UNK   H0B      1     0.0846     1.0080 
    13   opls_812      1    UNK   H0C      1     0.0846     1.0080 
    14   opls_813      1    UNK   H0D      1     0.0939     1.0080 
    15   opls_814      1    UNK   H0E      1     0.0939     1.0080 
    16   opls_815      1    UNK   H0F      1     0.0954     1.0080 
    17   opls_816      1    UNK   H0G      1     0.0954     1.0080 
    18   opls_817      1    UNK   H0H      1     0.1135     1.0080 
    19   opls_818      1    UNK   H0I      1     0.1135     1.0080 
    20   opls_819      1    UNK   H0J      1     0.1701     1.0080 
    21   opls_820      1    UNK   H0K      1     0.1153     1.0080 
    22   opls_821      1    UNK   H0M      1     0.1153     1.0080 
    23   opls_822      1    UNK   H0N      1     0.1153     1.0080 
[ bonds ]
    2     1     1      0.1529 224262.400
    3     2     1      0.1529 224262.400
    4     3     1      0.1529 224262.400
    5     4     1      0.1529 224262.400
    6     5     1      0.1529 224262.400
    7     5     1      0.1770 284512.000
    8     7     1      0.1440 585760.000
    9     7     1      0.1440 585760.000
   10     7     1      0.2040 166849.552
   11     1     1      0.1090 284512.000
   12     1     1      0.1090 284512.000
   13     1     1      0.1090 284512.000
   14     2     1      0.1090 284512.000
   15     2     1      0.1090 284512.000
   16     3     1      0.1090 284512.000
   17     3     1      0.1090 284512.000
   18     4     1      0.1090 284512.000
   19     4     1      0.1090 284512.000
   20     5     1      0.1090 284512.000
   21     6     1      0.1090 284512.000
   22     6     1      0.1090 284512.000
   23     6     1      0.1090 284512.000

[ angles ]
;  ai    aj    ak funct            c0            c1            c2            c3 
    1     2     3     1    112.700    488.273
    2     3     4     1    112.700    488.273
    3     4     5     1    112.700    488.273
    4     5     6     1    112.700    488.273
    4     5     7     1    108.600    418.400
    5     7     8     1    108.900    619.232
    5     7     9     1    108.900    619.232
    5     7    10     1    104.360    658.311
    2     1    11     1    110.700    313.800
    2     1    12     1    110.700    313.800
    2     1    13     1    110.700    313.800
    1     2    14     1    110.700    313.800
    1     2    15     1    110.700    313.800
    2     3    16     1    110.700    313.800
    2     3    17     1    110.700    313.800
    3     4    18     1    110.700    313.800
    3     4    19     1    110.700    313.800
    4     5    20     1    110.700    313.800
    5     6    21     1    110.700    313.800
    5     6    22     1    110.700    313.800
    5     6    23     1    110.700    313.800
    9     7    10     1    104.360    658.311
    3     2    14     1    110.700    313.800
    3     2    15     1    110.700    313.800
   11     1    13     1    107.800    276.144
   21     6    22     1    107.800    276.144
    8     7    10     1    104.360    658.311
   14     2    15     1    107.800    276.144
    8     7     9     1    119.000    870.272
   11     1    12     1    107.800    276.144
    6     5     7     1    108.600    418.400
   12     1    13     1    107.800    276.144
    6     5    20     1    110.700    313.800
   22     6    23     1    107.800    276.144
    5     4    19     1    110.700    313.800
    7     5    20     1    109.500    292.880
    4     3    16     1    110.700    313.800
    4     3    17     1    110.700    313.800
   16     3    17     1    107.800    276.144
   21     6    23     1    107.800    276.144
    5     4    18     1    110.700    313.800
   18     4    19     1    107.800    276.144

[ dihedrals ]
; IMPROPER DIHEDRAL ANGLES 
;  ai    aj    ak    al funct            c0            c1            c2            c3            c4            c5

[ dihedrals ]
; PROPER DIHEDRAL ANGLES
;  ai    aj    ak    al funct            c0            c1            c2            c3            c4            c5
    4    3    2    1        3       2.301  -1.464   0.837  -1.674  -0.000   0.000
    5    4    3    2        3       2.301  -1.464   0.837  -1.674  -0.000   0.000
    6    5    4    3        3       2.301  -1.464   0.837  -1.674  -0.000   0.000
   10    7    5    4        3       0.000   0.000   0.000  -0.000  -0.000   0.000
   10    7    5    6        3       0.000   0.000   0.000  -0.000  -0.000   0.000
   15    2    3    4        3       0.628   1.883   0.000  -2.510  -0.000   0.000
   23    6    5    4        3       0.628   1.883   0.000  -2.510  -0.000   0.000
   18    4    3    2        3       0.628   1.883   0.000  -2.510  -0.000   0.000
   17    3    2    1        3       0.628   1.883   0.000  -2.510  -0.000   0.000
   17    3    4    5        3       0.628   1.883   0.000  -2.510  -0.000   0.000
   20    5    4    3        3       0.628   1.883   0.000  -2.510  -0.000   0.000
   14    2    3    4        3       0.628   1.883   0.000  -2.510  -0.000   0.000
   19    4    5    6        3       0.628   1.883   0.000  -2.510  -0.000   0.000
   16    3    2    1        3       0.628   1.883   0.000  -2.510  -0.000   0.000
   18    4    5    6        3       0.628   1.883   0.000  -2.510  -0.000   0.000
   22    6    5    4        3       0.628   1.883   0.000  -2.510  -0.000   0.000
   13    1    2    3        3       0.628   1.883   0.000  -2.510  -0.000   0.000
   19    4    3    2        3       0.628   1.883   0.000  -2.510  -0.000   0.000
   21    6    5    4        3       0.628   1.883   0.000  -2.510  -0.000   0.000
   12    1    2    3        3       0.628   1.883   0.000  -2.510  -0.000   0.000
   16    3    4    5        3       0.628   1.883   0.000  -2.510  -0.000   0.000
   11    1    2    3        3       0.628   1.883   0.000  -2.510  -0.000   0.000
   15    2    1   11        3       0.628   1.883   0.000  -2.510  -0.000   0.000
   19    4    3   17        3       0.628   1.883   0.000  -2.510  -0.000   0.000
   18    4    3   17        3       0.628   1.883   0.000  -2.510  -0.000   0.000
   16    3    2   15        3       0.628   1.883   0.000  -2.510  -0.000   0.000
   21    6    5   20        3       0.628   1.883   0.000  -2.510  -0.000   0.000
   16    3    2   14        3       0.628   1.883   0.000  -2.510  -0.000   0.000
   23    6    5   20        3       0.628   1.883   0.000  -2.510  -0.000   0.000
   19    4    3   16        3       0.628   1.883   0.000  -2.510  -0.000   0.000
   17    3    2   15        3       0.628   1.883   0.000  -2.510  -0.000   0.000
   20    5    4   18        3       0.628   1.883   0.000  -2.510  -0.000   0.000
   14    2    1   13        3       0.628   1.883   0.000  -2.510  -0.000   0.000
   15    2    1   12        3       0.628   1.883   0.000  -2.510  -0.000   0.000
   17    3    2   14        3       0.628   1.883   0.000  -2.510  -0.000   0.000
   18    4    3   16        3       0.628   1.883   0.000  -2.510  -0.000   0.000
   20    5    4   19        3       0.628   1.883   0.000  -2.510  -0.000   0.000
   14    2    1   12        3       0.628   1.883   0.000  -2.510  -0.000   0.000
   22    6    5   20        3       0.628   1.883   0.000  -2.510  -0.000   0.000
   14    2    1   11        3       0.628   1.883   0.000  -2.510  -0.000   0.000
   15    2    1   13        3       0.628   1.883   0.000  -2.510  -0.000   0.000
   21    6    5    7        3       0.946   2.837   0.000  -3.782  -0.000   0.000
   22    6    5    7        3       0.946   2.837   0.000  -3.782  -0.000   0.000
   19    4    5    7        3       0.946   2.837   0.000  -3.782  -0.000   0.000
   23    6    5    7        3       0.946   2.837   0.000  -3.782  -0.000   0.000
   18    4    5    7        3       0.946   2.837   0.000  -3.782  -0.000   0.000
   20    5    7   10        3       0.732   2.197   0.000  -2.929  -0.000   0.000
   20    5    7    9        3       0.732   2.197   0.000  -2.929  -0.000   0.000
   20    5    7    8        3       0.732   2.197   0.000  -2.929  -0.000   0.000
    8    7    5    6        3       0.000   0.000   0.000  -0.000  -0.000   0.000
    9    7    5    4        3       0.000   0.000   0.000  -0.000  -0.000   0.000
    9    7    5    6        3       0.000   0.000   0.000  -0.000  -0.000   0.000
    8    7    5    4        3       0.000   0.000   0.000  -0.000  -0.000   0.000
    7    5    4    3        3       2.784   0.278   0.828  -3.891  -0.000   0.000

[ pairs ]
     1     4    1
     2     5    1
     3     6    1
     3     7    1
     4     8    1
     4     9    1
     6     8    1
     4    10    1
     3    11    1
     6     9    1
     3    12    1
     6    10    1
     3    13    1
     1    16    1
     4    14    1
     1    17    1
     4    15    1
     2    18    1
     5    16    1
     2    19    1
     5    17    1
     3    20    1
     6    18    1
    11    14    1
     7    18    1
     6    19    1
     4    21    1
    12    14    1
    11    15    1
     7    19    1
     4    22    1
    13    14    1
    12    15    1
     4    23    1
    13    15    1
     8    20    1
     7    21    1
     9    20    1
     7    22    1
    14    16    1
    10    20    1
     7    23    1
    15    16    1
    14    17    1
    15    17    1
    16    18    1
    17    18    1
    16    19    1
    17    19    1
    18    20    1
    19    20    1
    20    21    1
    20    22    1
    20    23    1

