
;
; GENERATED BY LigParGen Server
; Jorgensen Lab @ Yale University 
;
[ atomtypes ]
  opls_814  C814    12.0110     0.000    A    3.50000E-01   2.76144E-01
  opls_824  H824     1.0080     0.000    A    2.50000E-01   1.25520E-01
  opls_809  O809    15.9990     0.000    A    2.90000E-01   5.85760E-01
  opls_816  C816    12.0110     0.000    A    3.55000E-01   2.92880E-01
  opls_843  H843     1.0080     0.000    A    2.50000E-01   1.25520E-01
  opls_836  H836     1.0080     0.000    A    2.50000E-01   1.25520E-01
  opls_834  H834     1.0080     0.000    A    2.50000E-01   1.25520E-01
  opls_828  H828     1.0080     0.000    A    2.50000E-01   1.25520E-01
  opls_802  C802    12.0110     0.000    A    3.50000E-01   2.76144E-01
  opls_827  H827     1.0080     0.000    A    2.50000E-01   1.25520E-01
  opls_801  C801    12.0110     0.000    A    3.50000E-01   2.76144E-01
  opls_806  C806    12.0110     0.000    A    3.50000E-01   2.76144E-01
  opls_811  O811    15.9990     0.000    A    2.96000E-01   8.78640E-01
  opls_822  H822     1.0080     0.000    A    2.50000E-01   1.25520E-01
  opls_803  C803    12.0110     0.000    A    3.50000E-01   2.76144E-01
  opls_805  C805    12.0110     0.000    A    3.50000E-01   2.76144E-01
  opls_838  H838     1.0080     0.000    A    2.50000E-01   1.25520E-01
  opls_830  H830     1.0080     0.000    A    2.50000E-01   1.25520E-01
  opls_821  H821     1.0080     0.000    A    2.50000E-01   1.25520E-01
  opls_842  H842     1.0080     0.000    A    2.50000E-01   1.25520E-01
  opls_826  H826     1.0080     0.000    A    2.50000E-01   1.25520E-01
  opls_837  H837     1.0080     0.000    A    2.50000E-01   1.25520E-01
  opls_829  H829     1.0080     0.000    A    2.50000E-01   1.25520E-01
  opls_831  H831     1.0080     0.000    A    2.50000E-01   1.25520E-01
  opls_810  C810    12.0110     0.000    A    3.55000E-01   2.92880E-01
  opls_832  H832     1.0080     0.000    A    2.50000E-01   1.25520E-01
  opls_800  C800    12.0110     0.000    A    3.50000E-01   2.76144E-01
  opls_808  O808    15.9990     0.000    A    2.96000E-01   8.78640E-01
  opls_815  C815    12.0110     0.000    A    3.50000E-01   2.76144E-01
  opls_823  H823     1.0080     0.000    A    2.50000E-01   1.25520E-01
  opls_819  C819    12.0110     0.000    A    3.50000E-01   2.76144E-01
  opls_820  C820    12.0110     0.000    A    3.50000E-01   2.76144E-01
  opls_835  H835     1.0080     0.000    A    2.50000E-01   1.25520E-01
  opls_841  H841     1.0080     0.000    A    2.50000E-01   1.25520E-01
  opls_825  H825     1.0080     0.000    A    2.50000E-01   1.25520E-01
  opls_804  C804    12.0110     0.000    A    3.50000E-01   2.76144E-01
  opls_833  H833     1.0080     0.000    A    2.50000E-01   1.25520E-01
  opls_839  H839     1.0080     0.000    A    2.50000E-01   1.25520E-01
  opls_812  C812    12.0110     0.000    A    3.50000E-01   2.76144E-01
  opls_807  C807    12.0110     0.000    A    3.55000E-01   2.92880E-01
  opls_817  O817    15.9990     0.000    A    2.96000E-01   8.78640E-01
  opls_840  H840     1.0080     0.000    A    2.50000E-01   1.25520E-01
  opls_813  C813    12.0110     0.000    A    3.50000E-01   2.76144E-01
  opls_844  H844     1.0080     0.000    A    2.50000E-01   1.25520E-01
  opls_818  O818    15.9990     0.000    A    2.90000E-01   5.85760E-01
[ moleculetype ]
; Name               nrexcl
UNK                   3
[ atoms ]
;   nr       type  resnr residue  atom   cgnr     charge       mass  
     1   opls_800      1    UNK   C00      1    -0.2376    12.0110 
     2   opls_801      1    UNK   C01      1    -0.1761    12.0110 
     3   opls_802      1    UNK   C02      1    -0.0048    12.0110 
     4   opls_803      1    UNK   C03      1    -0.2359    12.0110 
     5   opls_804      1    UNK   C04      1    -0.0947    12.0110 
     6   opls_805      1    UNK   C05      1    -0.1723    12.0110 
     7   opls_806      1    UNK   C06      1    -0.1933    12.0110 
     8   opls_807      1    UNK   C07      1     0.4566    12.0110 
     9   opls_808      1    UNK   O08      1    -0.4267    15.9990 
    10   opls_809      1    UNK   O09      1     -0.353    15.9990 
    11   opls_810      1    UNK   C0A      1     0.3727    12.0110 
    12   opls_811      1    UNK   O0B      1    -0.3789    15.9990 
    13   opls_812      1    UNK   C0C      1    -0.1808    12.0110 
    14   opls_813      1    UNK   C0D      1    -0.1489    12.0110 
    15   opls_814      1    UNK   C0E      1    -0.1057    12.0110 
    16   opls_815      1    UNK   C0F      1    -0.2274    12.0110 
    17   opls_816      1    UNK   C0G      1     0.4501    12.0110 
    18   opls_817      1    UNK   O0H      1    -0.3837    15.9990 
    19   opls_818      1    UNK   O0I      1      -0.35    15.9990 
    20   opls_819      1    UNK   C0J      1     0.0148    12.0110 
    21   opls_820      1    UNK   C0K      1    -0.1604    12.0110 
    22   opls_821      1    UNK   H0M      1      0.085     1.0080 
    23   opls_822      1    UNK   H0N      1      0.085     1.0080 
    24   opls_823      1    UNK   H0O      1      0.085     1.0080 
    25   opls_824      1    UNK   H0P      1     0.0913     1.0080 
    26   opls_825      1    UNK   H0Q      1     0.0913     1.0080 
    27   opls_826      1    UNK   H0R      1     0.0877     1.0080 
    28   opls_827      1    UNK   H0S      1     0.0877     1.0080 
    29   opls_828      1    UNK   H0T      1     0.0877     1.0080 
    30   opls_829      1    UNK   H0U      1     0.1032     1.0080 
    31   opls_830      1    UNK   H0V      1     0.1088     1.0080 
    32   opls_831      1    UNK   H0W      1     0.1088     1.0080 
    33   opls_832      1    UNK   H0X      2     0.1403     1.0080 
    34   opls_833      1    UNK   H0Y      2     0.1403     1.0080 
    35   opls_834      1    UNK   H0Z      2     0.1817     1.0080 
    36   opls_835      1    UNK   H10      2     0.0946     1.0080 
    37   opls_836      1    UNK   H11      2     0.0946     1.0080 
    38   opls_837      1    UNK   H12      2     0.1082     1.0080 
    39   opls_838      1    UNK   H13      2     0.1082     1.0080 
    40   opls_839      1    UNK   H14      2     0.0981     1.0080 
    41   opls_840      1    UNK   H15      2     0.0981     1.0080 
    42   opls_841      1    UNK   H16      2     0.0981     1.0080 
    43   opls_842      1    UNK   H17      2     0.1185     1.0080 
    44   opls_843      1    UNK   H18      2     0.1185     1.0080 
    45   opls_844      1    UNK   H19      2     0.1152     1.0080 
[ bonds ]
    2     1     1      0.1529 224262.400
    3     2     1      0.1529 224262.400
    4     3     1      0.1529 224262.400
    5     3     1      0.1529 224262.400
    6     5     1      0.1529 224262.400
    7     6     1      0.1529 224262.400
    8     7     1      0.1522 265265.600
    9     8     1      0.1229 476976.000
   10     8     1      0.1327 179075.200
   11    10     1      0.1327 179075.200
   12    11     1      0.1229 476976.000
   13     5     1      0.1529 224262.400
   14    13     1      0.1529 224262.400
   15    14     1      0.1529 224262.400
   16    15     1      0.1529 224262.400
   17    15     1      0.1522 265265.600
   18    17     1      0.1229 476976.000
   19    17     1      0.1327 179075.200
   20    19     1      0.1410 267776.000
   21     3     1      0.1529 224262.400
   22     1     1      0.1090 284512.000
   23     1     1      0.1090 284512.000
   24     1     1      0.1090 284512.000
   25     2     1      0.1090 284512.000
   26     2     1      0.1090 284512.000
   27     4     1      0.1090 284512.000
   28     4     1      0.1090 284512.000
   29     4     1      0.1090 284512.000
   30     5     1      0.1090 284512.000
   31     6     1      0.1090 284512.000
   32     6     1      0.1090 284512.000
   33     7     1      0.1090 284512.000
   34     7     1      0.1090 284512.000
   35    11     1      0.1090 284512.000
   36    13     1      0.1090 284512.000
   37    13     1      0.1090 284512.000
   38    14     1      0.1090 284512.000
   39    14     1      0.1090 284512.000
   40    16     1      0.1090 284512.000
   41    16     1      0.1090 284512.000
   42    16     1      0.1090 284512.000
   43    20     1      0.1090 284512.000
   44    20     1      0.1090 284512.000
   45    21     1      0.1090 284512.000
   21    15     1      0.1529 224262.400
   21    20     1      0.1529 224262.400

[ angles ]
;  ai    aj    ak funct            c0            c1            c2            c3 
    1     2     3     1    112.700    488.273
    2     3     4     1    112.700    488.273
    2     3     5     1    112.700    488.273
    3     5     6     1    112.700    488.273
    5     6     7     1    112.700    488.273
    6     7     8     1    111.100    527.184
    7     8     9     1    120.400    669.440
    7     8    10     1    111.400    677.808
    8    10    11     1    114.540    581.660
   10    11    12     1    123.400    694.544
    3     5    13     1    112.700    488.273
    5    13    14     1    112.700    488.273
   13    14    15     1    112.700    488.273
   14    15    16     1    112.700    488.273
   14    15    17     1    111.100    527.184
   15    17    18     1    120.400    669.440
   15    17    19     1    111.400    677.808
   17    19    20     1    116.900    694.544
    2     3    21     1    112.700    488.273
    2     1    22     1    110.700    313.800
    2     1    23     1    110.700    313.800
    2     1    24     1    110.700    313.800
    1     2    25     1    110.700    313.800
    1     2    26     1    110.700    313.800
    3     4    27     1    110.700    313.800
    3     4    28     1    110.700    313.800
    3     4    29     1    110.700    313.800
    3     5    30     1    110.700    313.800
    5     6    31     1    110.700    313.800
    5     6    32     1    110.700    313.800
    6     7    33     1    110.700    313.800
    6     7    34     1    110.700    313.800
   10    11    35     1    115.000    334.720
    5    13    36     1    110.700    313.800
    5    13    37     1    110.700    313.800
   13    14    38     1    110.700    313.800
   13    14    39     1    110.700    313.800
   15    16    40     1    110.700    313.800
   15    16    41     1    110.700    313.800
   15    16    42     1    110.700    313.800
   19    20    43     1    109.500    292.880
   19    20    44     1    109.500    292.880
    3    21    45     1    110.700    313.800
   21    20    44     1    110.700    313.800
    3     2    26     1    110.700    313.800
   27     4    28     1    107.800    276.144
   22     1    24     1    107.800    276.144
   16    15    17     1    111.100    527.184
   19    20    21     1    109.500    418.400
    3    21    20     1    112.700    488.273
    7     6    32     1    110.700    313.800
   36    13    37     1    107.800    276.144
    7     6    31     1    110.700    313.800
    6     5    30     1    110.700    313.800
    3     2    25     1    110.700    313.800
   15    21    20     1    112.700    488.273
   23     1    24     1    107.800    276.144
   33     7    34     1    107.800    276.144
    4     3     5     1    112.700    488.273
   16    15    21     1    112.700    488.273
    8     7    33     1    109.500    292.880
   14    13    36     1    110.700    313.800
    3    21    15     1    112.700    488.273
    9     8    10     1    123.400    694.544
   15    21    45     1    110.700    313.800
   25     2    26     1    107.800    276.144
   40    16    41     1    107.800    276.144
   12    11    35     1    123.000    292.880
    6     5    13     1    112.700    488.273
   21    20    43     1    110.700    313.800
    4     3    21     1    112.700    488.273
   41    16    42     1    107.800    276.144
   20    21    45     1    110.700    313.800
   15    14    39     1    110.700    313.800
    8     7    34     1    109.500    292.880
   43    20    44     1    107.800    276.144
   13     5    30     1    110.700    313.800
   14    13    37     1    110.700    313.800
   17    15    21     1    111.100    527.184
   31     6    32     1    107.800    276.144
   28     4    29     1    107.800    276.144
   22     1    23     1    107.800    276.144
   38    14    39     1    107.800    276.144
   40    16    42     1    107.800    276.144
   18    17    19     1    123.400    694.544
   14    15    21     1    112.700    488.273
   15    14    38     1    110.700    313.800
    5     3    21     1    112.700    488.273
   27     4    29     1    107.800    276.144

[ dihedrals ]
; IMPROPER DIHEDRAL ANGLES 
;  ai    aj    ak    al funct            c0            c1            c2            c3            c4            c5
    35    11    10    12    4        180.000     43.932     2  
    19    17    15    18    4        180.000     43.932     2  
    10     8     7     9    4        180.000     43.932     2  

[ dihedrals ]
; PROPER DIHEDRAL ANGLES
;  ai    aj    ak    al funct            c0            c1            c2            c3            c4            c5
   17   15   21    3        3      -4.960   6.286   1.310  -2.636  -0.000   0.000
    8    7    6    5        3      -4.960   6.286   1.310  -2.636  -0.000   0.000
   17   15   14   13        3      -4.960   6.286   1.310  -2.636  -0.000   0.000
   11   10    8    7        3      31.206  -9.768  -21.439  -0.000  -0.000   0.000
   11   10    8    9        3      21.439   0.000  -21.439  -0.000  -0.000   0.000
   21   15   17   18        3       0.000   0.000   0.000  -0.000  -0.000   0.000
   21   15   17   19        3      -1.157  -3.471   0.000   4.628  -0.000   0.000
   20   21   15   17        3      -4.960   6.286   1.310  -2.636  -0.000   0.000
    4    3    2    1        3       2.301  -1.464   0.837  -1.674  -0.000   0.000
   13    5    3    2        3       2.301  -1.464   0.837  -1.674  -0.000   0.000
   15   21    3    2        3       2.301  -1.464   0.837  -1.674  -0.000   0.000
   21    3    2    1        3       2.301  -1.464   0.837  -1.674  -0.000   0.000
   20   21    3    5        3       2.301  -1.464   0.837  -1.674  -0.000   0.000
   15   21    3    5        3       2.301  -1.464   0.837  -1.674  -0.000   0.000
   14   15   21    3        3       2.301  -1.464   0.837  -1.674  -0.000   0.000
   15   21    3    4        3       2.301  -1.464   0.837  -1.674  -0.000   0.000
   21    3    5    6        3       2.301  -1.464   0.837  -1.674  -0.000   0.000
   14   13    5    6        3       2.301  -1.464   0.837  -1.674  -0.000   0.000
   20   21    3    2        3       2.301  -1.464   0.837  -1.674  -0.000   0.000
   16   15   21    3        3       2.301  -1.464   0.837  -1.674  -0.000   0.000
   13    5    6    7        3       2.301  -1.464   0.837  -1.674  -0.000   0.000
    5    3    2    1        3       2.301  -1.464   0.837  -1.674  -0.000   0.000
   21   15   14   13        3       2.301  -1.464   0.837  -1.674  -0.000   0.000
   20   21    3    4        3       2.301  -1.464   0.837  -1.674  -0.000   0.000
   20   21   15   16        3       2.301  -1.464   0.837  -1.674  -0.000   0.000
   13    5    3    4        3       2.301  -1.464   0.837  -1.674  -0.000   0.000
   20   21   15   14        3       2.301  -1.464   0.837  -1.674  -0.000   0.000
   21    3    5   13        3       2.301  -1.464   0.837  -1.674  -0.000   0.000
    6    5    3    4        3       2.301  -1.464   0.837  -1.674  -0.000   0.000
   14   13    5    3        3       2.301  -1.464   0.837  -1.674  -0.000   0.000
    6    5    3    2        3       2.301  -1.464   0.837  -1.674  -0.000   0.000
   16   15   14   13        3       2.301  -1.464   0.837  -1.674  -0.000   0.000
    7    6    5    3        3       2.301  -1.464   0.837  -1.674  -0.000   0.000
   15   14   13    5        3       2.301  -1.464   0.837  -1.674  -0.000   0.000
   21   20   19   17        3      -2.197   5.201   0.527  -3.531  -0.000   0.000
   20   19   17   15        3      31.206  -9.768  -21.439  -0.000  -0.000   0.000
   20   19   17   18        3      21.439   0.000  -21.439  -0.000  -0.000   0.000
   35   11   10    8        3      31.206  -9.768  -21.439  -0.000  -0.000   0.000
   34    7    8    9        3       0.000   0.000   0.000  -0.000  -0.000   0.000
   33    7    8    9        3       0.000   0.000   0.000  -0.000  -0.000   0.000
   33    7    8   10        3       0.276   0.828   0.000  -1.105  -0.000   0.000
   34    7    8   10        3       0.276   0.828   0.000  -1.105  -0.000   0.000
   41   16   15   17        3      -0.209  -0.628   0.000   0.837  -0.000   0.000
   42   16   15   17        3      -0.209  -0.628   0.000   0.837  -0.000   0.000
   31    6    7    8        3      -0.209  -0.628   0.000   0.837  -0.000   0.000
   40   16   15   17        3      -0.209  -0.628   0.000   0.837  -0.000   0.000
   38   14   15   17        3      -0.209  -0.628   0.000   0.837  -0.000   0.000
   45   21   15   17        3      -0.209  -0.628   0.000   0.837  -0.000   0.000
   39   14   15   17        3      -0.209  -0.628   0.000   0.837  -0.000   0.000
   32    6    7    8        3      -0.209  -0.628   0.000   0.837  -0.000   0.000
   41   16   15   14        3       0.628   1.883   0.000  -2.510  -0.000   0.000
   45   21   15   14        3       0.628   1.883   0.000  -2.510  -0.000   0.000
   31    6    5    3        3       0.628   1.883   0.000  -2.510  -0.000   0.000
   30    5    6    7        3       0.628   1.883   0.000  -2.510  -0.000   0.000
   24    1    2    3        3       0.628   1.883   0.000  -2.510  -0.000   0.000
   38   14   15   21        3       0.628   1.883   0.000  -2.510  -0.000   0.000
   38   14   15   16        3       0.628   1.883   0.000  -2.510  -0.000   0.000
   22    1    2    3        3       0.628   1.883   0.000  -2.510  -0.000   0.000
   29    4    3    2        3       0.628   1.883   0.000  -2.510  -0.000   0.000
   43   20   21    3        3       0.628   1.883   0.000  -2.510  -0.000   0.000
   41   16   15   21        3       0.628   1.883   0.000  -2.510  -0.000   0.000
   34    7    6    5        3       0.628   1.883   0.000  -2.510  -0.000   0.000
   38   14   13    5        3       0.628   1.883   0.000  -2.510  -0.000   0.000
   37   13    5    6        3       0.628   1.883   0.000  -2.510  -0.000   0.000
   30    5   13   14        3       0.628   1.883   0.000  -2.510  -0.000   0.000
   40   16   15   21        3       0.628   1.883   0.000  -2.510  -0.000   0.000
   42   16   15   21        3       0.628   1.883   0.000  -2.510  -0.000   0.000
   44   20   21    3        3       0.628   1.883   0.000  -2.510  -0.000   0.000
   25    2    3    4        3       0.628   1.883   0.000  -2.510  -0.000   0.000
   28    4    3    5        3       0.628   1.883   0.000  -2.510  -0.000   0.000
   32    6    5    3        3       0.628   1.883   0.000  -2.510  -0.000   0.000
   42   16   15   14        3       0.628   1.883   0.000  -2.510  -0.000   0.000
   37   13   14   15        3       0.628   1.883   0.000  -2.510  -0.000   0.000
   26    2    3   21        3       0.628   1.883   0.000  -2.510  -0.000   0.000
   37   13    5    3        3       0.628   1.883   0.000  -2.510  -0.000   0.000
   45   21    3    5        3       0.628   1.883   0.000  -2.510  -0.000   0.000
   43   20   21   15        3       0.628   1.883   0.000  -2.510  -0.000   0.000
   31    6    5   13        3       0.628   1.883   0.000  -2.510  -0.000   0.000
   26    2    3    5        3       0.628   1.883   0.000  -2.510  -0.000   0.000
   27    4    3   21        3       0.628   1.883   0.000  -2.510  -0.000   0.000
   29    4    3   21        3       0.628   1.883   0.000  -2.510  -0.000   0.000
   30    5    3    2        3       0.628   1.883   0.000  -2.510  -0.000   0.000
   30    5    3   21        3       0.628   1.883   0.000  -2.510  -0.000   0.000
   45   21   15   16        3       0.628   1.883   0.000  -2.510  -0.000   0.000
   28    4    3    2        3       0.628   1.883   0.000  -2.510  -0.000   0.000
   32    6    5   13        3       0.628   1.883   0.000  -2.510  -0.000   0.000
   39   14   15   21        3       0.628   1.883   0.000  -2.510  -0.000   0.000
   29    4    3    5        3       0.628   1.883   0.000  -2.510  -0.000   0.000
   44   20   21   15        3       0.628   1.883   0.000  -2.510  -0.000   0.000
   39   14   15   16        3       0.628   1.883   0.000  -2.510  -0.000   0.000
   36   13    5    6        3       0.628   1.883   0.000  -2.510  -0.000   0.000
   27    4    3    5        3       0.628   1.883   0.000  -2.510  -0.000   0.000
   23    1    2    3        3       0.628   1.883   0.000  -2.510  -0.000   0.000
   45   21    3    4        3       0.628   1.883   0.000  -2.510  -0.000   0.000
   36   13   14   15        3       0.628   1.883   0.000  -2.510  -0.000   0.000
   30    5    3    4        3       0.628   1.883   0.000  -2.510  -0.000   0.000
   26    2    3    4        3       0.628   1.883   0.000  -2.510  -0.000   0.000
   25    2    3   21        3       0.628   1.883   0.000  -2.510  -0.000   0.000
   33    7    6    5        3       0.628   1.883   0.000  -2.510  -0.000   0.000
   39   14   13    5        3       0.628   1.883   0.000  -2.510  -0.000   0.000
   45   21    3    2        3       0.628   1.883   0.000  -2.510  -0.000   0.000
   27    4    3    2        3       0.628   1.883   0.000  -2.510  -0.000   0.000
   40   16   15   14        3       0.628   1.883   0.000  -2.510  -0.000   0.000
   28    4    3   21        3       0.628   1.883   0.000  -2.510  -0.000   0.000
   25    2    3    5        3       0.628   1.883   0.000  -2.510  -0.000   0.000
   36   13    5    3        3       0.628   1.883   0.000  -2.510  -0.000   0.000
   39   14   13   36        3       0.628   1.883   0.000  -2.510  -0.000   0.000
   45   21   20   43        3       0.628   1.883   0.000  -2.510  -0.000   0.000
   39   14   13   37        3       0.628   1.883   0.000  -2.510  -0.000   0.000
   34    7    6   31        3       0.628   1.883   0.000  -2.510  -0.000   0.000
   34    7    6   32        3       0.628   1.883   0.000  -2.510  -0.000   0.000
   26    2    1   23        3       0.628   1.883   0.000  -2.510  -0.000   0.000
   33    7    6   32        3       0.628   1.883   0.000  -2.510  -0.000   0.000
   25    2    1   22        3       0.628   1.883   0.000  -2.510  -0.000   0.000
   37   13    5   30        3       0.628   1.883   0.000  -2.510  -0.000   0.000
   25    2    1   23        3       0.628   1.883   0.000  -2.510  -0.000   0.000
   26    2    1   24        3       0.628   1.883   0.000  -2.510  -0.000   0.000
   36   13    5   30        3       0.628   1.883   0.000  -2.510  -0.000   0.000
   25    2    1   24        3       0.628   1.883   0.000  -2.510  -0.000   0.000
   31    6    5   30        3       0.628   1.883   0.000  -2.510  -0.000   0.000
   32    6    5   30        3       0.628   1.883   0.000  -2.510  -0.000   0.000
   26    2    1   22        3       0.628   1.883   0.000  -2.510  -0.000   0.000
   38   14   13   36        3       0.628   1.883   0.000  -2.510  -0.000   0.000
   38   14   13   37        3       0.628   1.883   0.000  -2.510  -0.000   0.000
   33    7    6   31        3       0.628   1.883   0.000  -2.510  -0.000   0.000
   45   21   20   44        3       0.628   1.883   0.000  -2.510  -0.000   0.000
   45   21   20   19        3       0.979   2.937   0.000  -3.916  -0.000   0.000
   43   20   19   17        3       0.414   1.243   0.000  -1.657  -0.000   0.000
   44   20   19   17        3       0.414   1.243   0.000  -1.657  -0.000   0.000
   18   17   15   14        3       0.000   0.000   0.000  -0.000  -0.000   0.000
    9    8    7    6        3       0.000   0.000   0.000  -0.000  -0.000   0.000
   18   17   15   16        3       0.000   0.000   0.000  -0.000  -0.000   0.000
   12   11   10    8        3      21.439   0.000  -21.439  -0.000  -0.000   0.000
   10    8    7    6        3      -1.157  -3.471   0.000   4.628  -0.000   0.000
   19   17   15   14        3      -1.157  -3.471   0.000   4.628  -0.000   0.000
   19   17   15   16        3      -1.157  -3.471   0.000   4.628  -0.000   0.000
   19   20   21   15        3       2.874   0.582   2.092  -5.548  -0.000   0.000
   19   20   21    3        3       2.874   0.582   2.092  -5.548  -0.000   0.000

[ pairs ]
     1     4    1
     1     5    1
     2     6    1
     4     6    1
     3     7    1
     5     8    1
     6     9    1
     2    13    1
     6    10    1
     4    13    1
     3    14    1
     2    15    1
     7    11    1
     4    15    1
     3    16    1
     9    11    1
     8    12    1
     7    13    1
     6    14    1
     5    15    1
     3    17    1
     3    19    1
     2    20    1
     1    21    1
     4    20    1
     5    20    1
     3    22    1
     3    23    1
     6    21    1
     3    24    1
    13    16    1
     4    25    1
     2    27    1
    13    17    1
     5    25    1
     4    26    1
     2    28    1
     5    26    1
     2    29    1
    14    18    1
     5    27    1
     2    30    1
    14    19    1
     5    28    1
    16    18    1
    14    20    1
    13    21    1
     5    29    1
     4    30    1
     3    31    1
    16    19    1
     3    32    1
    16    20    1
     7    30    1
    18    20    1
     5    33    1
    18    21    1
     8    31    1
     5    34    1
     3    36    1
     8    32    1
     3    37    1
     9    33    1
     6    36    1
    10    33    1
     9    34    1
     8    35    1
     6    37    1
     5    38    1
    14    30    1
    13    31    1
    10    34    1
     5    39    1
    13    32    1
    21    25    1
     3    43    1
    22    25    1
    21    26    1
     3    44    1
     2    45    1
    23    25    1
    22    26    1
    21    27    1
    24    25    1
    23    26    1
    21    28    1
     4    45    1
    24    26    1
    21    29    1
     5    45    1
    21    30    1
    15    36    1
    15    37    1
    16    38    1
    14    40    1
    17    38    1
    16    39    1
    14    41    1
    17    39    1
    14    42    1
    17    40    1
    17    41    1
    15    43    1
    21    38    1
    17    42    1
    15    44    1
    14    45    1
    21    39    1
    17    43    1
    30    31    1
    21    40    1
    17    44    1
    16    45    1
    30    32    1
    21    41    1
    17    45    1
    21    42    1
    31    33    1
    19    45    1
    32    33    1
    31    34    1
    32    34    1
    30    36    1
    30    37    1
    36    38    1
    37    38    1
    36    39    1
    37    39    1
    43    45    1
    44    45    1

