LIGPARGEN GENERATED GRO FILE
   45
    1UNK    C00    1   0.100   0.100   0.000
    1UNK    C01    2  -0.053   0.100   0.000
    1UNK    C02    3  -0.122   0.100   0.141
    1UNK    C03    4  -0.075   0.228   0.214
    1UNK    C04    5  -0.086  -0.029   0.227
    1UNK    C05    6  -0.089  -0.163   0.147
    1UNK    C06    7  -0.054  -0.286   0.232
    1UNK    C07    8  -0.057  -0.415   0.153
    1UNK    O08    9  -0.129  -0.434   0.055
    1UNK    O09   10   0.024  -0.506   0.213
    1UNK    C0A   11   0.021  -0.630   0.161
    1UNK    O0B   12   0.090  -0.722   0.205
    1UNK    C0C   13  -0.178  -0.040   0.351
    1UNK    C0D   14  -0.328  -0.046   0.313
    1UNK    C0E   15  -0.366   0.084   0.243
    1UNK    C0F   16  -0.378   0.197   0.348
    1UNK    C0G   17  -0.498   0.088   0.168
    1UNK    O0H   18  -0.601   0.032   0.200
    1UNK    O0I   19  -0.485   0.174   0.061
    1UNK    C0J   20  -0.346   0.208   0.043
    1UNK    C0K   21  -0.276   0.100   0.120
    1UNK    H0M   22   0.137   0.093  -0.103
    1UNK    H0N   23   0.141   0.015   0.056
    1UNK    H0O   24   0.140   0.193   0.042
    1UNK    H0P   25  -0.087   0.014  -0.059
    1UNK    H0Q   26  -0.085   0.189  -0.056
    1UNK    H0R   27   0.032   0.224   0.237
    1UNK    H0S   28  -0.126   0.243   0.309
    1UNK    H0T   29  -0.092   0.317   0.153
    1UNK    H0U   30   0.017  -0.018   0.263
    1UNK    H0V   31  -0.017  -0.159   0.064
    1UNK    H0W   32  -0.187  -0.178   0.100
    1UNK    H0X   33  -0.125  -0.301   0.313
    1UNK    H0Y   34   0.047  -0.273   0.274
    1UNK    H0Z   35  -0.047  -0.643   0.075
    1UNK    H10   36  -0.158   0.046   0.416
    1UNK    H11   37  -0.152  -0.126   0.413
    1UNK    H12   38  -0.388  -0.061   0.403
    1UNK    H13   39  -0.348  -0.132   0.249
    1UNK    H14   40  -0.480   0.201   0.388
    1UNK    H15   41  -0.355   0.296   0.307
    1UNK    H16   42  -0.314   0.182   0.435
    1UNK    H17   43  -0.328   0.309   0.080
    1UNK    H18   44  -0.323   0.205  -0.064
    1UNK    H19   45  -0.294   0.011   0.058
   1.00000   1.00000   1.00000

