LIGPARGEN GENERATED GRO FILE
   33
    1UNK    C00    1   0.100   0.100   0.000
    1UNK    C01    2  -0.052   0.100   0.000
    1UNK    C02    3  -0.107   0.100   0.143
    1UNK    C03    4  -0.262   0.106   0.153
    1UNK    C04    5  -0.331  -0.008   0.074
    1UNK    C05    6  -0.300  -0.149   0.125
    1UNK    C06    7  -0.377  -0.254   0.046
    1UNK    C07    8  -0.308   0.113   0.304
    1UNK    C08    9  -0.249   0.235   0.377
    1UNK    C09   10  -0.461   0.111   0.323
    1UNK    C0A   11  -0.529   0.230   0.256
    1UNK    N0B   12  -0.585   0.328   0.201
    1UNK    H0C   13   0.138   0.100  -0.103
    1UNK    H0D   14   0.139   0.011   0.050
    1UNK    H0E   15   0.139   0.189   0.051
    1UNK    H0F   16  -0.086   0.012  -0.055
    1UNK    H0G   17  -0.088   0.189  -0.054
    1UNK    H0H   18  -0.064   0.187   0.193
    1UNK    H0I   19  -0.070   0.012   0.197
    1UNK    H0J   20  -0.292   0.200   0.105
    1UNK    H0K   21  -0.303  -0.001  -0.032
    1UNK    H0M   22  -0.439   0.008   0.074
    1UNK    H0N   23  -0.328  -0.159   0.231
    1UNK    H0O   24  -0.193  -0.170   0.117
    1UNK    H0P   25  -0.485  -0.238   0.055
    1UNK    H0Q   26  -0.354  -0.354   0.084
    1UNK    H0R   27  -0.350  -0.251  -0.060
    1UNK    H0S   28  -0.269   0.024   0.355
    1UNK    H0T   29  -0.273   0.328   0.326
    1UNK    H0U   30  -0.140   0.227   0.387
    1UNK    H0V   31  -0.289   0.241   0.479
    1UNK    H0W   32  -0.485   0.114   0.430
    1UNK    H0X   33  -0.505   0.018   0.285
   1.00000   1.00000   1.00000

