
;
; GENERATED BY LigParGen Server
; Jorgensen Lab @ Yale University 
;
[ atomtypes ]
  opls_818  H818     1.0080     0.000    A    2.50000E-01   1.25520E-01
  opls_810  C810    12.0110     0.000    A    3.45000E-01   3.47272E-01
  opls_824  H824     1.0080     0.000    A    2.50000E-01   1.25520E-01
  opls_805  C805    12.0110     0.000    A    3.50000E-01   2.76144E-01
  opls_833  H833     1.0080     0.000    A    2.50000E-01   1.25520E-01
  opls_834  H834     1.0080     0.000    A    2.50000E-01   1.25520E-01
  opls_828  H828     1.0080     0.000    A    2.50000E-01   1.25520E-01
  opls_801  O801    15.9990     0.000    A    2.90000E-01   5.85760E-01
  opls_832  H832     1.0080     0.000    A    2.50000E-01   1.25520E-01
  opls_802  C802    12.0110     0.000    A    3.50000E-01   2.76144E-01
  opls_815  H815     1.0080     0.000    A    2.50000E-01   1.25520E-01
  opls_809  C809    12.0110     0.000    A    3.50000E-01   2.76144E-01
  opls_830  H830     1.0080     0.000    A    2.50000E-01   1.25520E-01
  opls_822  H822     1.0080     0.000    A    2.50000E-01   1.25520E-01
  opls_803  C803    12.0110     0.000    A    3.50000E-01   2.76144E-01
  opls_825  H825     1.0080     0.000    A    2.50000E-01   1.25520E-01
  opls_826  H826     1.0080     0.000    A    2.50000E-01   1.25520E-01
  opls_814  H814     1.0080     0.000    A    2.50000E-01   1.25520E-01
  opls_821  H821     1.0080     0.000    A    2.50000E-01   1.25520E-01
  opls_820  H820     1.0080     0.000    A    2.50000E-01   1.25520E-01
  opls_829  H829     1.0080     0.000    A    2.50000E-01   1.25520E-01
  opls_831  H831     1.0080     0.000    A    2.50000E-01   1.25520E-01
  opls_816  H816     1.0080     0.000    A    2.50000E-01   1.25520E-01
  opls_800  C800    12.0110     0.000    A    3.50000E-01   2.76144E-01
  opls_806  C806    12.0110     0.000    A    3.50000E-01   2.76144E-01
  opls_823  H823     1.0080     0.000    A    2.50000E-01   1.25520E-01
  opls_813  C813    12.0110     0.000    A    3.50000E-01   2.76144E-01
  opls_811  C811    12.0110     0.000    A    3.45000E-01   3.47272E-01
  opls_835  H835     1.0080     0.000    A    2.50000E-01   1.25520E-01
  opls_819  H819     1.0080     0.000    A    2.50000E-01   1.25520E-01
  opls_804  C804    12.0110     0.000    A    3.50000E-01   2.76144E-01
  opls_827  H827     1.0080     0.000    A    2.50000E-01   1.25520E-01
  opls_808  C808    12.0110     0.000    A    3.50000E-01   2.76144E-01
  opls_817  H817     1.0080     0.000    A    2.50000E-01   1.25520E-01
  opls_812  C812    12.0110     0.000    A    3.45000E-01   3.47272E-01
  opls_807  C807    12.0110     0.000    A    3.50000E-01   2.76144E-01
[ moleculetype ]
; Name               nrexcl
UNK                   3
[ atoms ]
;   nr       type  resnr residue  atom   cgnr     charge       mass  
     1   opls_800      1    UNK   C00      1    -0.0502    12.0110 
     2   opls_801      1    UNK   O01      1    -0.3821    15.9990 
     3   opls_802      1    UNK   C02      1     0.0692    12.0110 
     4   opls_803      1    UNK   C03      1     -0.172    12.0110 
     5   opls_804      1    UNK   C04      1    -0.1756    12.0110 
     6   opls_805      1    UNK   C05      1    -0.1743    12.0110 
     7   opls_806      1    UNK   C06      1     -0.102    12.0110 
     8   opls_807      1    UNK   C07      1    -0.0755    12.0110 
     9   opls_808      1    UNK   C08      1    -0.1823    12.0110 
    10   opls_809      1    UNK   C09      1    -0.1512    12.0110 
    11   opls_810      1    UNK   C0A      1    -0.2159    12.0110 
    12   opls_811      1    UNK   C0B      1    -0.1855    12.0110 
    13   opls_812      1    UNK   C0C      1     -0.204    12.0110 
    14   opls_813      1    UNK   C0D      1    -0.1975    12.0110 
    15   opls_814      1    UNK   H0E      1     0.0787     1.0080 
    16   opls_815      1    UNK   H0F      1     0.0787     1.0080 
    17   opls_816      1    UNK   H0G      1     0.0787     1.0080 
    18   opls_817      1    UNK   H0H      1     0.0862     1.0080 
    19   opls_818      1    UNK   H0I      1     0.0993     1.0080 
    20   opls_819      1    UNK   H0J      1     0.0993     1.0080 
    21   opls_820      1    UNK   H0K      1     0.0956     1.0080 
    22   opls_821      1    UNK   H0M      1     0.0956     1.0080 
    23   opls_822      1    UNK   H0N      1     0.0857     1.0080 
    24   opls_823      1    UNK   H0O      1     0.0857     1.0080 
    25   opls_824      1    UNK   H0P      1      0.112     1.0080 
    26   opls_825      1    UNK   H0Q      1     0.1046     1.0080 
    27   opls_826      1    UNK   H0R      1     0.0959     1.0080 
    28   opls_827      1    UNK   H0S      1     0.0959     1.0080 
    29   opls_828      1    UNK   H0T      1     0.0987     1.0080 
    30   opls_829      1    UNK   H0U      1     0.0987     1.0080 
    31   opls_830      1    UNK   H0V      1     0.1317     1.0080 
    32   opls_831      1    UNK   H0W      1      0.125     1.0080 
    33   opls_832      1    UNK   H0X      2      0.125     1.0080 
    34   opls_833      1    UNK   H0Y      2     0.1316     1.0080 
    35   opls_834      1    UNK   H0Z      2     0.0981     1.0080 
    36   opls_835      1    UNK   H10      2     0.0981     1.0080 
[ bonds ]
    2     1     1      0.1410 267776.000
    3     2     1      0.1410 267776.000
    4     3     1      0.1529 224262.400
    5     4     1      0.1529 224262.400
    6     5     1      0.1529 224262.400
    7     6     1      0.1529 224262.400
    8     7     1      0.1529 224262.400
    9     8     1      0.1529 224262.400
   10     9     1      0.1529 224262.400
   11    10     1      0.1510 234304.000
   12    11     1      0.1520 217568.000
   13     8     1      0.1510 234304.000
   14     3     1      0.1529 224262.400
   15     1     1      0.1090 284512.000
   16     1     1      0.1090 284512.000
   17     1     1      0.1090 284512.000
   18     3     1      0.1090 284512.000
   19     4     1      0.1090 284512.000
   20     4     1      0.1090 284512.000
   21     5     1      0.1090 284512.000
   22     5     1      0.1090 284512.000
   23     6     1      0.1090 284512.000
   24     6     1      0.1090 284512.000
   25     7     1      0.1090 284512.000
   26     8     1      0.1090 284512.000
   27     9     1      0.1090 284512.000
   28     9     1      0.1090 284512.000
   29    10     1      0.1090 284512.000
   30    10     1      0.1090 284512.000
   31    11     1      0.1088 284512.000
   32    12     1      0.1088 284512.000
   33    12     1      0.1088 284512.000
   34    13     1      0.1088 284512.000
   35    14     1      0.1090 284512.000
   36    14     1      0.1090 284512.000
   14     7     1      0.1529 224262.400
   13    11     1      0.1520 217568.000
   13    12     1      0.1520 217568.000

[ angles ]
;  ai    aj    ak funct            c0            c1            c2            c3 
    1     2     3     1    109.500    502.080
    2     3     4     1    109.500    418.400
    3     4     5     1    112.700    488.273
    4     5     6     1    112.700    488.273
    5     6     7     1    112.700    488.273
    6     7     8     1    112.700    488.273
    7     8     9     1    112.700    488.273
    8     9    10     1    112.700    488.273
    9    10    11     1    112.700    488.273
   10    11    12     1    117.200    313.800
    7     8    13     1    112.700    488.273
    2     3    14     1    109.500    418.400
    2     1    15     1    109.500    292.880
    2     1    16     1    109.500    292.880
    2     1    17     1    109.500    292.880
    2     3    18     1    109.500    292.880
    3     4    19     1    110.700    313.800
    3     4    20     1    110.700    313.800
    4     5    21     1    110.700    313.800
    4     5    22     1    110.700    313.800
    5     6    23     1    110.700    313.800
    5     6    24     1    110.700    313.800
    6     7    25     1    110.700    313.800
    7     8    26     1    110.700    313.800
    8     9    27     1    110.700    313.800
    8     9    28     1    110.700    313.800
    9    10    29     1    110.700    313.800
    9    10    30     1    110.700    313.800
   10    11    31     1    114.300    292.880
   11    12    32     1    117.200    313.800
   11    12    33     1    117.200    313.800
    8    13    34     1    114.300    292.880
    3    14    35     1    110.700    313.800
    3    14    36     1    110.700    313.800
   12    13    34     1    117.200    313.800
   16     1    17     1    107.800    276.144
   12    11    31     1    117.200    313.800
    8    13    12     1    117.200    313.800
   21     5    22     1    107.800    276.144
    7     6    24     1    110.700    313.800
   11    12    13     1     83.000    251.040
   10     9    28     1    110.700    313.800
   13    12    32     1    117.200    313.800
    6     5    22     1    110.700    313.800
   15     1    17     1    107.800    276.144
    7    14    36     1    110.700    313.800
    7     6    23     1    110.700    313.800
   19     4    20     1    107.800    276.144
   11    13    34     1    117.200    313.800
    9     8    13     1    112.700    488.273
   13    12    33     1    117.200    313.800
   13    11    31     1    117.200    313.800
   15     1    16     1    107.800    276.144
   29    10    30     1    107.800    276.144
    7    14    35     1    110.700    313.800
    4     3    18     1    110.700    313.800
    8    13    11     1    117.200    313.800
    8     7    25     1    110.700    313.800
   14     3    18     1    110.700    313.800
    3    14     7     1    112.700    488.273
    5     4    19     1    110.700    313.800
   11    10    29     1    110.700    313.800
   11    13    12     1     83.000    251.040
   23     6    24     1    107.800    276.144
    6     5    21     1    110.700    313.800
    5     4    20     1    110.700    313.800
   32    12    33     1    114.300    292.880
   12    11    13     1     83.000    251.040
   35    14    36     1    107.800    276.144
    4     3    14     1    112.700    488.273
    9     8    26     1    110.700    313.800
    6     7    14     1    112.700    488.273
   10    11    13     1    117.200    313.800
    8     7    14     1    112.700    488.273
   27     9    28     1    107.800    276.144
   10     9    27     1    110.700    313.800
   14     7    25     1    110.700    313.800
   11    10    30     1    110.700    313.800
   13     8    26     1    110.700    313.800

[ dihedrals ]
; IMPROPER DIHEDRAL ANGLES 
;  ai    aj    ak    al funct            c0            c1            c2            c3            c4            c5

[ dihedrals ]
; PROPER DIHEDRAL ANGLES
;  ai    aj    ak    al funct            c0            c1            c2            c3            c4            c5
   14    7    6    5        3       2.301  -1.464   0.837  -1.674  -0.000   0.000
    6    5    4    3        3       2.301  -1.464   0.837  -1.674  -0.000   0.000
    7    6    5    4        3       2.301  -1.464   0.837  -1.674  -0.000   0.000
    8    7    6    5        3       2.301  -1.464   0.837  -1.674  -0.000   0.000
    9    8    7    6        3       2.301  -1.464   0.837  -1.674  -0.000   0.000
   10    9    8    7        3       2.301  -1.464   0.837  -1.674  -0.000   0.000
    7   14    3    4        3       2.301  -1.464   0.837  -1.674  -0.000   0.000
    8    7   14    3        3       2.301  -1.464   0.837  -1.674  -0.000   0.000
   14    7    8    9        3       2.301  -1.464   0.837  -1.674  -0.000   0.000
   14    3    4    5        3       2.301  -1.464   0.837  -1.674  -0.000   0.000
    6    7   14    3        3       2.301  -1.464   0.837  -1.674  -0.000   0.000
   14    7    8   13        3       2.301  -1.464   0.837  -1.674  -0.000   0.000
    5    4    3    2        3       2.874   0.582   2.092  -5.548  -0.000   0.000
    7   14    3    2        3       2.874   0.582   2.092  -5.548  -0.000   0.000
   14    3    2    1        3       1.715   2.845   1.046  -5.607  -0.000   0.000
    4    3    2    1        3       1.715   2.845   1.046  -5.607  -0.000   0.000
   10   11   13    8        3       0.000   0.000   0.000  -0.000  -0.000   0.000
   13    8    9   10        3       2.301  -1.464   0.837  -1.674  -0.000   0.000
   13    8    7    6        3       2.301  -1.464   0.837  -1.674  -0.000   0.000
   11   10    9    8        3       2.301  -1.464   0.837  -1.674  -0.000   0.000
   13   11   10    9        3       0.000   0.000   0.000  -0.000  -0.000   0.000
   11   13    8    9        3       0.000   0.000   0.000  -0.000  -0.000   0.000
   12   11   10    9        3       0.000   0.000   0.000  -0.000  -0.000   0.000
   12   13    8    9        3       0.000   0.000   0.000  -0.000  -0.000   0.000
   12   13    8    7        3       0.000   0.000   0.000  -0.000  -0.000   0.000
   11   13    8    7        3       0.000   0.000   0.000  -0.000  -0.000   0.000
   18    3    4    5        3       0.628   1.883   0.000  -2.510  -0.000   0.000
   25    7    6    5        3       0.628   1.883   0.000  -2.510  -0.000   0.000
   24    6    7   14        3       0.628   1.883   0.000  -2.510  -0.000   0.000
   35   14    7    6        3       0.628   1.883   0.000  -2.510  -0.000   0.000
   19    4    5    6        3       0.628   1.883   0.000  -2.510  -0.000   0.000
   29   10    9    8        3       0.628   1.883   0.000  -2.510  -0.000   0.000
   20    4    5    6        3       0.628   1.883   0.000  -2.510  -0.000   0.000
   28    9    8    7        3       0.628   1.883   0.000  -2.510  -0.000   0.000
   24    6    5    4        3       0.628   1.883   0.000  -2.510  -0.000   0.000
   22    5    6    7        3       0.628   1.883   0.000  -2.510  -0.000   0.000
   25    7   14    3        3       0.628   1.883   0.000  -2.510  -0.000   0.000
   24    6    7    8        3       0.628   1.883   0.000  -2.510  -0.000   0.000
   23    6    7   14        3       0.628   1.883   0.000  -2.510  -0.000   0.000
   26    8    7    6        3       0.628   1.883   0.000  -2.510  -0.000   0.000
   18    3   14    7        3       0.628   1.883   0.000  -2.510  -0.000   0.000
   36   14    7    8        3       0.628   1.883   0.000  -2.510  -0.000   0.000
   19    4    3   14        3       0.628   1.883   0.000  -2.510  -0.000   0.000
   36   14    7    6        3       0.628   1.883   0.000  -2.510  -0.000   0.000
   26    8    7   14        3       0.628   1.883   0.000  -2.510  -0.000   0.000
   30   10    9    8        3       0.628   1.883   0.000  -2.510  -0.000   0.000
   21    5    6    7        3       0.628   1.883   0.000  -2.510  -0.000   0.000
   25    7    8    9        3       0.628   1.883   0.000  -2.510  -0.000   0.000
   35   14    3    4        3       0.628   1.883   0.000  -2.510  -0.000   0.000
   27    9    8    7        3       0.628   1.883   0.000  -2.510  -0.000   0.000
   20    4    3   14        3       0.628   1.883   0.000  -2.510  -0.000   0.000
   23    6    5    4        3       0.628   1.883   0.000  -2.510  -0.000   0.000
   23    6    7    8        3       0.628   1.883   0.000  -2.510  -0.000   0.000
   35   14    7    8        3       0.628   1.883   0.000  -2.510  -0.000   0.000
   36   14    3    4        3       0.628   1.883   0.000  -2.510  -0.000   0.000
   21    5    4    3        3       0.628   1.883   0.000  -2.510  -0.000   0.000
   26    8    9   10        3       0.628   1.883   0.000  -2.510  -0.000   0.000
   22    5    4    3        3       0.628   1.883   0.000  -2.510  -0.000   0.000
   27    9    8   13        3       0.628   1.883   0.000  -2.510  -0.000   0.000
   28    9    8   13        3       0.628   1.883   0.000  -2.510  -0.000   0.000
   25    7    8   13        3       0.628   1.883   0.000  -2.510  -0.000   0.000
   28    9   10   11        3       0.628   1.883   0.000  -2.510  -0.000   0.000
   27    9   10   11        3       0.628   1.883   0.000  -2.510  -0.000   0.000
   20    4    3   18        3       0.628   1.883   0.000  -2.510  -0.000   0.000
   27    9    8   26        3       0.628   1.883   0.000  -2.510  -0.000   0.000
   24    6    5   22        3       0.628   1.883   0.000  -2.510  -0.000   0.000
   35   14    7   25        3       0.628   1.883   0.000  -2.510  -0.000   0.000
   26    8    7   25        3       0.628   1.883   0.000  -2.510  -0.000   0.000
   36   14    3   18        3       0.628   1.883   0.000  -2.510  -0.000   0.000
   22    5    4   20        3       0.628   1.883   0.000  -2.510  -0.000   0.000
   28    9    8   26        3       0.628   1.883   0.000  -2.510  -0.000   0.000
   19    4    3   18        3       0.628   1.883   0.000  -2.510  -0.000   0.000
   35   14    3   18        3       0.628   1.883   0.000  -2.510  -0.000   0.000
   30   10    9   28        3       0.628   1.883   0.000  -2.510  -0.000   0.000
   24    6    5   21        3       0.628   1.883   0.000  -2.510  -0.000   0.000
   36   14    7   25        3       0.628   1.883   0.000  -2.510  -0.000   0.000
   22    5    4   19        3       0.628   1.883   0.000  -2.510  -0.000   0.000
   23    6    5   21        3       0.628   1.883   0.000  -2.510  -0.000   0.000
   21    5    4   20        3       0.628   1.883   0.000  -2.510  -0.000   0.000
   21    5    4   19        3       0.628   1.883   0.000  -2.510  -0.000   0.000
   29   10    9   28        3       0.628   1.883   0.000  -2.510  -0.000   0.000
   30   10    9   27        3       0.628   1.883   0.000  -2.510  -0.000   0.000
   25    7    6   23        3       0.628   1.883   0.000  -2.510  -0.000   0.000
   29   10    9   27        3       0.628   1.883   0.000  -2.510  -0.000   0.000
   25    7    6   24        3       0.628   1.883   0.000  -2.510  -0.000   0.000
   23    6    5   22        3       0.628   1.883   0.000  -2.510  -0.000   0.000
   36   14    3    2        3       0.979   2.937   0.000  -3.916  -0.000   0.000
   20    4    3    2        3       0.979   2.937   0.000  -3.916  -0.000   0.000
   19    4    3    2        3       0.979   2.937   0.000  -3.916  -0.000   0.000
   35   14    3    2        3       0.979   2.937   0.000  -3.916  -0.000   0.000
   30   10   11   12        3       0.628   1.883   0.000  -2.510  -0.000   0.000
   30   10   11   13        3       0.628   1.883   0.000  -2.510  -0.000   0.000
   26    8   13   11        3       0.628   1.883   0.000  -2.510  -0.000   0.000
   26    8   13   12        3       0.628   1.883   0.000  -2.510  -0.000   0.000
   29   10   11   12        3       0.628   1.883   0.000  -2.510  -0.000   0.000
   29   10   11   13        3       0.628   1.883   0.000  -2.510  -0.000   0.000
   16    1    2    3        3       1.590   4.770   0.000  -6.360  -0.000   0.000
   17    1    2    3        3       1.590   4.770   0.000  -6.360  -0.000   0.000
   18    3    2    1        3       1.590   4.770   0.000  -6.360  -0.000   0.000
   15    1    2    3        3       1.590   4.770   0.000  -6.360  -0.000   0.000
   34   13    8    7        3       0.628   1.883   0.000  -2.510  -0.000   0.000
   34   13    8    9        3       0.628   1.883   0.000  -2.510  -0.000   0.000
   31   11   10    9        3       0.628   1.883   0.000  -2.510  -0.000   0.000
   31   11   10   29        3       0.628   1.883   0.000  -2.510  -0.000   0.000
   34   13    8   26        3       0.628   1.883   0.000  -2.510  -0.000   0.000
   31   11   10   30        3       0.628   1.883   0.000  -2.510  -0.000   0.000
   33   12   13    8        3       0.000   0.000   0.000  -0.000  -0.000   0.000
   34   13   11   10        3       0.000   0.000   0.000  -0.000  -0.000   0.000
   31   11   13    8        3       0.000   0.000   0.000  -0.000  -0.000   0.000
   33   12   11   10        3       0.000   0.000   0.000  -0.000  -0.000   0.000
   32   12   11   10        3       0.000   0.000   0.000  -0.000  -0.000   0.000
   32   12   13    8        3       0.000   0.000   0.000  -0.000  -0.000   0.000
   33   12   11   13        3       0.000   0.000   0.000  -0.000  -0.000   0.000
   34   13   11   12        3       0.000   0.000   0.000  -0.000  -0.000   0.000
   31   11   12   13        3       0.000   0.000   0.000  -0.000  -0.000   0.000
   32   12   13   11        3       0.000   0.000   0.000  -0.000  -0.000   0.000
   31   11   13   12        3       0.000   0.000   0.000  -0.000  -0.000   0.000
   34   13   12   11        3       0.000   0.000   0.000  -0.000  -0.000   0.000
   33   12   13   11        3       0.000   0.000   0.000  -0.000  -0.000   0.000
   32   12   11   13        3       0.000   0.000   0.000  -0.000  -0.000   0.000
   34   13   12   33        3       0.000   0.000   0.000  -0.000  -0.000   0.000
   33   12   11   31        3       0.000   0.000   0.000  -0.000  -0.000   0.000
   34   13   11   31        3       0.000   0.000   0.000  -0.000  -0.000   0.000
   34   13   12   32        3       0.000   0.000   0.000  -0.000  -0.000   0.000
   32   12   11   31        3       0.000   0.000   0.000  -0.000  -0.000   0.000

[ pairs ]
     1     4    1
     2     5    1
     3     6    1
     2     7    1
     4     7    1
     3     8    1
     5     8    1
     6     9    1
     1    14    1
     7    10    1
     7    11    1
     3    15    1
     7    12    1
     6    13    1
     5    14    1
     3    16    1
     1    18    1
     3    17    1
     9    12    1
     2    19    1
     2    20    1
     9    14    1
     5    18    1
     3    21    1
     7    18    1
     6    19    1
     3    22    1
     6    20    1
    13    14    1
     4    23    1
     7    21    1
     4    24    1
     3    25    1
     7    22    1
     5    25    1
     8    23    1
     8    24    1
     6    26    1
    14    19    1
    14    20    1
     9    25    1
     7    27    1
     7    28    1
    10    26    1
    18    19    1
    14    23    1
    11    26    1
     8    29    1
     2    35    1
    18    20    1
    14    24    1
    13    25    1
    12    26    1
    11    27    1
     8    30    1
     2    36    1
    11    28    1
     8    31    1
     4    35    1
    19    21    1
    14    26    1
    13    27    1
     9    31    1
     8    32    1
     4    36    1
    20    21    1
    19    22    1
    13    28    1
    12    29    1
     8    33    1
     7    34    1
     6    35    1
    20    22    1
    13    29    1
    12    30    1
    10    32    1
     6    36    1
    13    30    1
    10    33    1
     9    34    1
     8    35    1
    21    23    1
    10    34    1
     8    36    1
    22    23    1
    21    24    1
    22    24    1
    23    25    1
    24    25    1
    25    26    1
    26    27    1
    18    35    1
    26    28    1
    18    36    1
    27    29    1
    28    29    1
    27    30    1
    28    30    1
    29    31    1
    26    34    1
    25    35    1
    30    31    1
    25    36    1
    31    32    1
    31    33    1
    31    34    1
    32    34    1
    33    34    1

