LIGPARGEN GENERATED GRO FILE
   36
    1UNK    C00    1   0.100   0.100   0.000
    1UNK    O01    2  -0.042   0.100   0.000
    1UNK    C02    3  -0.102   0.100   0.130
    1UNK    C03    4  -0.253   0.110   0.105
    1UNK    C04    5  -0.306  -0.017   0.040
    1UNK    C05    6  -0.270  -0.142   0.121
    1UNK    C06    7  -0.118  -0.153   0.143
    1UNK    C07    8  -0.084  -0.286   0.216
    1UNK    C08    9  -0.108  -0.408   0.122
    1UNK    C09   10   0.023  -0.417   0.043
    1UNK    C0A   11   0.126  -0.393   0.149
    1UNK    C0B   12   0.182  -0.258   0.181
    1UNK    C0C   13   0.061  -0.307   0.256
    1UNK    C0D   14  -0.070  -0.026   0.214
    1UNK    H0E   15   0.133   0.136  -0.098
    1UNK    H0F   16   0.138  -0.001   0.011
    1UNK    H0G   17   0.141   0.166   0.077
    1UNK    H0H   18  -0.069   0.190   0.184
    1UNK    H0I   19  -0.274   0.194   0.039
    1UNK    H0J   20  -0.305   0.127   0.200
    1UNK    H0K   21  -0.265  -0.028  -0.061
    1UNK    H0M   22  -0.415  -0.011   0.029
    1UNK    H0N   23  -0.310  -0.229   0.068
    1UNK    H0O   24  -0.322  -0.138   0.218
    1UNK    H0P   25  -0.070  -0.155   0.045
    1UNK    H0Q   26  -0.148  -0.296   0.305
    1UNK    H0R   27  -0.196  -0.400   0.058
    1UNK    H0S   28  -0.119  -0.498   0.183
    1UNK    H0T   29   0.028  -0.340  -0.035
    1UNK    H0U   30   0.034  -0.514  -0.005
    1UNK    H0V   31   0.180  -0.482   0.178
    1UNK    H0W   32   0.172  -0.179   0.109
    1UNK    H0X   33   0.276  -0.255   0.236
    1UNK    H0Y   34   0.072  -0.343   0.358
    1UNK    H0Z   35   0.038  -0.030   0.234
    1UNK    H10   36  -0.119  -0.017   0.312
   1.00000   1.00000   1.00000

