LIGPARGEN GENERATED GRO FILE
   33
    1UNK    C00    1   0.100   0.100   0.000
    1UNK    C01    2  -0.052   0.100   0.000
    1UNK    C02    3  -0.109   0.100   0.142
    1UNK    C03    4  -0.261   0.093   0.139
    1UNK    C04    5  -0.331  -0.034   0.081
    1UNK    C05    6  -0.259  -0.169   0.088
    1UNK    C06    7  -0.441  -0.017   0.190
    1UNK    C07    8  -0.557   0.059   0.147
    1UNK    N08    9  -0.649   0.123   0.115
    1UNK    C09   10  -0.335   0.062   0.274
    1UNK    C0A   11  -0.380   0.179   0.362
    1UNK    C0B   12  -0.478   0.139   0.471
    1UNK    O0C   13  -0.513   0.021   0.482
    1UNK    C0D   14  -0.527   0.250   0.562
    1UNK    F0E   15  -0.469   0.370   0.533
    1UNK    F0F   16  -0.661   0.269   0.553
    1UNK    F0G   17  -0.499   0.225   0.693
    1UNK    H0H   18   0.138   0.092  -0.102
    1UNK    H0I   19   0.139   0.015   0.057
    1UNK    H0J   20   0.139   0.193   0.044
    1UNK    H0K   21  -0.086   0.012  -0.055
    1UNK    H0M   22  -0.089   0.187  -0.055
    1UNK    H0N   23  -0.077   0.192   0.194
    1UNK    H0O   24  -0.067   0.016   0.199
    1UNK    H0P   25  -0.300   0.185   0.092
    1UNK    H0Q   26  -0.366  -0.019  -0.022
    1UNK    H0R   27  -0.217  -0.187   0.188
    1UNK    H0S   28  -0.176  -0.173   0.016
    1UNK    H0T   29  -0.327  -0.250   0.065
    1UNK    H0U   30  -0.471  -0.111   0.237
    1UNK    H0V   31  -0.276  -0.007   0.337
    1UNK    H0W   32  -0.427   0.257   0.301
    1UNK    H0X   33  -0.292   0.223   0.411
   1.00000   1.00000   1.00000

