
;
; GENERATED BY LigParGen Server
; Jorgensen Lab @ Yale University 
;
[ atomtypes ]
  opls_818  H818     1.0080     0.000    A    2.50000E-01   1.25520E-01
  opls_804  C804    12.0110     0.000    A    3.45000E-01   3.47272E-01
  opls_824  H824     1.0080     0.000    A    2.50000E-01   1.25520E-01
  opls_805  C805    12.0110     0.000    A    3.50000E-01   2.76144E-01
  opls_828  H828     1.0080     0.000    A    2.50000E-01   1.25520E-01
  opls_803  C803    12.0110     0.000    A    3.45000E-01   3.47272E-01
  opls_802  C802    12.0110     0.000    A    3.50000E-01   2.76144E-01
  opls_827  H827     1.0080     0.000    A    2.50000E-01   1.25520E-01
  opls_801  C801    12.0110     0.000    A    3.50000E-01   2.76144E-01
  opls_822  H822     1.0080     0.000    A    2.50000E-01   1.25520E-01
  opls_814  F814    18.9984     0.000    A    2.90000E-01   2.51040E-01
  opls_825  H825     1.0080     0.000    A    2.50000E-01   1.25520E-01
  opls_807  C807    12.0110     0.000    A    3.30000E-01   2.76144E-01
  opls_830  H830     1.0080     0.000    A    2.50000E-01   1.25520E-01
  opls_821  H821     1.0080     0.000    A    2.50000E-01   1.25520E-01
  opls_808  N808    14.0070     0.000    A    3.20000E-01   7.11280E-01
  opls_820  H820     1.0080     0.000    A    2.50000E-01   1.25520E-01
  opls_826  H826     1.0080     0.000    A    2.50000E-01   1.25520E-01
  opls_829  H829     1.0080     0.000    A    2.50000E-01   1.25520E-01
  opls_831  H831     1.0080     0.000    A    2.50000E-01   1.25520E-01
  opls_812  O812    15.9990     0.000    A    2.96000E-01   8.78640E-01
  opls_832  H832     1.0080     0.000    A    2.50000E-01   1.25520E-01
  opls_800  C800    12.0110     0.000    A    3.50000E-01   2.76144E-01
  opls_823  H823     1.0080     0.000    A    2.50000E-01   1.25520E-01
  opls_811  C811    12.0110     0.000    A    3.55000E-01   2.92880E-01
  opls_813  C813    12.0110     0.000    A    3.50000E-01   2.76144E-01
  opls_806  C806    12.0110     0.000    A    3.45000E-01   3.47272E-01
  opls_819  H819     1.0080     0.000    A    2.50000E-01   1.25520E-01
  opls_810  C810    12.0110     0.000    A    3.50000E-01   2.76144E-01
  opls_816  F816    18.9984     0.000    A    2.90000E-01   2.51040E-01
  opls_817  H817     1.0080     0.000    A    2.50000E-01   1.25520E-01
  opls_809  C809    12.0110     0.000    A    3.45000E-01   3.47272E-01
  opls_815  F815    18.9984     0.000    A    2.90000E-01   2.51040E-01
[ moleculetype ]
; Name               nrexcl
UNK                   3
[ atoms ]
;   nr       type  resnr residue  atom   cgnr     charge       mass  
     1   opls_800      1    UNK   C00      1    -0.2399    12.0110 
     2   opls_801      1    UNK   C01      1    -0.1791    12.0110 
     3   opls_802      1    UNK   C02      1    -0.1659    12.0110 
     4   opls_803      1    UNK   C03      1    -0.1251    12.0110 
     5   opls_804      1    UNK   C04      1    -0.1141    12.0110 
     6   opls_805      1    UNK   C05      1    -0.2255    12.0110 
     7   opls_806      1    UNK   C06      1    -0.0386    12.0110 
     8   opls_807      1    UNK   C07      1     0.1466    12.0110 
     9   opls_808      1    UNK   N08      1    -0.3522    14.0070 
    10   opls_809      1    UNK   C09      1    -0.1107    12.0110 
    11   opls_810      1    UNK   C0A      1    -0.2207    12.0110 
    12   opls_811      1    UNK   C0B      1     0.3122    12.0110 
    13   opls_812      1    UNK   O0C      1    -0.3642    15.9990 
    14   opls_813      1    UNK   C0D      1     0.3983    12.0110 
    15   opls_814      1    UNK   F0E      1    -0.1501    18.9984 
    16   opls_815      1    UNK   F0F      1    -0.1501    18.9984 
    17   opls_816      1    UNK   F0G      1    -0.1501    18.9984 
    18   opls_817      1    UNK   H0H      1     0.0835     1.0080 
    19   opls_818      1    UNK   H0I      1     0.0835     1.0080 
    20   opls_819      1    UNK   H0J      1     0.0835     1.0080 
    21   opls_820      1    UNK   H0K      1     0.0912     1.0080 
    22   opls_821      1    UNK   H0M      1     0.0912     1.0080 
    23   opls_822      1    UNK   H0N      1     0.0951     1.0080 
    24   opls_823      1    UNK   H0O      1     0.0951     1.0080 
    25   opls_824      1    UNK   H0P      1      0.123     1.0080 
    26   opls_825      1    UNK   H0Q      1     0.1202     1.0080 
    27   opls_826      1    UNK   H0R      1     0.0922     1.0080 
    28   opls_827      1    UNK   H0S      1     0.0922     1.0080 
    29   opls_828      1    UNK   H0T      1     0.0922     1.0080 
    30   opls_829      1    UNK   H0U      1     0.1604     1.0080 
    31   opls_830      1    UNK   H0V      1     0.1345     1.0080 
    32   opls_831      1    UNK   H0W      1     0.1457     1.0080 
    33   opls_832      1    UNK   H0X      2     0.1457     1.0080 
[ bonds ]
    2     1     1      0.1529 224262.400
    3     2     1      0.1529 224262.400
    4     3     1      0.1510 234304.000
    5     4     1      0.1520 217568.000
    6     5     1      0.1510 234304.000
    7     5     1      0.1520 217568.000
    8     7     1      0.1451 334720.000
    9     8     1      0.1157 543920.000
   10     4     1      0.1520 217568.000
   11    10     1      0.1510 234304.000
   12    11     1      0.1522 265265.600
   13    12     1      0.1229 476976.000
   14    12     1      0.1522 265265.600
   15    14     1      0.1360 307105.600
   16    14     1      0.1360 307105.600
   17    14     1      0.1360 307105.600
   18     1     1      0.1090 284512.000
   19     1     1      0.1090 284512.000
   20     1     1      0.1090 284512.000
   21     2     1      0.1090 284512.000
   22     2     1      0.1090 284512.000
   23     3     1      0.1090 284512.000
   24     3     1      0.1090 284512.000
   25     4     1      0.1088 284512.000
   26     5     1      0.1088 284512.000
   27     6     1      0.1090 284512.000
   28     6     1      0.1090 284512.000
   29     6     1      0.1090 284512.000
   30     7     1      0.1088 284512.000
   31    10     1      0.1088 284512.000
   32    11     1      0.1090 284512.000
   33    11     1      0.1090 284512.000
   10     7     1      0.1520 217568.000

[ angles ]
;  ai    aj    ak funct            c0            c1            c2            c3 
    1     2     3     1    112.700    488.273
    2     3     4     1    112.700    488.273
    3     4     5     1    117.200    313.800
    4     5     6     1    117.200    313.800
    4     5     7     1     83.000    251.040
    5     7     8     1    109.430    358.401
    7     8     9     1    180.000   1255.200
    3     4    10     1    117.200    313.800
    4    10    11     1    117.200    313.800
   10    11    12     1    111.100    527.184
   11    12    13     1    120.400    669.440
   11    12    14     1    116.000    585.760
   12    14    15     1    109.500    418.400
   12    14    16     1    109.500    418.400
   12    14    17     1    109.500    418.400
    2     1    18     1    110.700    313.800
    2     1    19     1    110.700    313.800
    2     1    20     1    110.700    313.800
    1     2    21     1    110.700    313.800
    1     2    22     1    110.700    313.800
    2     3    23     1    110.700    313.800
    2     3    24     1    110.700    313.800
    3     4    25     1    114.300    292.880
    4     5    26     1    117.200    313.800
    5     6    27     1    110.700    313.800
    5     6    28     1    110.700    313.800
    5     6    29     1    110.700    313.800
    5     7    30     1    117.200    313.800
    4    10    31     1    117.200    313.800
   10    11    32     1    110.700    313.800
   10    11    33     1    110.700    313.800
   19     1    20     1    107.800    276.144
    7    10    31     1    117.200    313.800
   15    14    16     1    109.100    644.336
   13    12    14     1    120.400    669.440
    3     2    21     1    110.700    313.800
   28     6    29     1    107.800    276.144
   27     6    28     1    107.800    276.144
    7     5    26     1    117.200    313.800
    4    10     7     1     83.000    251.040
   27     6    29     1    107.800    276.144
    8     7    10     1    109.430    358.401
   10     4    25     1    117.200    313.800
    5     4    10     1     83.000    251.040
   10     7    30     1    117.200    313.800
    4     3    23     1    110.700    313.800
    3     2    22     1    110.700    313.800
   23     3    24     1    107.800    276.144
   32    11    33     1    107.800    276.144
   16    14    17     1    109.100    644.336
    5     7    10     1     83.000    251.040
    6     5     7     1    117.200    313.800
    4     3    24     1    110.700    313.800
    5     4    25     1    117.200    313.800
   12    11    32     1    109.500    292.880
   21     2    22     1    107.800    276.144
    6     5    26     1    114.300    292.880
   18     1    20     1    107.800    276.144
    7    10    11     1    117.200    313.800
   18     1    19     1    107.800    276.144
   15    14    17     1    109.100    644.336
   12    11    33     1    109.500    292.880
    8     7    30     1    108.500    292.880
   11    10    31     1    114.300    292.880

[ dihedrals ]
; IMPROPER DIHEDRAL ANGLES 
;  ai    aj    ak    al funct            c0            c1            c2            c3            c4            c5
    14    12    11    13    4        180.000     43.932     2  

[ dihedrals ]
; PROPER DIHEDRAL ANGLES
;  ai    aj    ak    al funct            c0            c1            c2            c3            c4            c5
   12   11   10    7        3      -4.960   6.286   1.310  -2.636  -0.000   0.000
   12   11   10    4        3      -4.960   6.286   1.310  -2.636  -0.000   0.000
   14   12   11   10        3       0.000   0.000   0.000  -0.000  -0.000   0.000
   11   10    4    3        3       0.000   0.000   0.000  -0.000  -0.000   0.000
    6    5    4    3        3       0.000   0.000   0.000  -0.000  -0.000   0.000
   11   10    4    5        3       0.000   0.000   0.000  -0.000  -0.000   0.000
   11   10    7    5        3       0.000   0.000   0.000  -0.000  -0.000   0.000
   11   10    7    8        3       0.000   0.000   0.000  -0.000  -0.000   0.000
    4    3    2    1        3       2.301  -1.464   0.837  -1.674  -0.000   0.000
   10    4    3    2        3       0.000   0.000   0.000  -0.000  -0.000   0.000
    5    4    3    2        3       0.000   0.000   0.000  -0.000  -0.000   0.000
   10    4    5    6        3       0.000   0.000   0.000  -0.000  -0.000   0.000
    7   10    4    3        3       0.000   0.000   0.000  -0.000  -0.000   0.000
    7    5    4    3        3       0.000   0.000   0.000  -0.000  -0.000   0.000
   10    7    5    6        3       0.000   0.000   0.000  -0.000  -0.000   0.000
   10    7    8    9        3       0.000   0.000   0.000  -0.000  -0.000   0.000
    8    7    5    6        3       0.000   0.000   0.000  -0.000  -0.000   0.000
    8    7   10    4        3       0.000   0.000   0.000  -0.000  -0.000   0.000
    8    7    5    4        3       0.000   0.000   0.000  -0.000  -0.000   0.000
   17   14   12   11        3       0.000   0.000   0.000  -0.000  -0.000   0.000
   15   14   12   11        3       0.000   0.000   0.000  -0.000  -0.000   0.000
   16   14   12   11        3       0.000   0.000   0.000  -0.000  -0.000   0.000
   17   14   12   13        3       0.000   0.000   0.000  -0.000  -0.000   0.000
   16   14   12   13        3       0.000   0.000   0.000  -0.000  -0.000   0.000
   15   14   12   13        3       0.000   0.000   0.000  -0.000  -0.000   0.000
   32   11   12   14        3       0.575   1.726   0.000  -2.301  -0.000   0.000
   33   11   12   14        3       0.575   1.726   0.000  -2.301  -0.000   0.000
   32   11   12   13        3       0.000   0.000   0.000  -0.000  -0.000   0.000
   33   11   12   13        3       0.000   0.000   0.000  -0.000  -0.000   0.000
   20    1    2    3        3       0.628   1.883   0.000  -2.510  -0.000   0.000
   18    1    2    3        3       0.628   1.883   0.000  -2.510  -0.000   0.000
   24    3    2    1        3       0.628   1.883   0.000  -2.510  -0.000   0.000
   23    3    2    1        3       0.628   1.883   0.000  -2.510  -0.000   0.000
   19    1    2    3        3       0.628   1.883   0.000  -2.510  -0.000   0.000
   21    2    3    4        3       0.628   1.883   0.000  -2.510  -0.000   0.000
   22    2    3    4        3       0.628   1.883   0.000  -2.510  -0.000   0.000
   23    3    2   21        3       0.628   1.883   0.000  -2.510  -0.000   0.000
   21    2    1   18        3       0.628   1.883   0.000  -2.510  -0.000   0.000
   23    3    2   22        3       0.628   1.883   0.000  -2.510  -0.000   0.000
   22    2    1   20        3       0.628   1.883   0.000  -2.510  -0.000   0.000
   21    2    1   20        3       0.628   1.883   0.000  -2.510  -0.000   0.000
   24    3    2   22        3       0.628   1.883   0.000  -2.510  -0.000   0.000
   22    2    1   18        3       0.628   1.883   0.000  -2.510  -0.000   0.000
   21    2    1   19        3       0.628   1.883   0.000  -2.510  -0.000   0.000
   24    3    2   21        3       0.628   1.883   0.000  -2.510  -0.000   0.000
   22    2    1   19        3       0.628   1.883   0.000  -2.510  -0.000   0.000
   29    6    5    4        3       0.628   1.883   0.000  -2.510  -0.000   0.000
   23    3    4   10        3       0.628   1.883   0.000  -2.510  -0.000   0.000
   33   11   10    4        3       0.628   1.883   0.000  -2.510  -0.000   0.000
   32   11   10    4        3       0.628   1.883   0.000  -2.510  -0.000   0.000
   33   11   10    7        3       0.628   1.883   0.000  -2.510  -0.000   0.000
   29    6    5    7        3       0.628   1.883   0.000  -2.510  -0.000   0.000
   24    3    4   10        3       0.628   1.883   0.000  -2.510  -0.000   0.000
   23    3    4    5        3       0.628   1.883   0.000  -2.510  -0.000   0.000
   27    6    5    7        3       0.628   1.883   0.000  -2.510  -0.000   0.000
   28    6    5    4        3       0.628   1.883   0.000  -2.510  -0.000   0.000
   32   11   10    7        3       0.628   1.883   0.000  -2.510  -0.000   0.000
   24    3    4    5        3       0.628   1.883   0.000  -2.510  -0.000   0.000
   28    6    5    7        3       0.628   1.883   0.000  -2.510  -0.000   0.000
   27    6    5    4        3       0.628   1.883   0.000  -2.510  -0.000   0.000
   33   11   10   31        3       0.628   1.883   0.000  -2.510  -0.000   0.000
   29    6    5   26        3       0.628   1.883   0.000  -2.510  -0.000   0.000
   28    6    5   26        3       0.628   1.883   0.000  -2.510  -0.000   0.000
   32   11   10   31        3       0.628   1.883   0.000  -2.510  -0.000   0.000
   27    6    5   26        3       0.628   1.883   0.000  -2.510  -0.000   0.000
   31   10   11   12        3      -0.209  -0.628   0.000   0.837  -0.000   0.000
   25    4    3    2        3       0.628   1.883   0.000  -2.510  -0.000   0.000
   25    4    3   24        3       0.628   1.883   0.000  -2.510  -0.000   0.000
   25    4    3   23        3       0.628   1.883   0.000  -2.510  -0.000   0.000
   26    5    4    3        3       0.000   0.000   0.000  -0.000  -0.000   0.000
   30    7    5    6        3       0.000   0.000   0.000  -0.000  -0.000   0.000
   25    4   10   11        3       0.000   0.000   0.000  -0.000  -0.000   0.000
   30    7   10   11        3       0.000   0.000   0.000  -0.000  -0.000   0.000
   25    4    5    6        3       0.000   0.000   0.000  -0.000  -0.000   0.000
   31   10    4    3        3       0.000   0.000   0.000  -0.000  -0.000   0.000
   30    7    5    4        3       0.000   0.000   0.000  -0.000  -0.000   0.000
   31   10    4    5        3       0.000   0.000   0.000  -0.000  -0.000   0.000
   26    5    4   10        3       0.000   0.000   0.000  -0.000  -0.000   0.000
   25    4   10    7        3       0.000   0.000   0.000  -0.000  -0.000   0.000
   26    5    7   10        3       0.000   0.000   0.000  -0.000  -0.000   0.000
   30    7   10    4        3       0.000   0.000   0.000  -0.000  -0.000   0.000
   31   10    7    5        3       0.000   0.000   0.000  -0.000  -0.000   0.000
   25    4    5    7        3       0.000   0.000   0.000  -0.000  -0.000   0.000
   26    5    7    8        3       0.000   0.000   0.000  -0.000  -0.000   0.000
   31   10    7    8        3       0.000   0.000   0.000  -0.000  -0.000   0.000
   31   10    4   25        3       0.000   0.000   0.000  -0.000  -0.000   0.000
   26    5    4   25        3       0.000   0.000   0.000  -0.000  -0.000   0.000
   30    7    5   26        3       0.000   0.000   0.000  -0.000  -0.000   0.000
   31   10    7   30        3       0.000   0.000   0.000  -0.000  -0.000   0.000
   30    7    8    9        3       0.000   0.000   0.000  -0.000  -0.000   0.000
    9    8    7    5        3       0.000   0.000   0.000  -0.000  -0.000   0.000
   13   12   11   10        3       0.000   0.000   0.000  -0.000  -0.000   0.000

[ pairs ]
     1     4    1
     2     5    1
     3     6    1
     3     7    1
     4     8    1
     2    10    1
     6     8    1
     5     9    1
     3    11    1
     6    10    1
     5    11    1
     4    12    1
     9    10    1
     8    11    1
     7    12    1
     3    18    1
     3    19    1
    10    13    1
     3    20    1
    10    14    1
     1    23    1
     4    21    1
     1    24    1
    11    15    1
     4    22    1
    11    16    1
     2    25    1
    13    15    1
    11    17    1
     5    23    1
    13    16    1
     5    24    1
     3    26    1
    13    17    1
     6    25    1
     4    27    1
     7    25    1
     4    28    1
    10    23    1
     4    29    1
    10    24    1
     8    26    1
     7    27    1
     4    30    1
     3    31    1
     7    28    1
    11    25    1
    10    26    1
     7    29    1
     6    30    1
     5    31    1
     4    32    1
     4    33    1
    18    21    1
     9    30    1
     8    31    1
     7    32    1
    19    21    1
    18    22    1
     7    33    1
    20    21    1
    19    22    1
    11    30    1
    20    22    1
    12    31    1
    21    23    1
    22    23    1
    21    24    1
    13    32    1
    22    24    1
    14    32    1
    13    33    1
    14    33    1
    23    25    1
    24    25    1
    25    26    1
    26    27    1
    26    28    1
    26    29    1
    26    30    1
    25    31    1
    30    31    1
    31    32    1
    31    33    1

