LIGPARGEN GENERATED GRO FILE
   35
    1UNK    C00    1   0.100   0.100   0.000
    1UNK    C01    2  -0.053   0.100   0.000
    1UNK    C02    3  -0.100   0.100   0.146
    1UNK    C03    4  -0.239   0.159   0.144
    1UNK    C04    5  -0.222   0.263   0.038
    1UNK    O05    6  -0.286   0.367   0.038
    1UNK    C06    7  -0.116   0.225  -0.068
    1UNK    C07    8  -0.180   0.203  -0.210
    1UNK    C08    9  -0.255   0.332  -0.253
    1UNK    C09   10  -0.084   0.154  -0.328
    1UNK    C0A   11  -0.033   0.010  -0.307
    1UNK    C0B   12  -0.159   0.148  -0.464
    1UNK    C0C   13   0.035   0.250  -0.347
    1UNK    H0D   14   0.137   0.003   0.033
    1UNK    H0E   15   0.140   0.176   0.068
    1UNK    H0F   16   0.143   0.120  -0.098
    1UNK    H0G   17  -0.091   0.009  -0.047
    1UNK    H0H   18  -0.035   0.163   0.208
    1UNK    H0I   19  -0.098  -0.001   0.190
    1UNK    H0J   20  -0.265   0.203   0.240
    1UNK    H0K   21  -0.314   0.086   0.113
    1UNK    H0M   22  -0.044   0.307  -0.070
    1UNK    H0N   23  -0.258   0.126  -0.199
    1UNK    H0O   24  -0.187   0.418  -0.254
    1UNK    H0P   25  -0.338   0.355  -0.186
    1UNK    H0Q   26  -0.302   0.323  -0.351
    1UNK    H0R   27  -0.116  -0.058  -0.284
    1UNK    H0S   28   0.042   0.001  -0.229
    1UNK    H0T   29   0.016  -0.028  -0.398
    1UNK    H0U   30  -0.249   0.087  -0.456
    1UNK    H0V   31  -0.096   0.104  -0.542
    1UNK    H0W   32  -0.187   0.247  -0.502
    1UNK    H0X   33   0.096   0.258  -0.257
    1UNK    H0Y   34   0.002   0.351  -0.372
    1UNK    H0Z   35   0.101   0.216  -0.428
   1.00000   1.00000   1.00000

