LIGPARGEN GENERATED GRO FILE
   24
    1UNK    C00    1   0.100   0.100   0.000
    1UNK    C01    2  -0.052   0.100   0.000
    1UNK    C02    3  -0.106   0.100   0.143
    1UNK    C03    4  -0.259   0.109   0.154
    1UNK    C04    5  -0.329  -0.012   0.089
    1UNK    C05    6  -0.481  -0.002   0.094
    1UNK    O06    7  -0.295   0.108   0.294
    1UNK    O07    8  -0.236   0.228   0.354
    1UNK    C08    9  -0.337   0.307   0.404
    1UNK    O09   10  -0.456   0.279   0.392
    1UNK    Cl0   11  -0.277   0.450   0.484
    1UNK    H0B   12   0.138   0.100  -0.103
    1UNK    H0C   13   0.139   0.011   0.051
    1UNK    H0D   14   0.139   0.189   0.051
    1UNK    H0E   15  -0.087   0.012  -0.054
    1UNK    H0F   16  -0.088   0.188  -0.054
    1UNK    H0G   17  -0.061   0.185   0.196
    1UNK    H0H   18  -0.071   0.011   0.196
    1UNK    H0I   19  -0.296   0.202   0.109
    1UNK    H0J   20  -0.299  -0.103   0.142
    1UNK    H0K   21  -0.299  -0.022  -0.015
    1UNK    H0M   22  -0.518   0.028   0.192
    1UNK    H0N   23  -0.525  -0.100   0.070
    1UNK    H0O   24  -0.518   0.069   0.019
   1.00000   1.00000   1.00000

