LIGPARGEN GENERATED GRO FILE
   36
    1UNK    C00    1   0.100   0.100   0.000
    1UNK    C01    2  -0.054   0.100   0.000
    1UNK    C02    3  -0.102   0.100   0.146
    1UNK    C03    4  -0.117   0.217  -0.085
    1UNK    C04    5  -0.069   0.347  -0.024
    1UNK    N05    6  -0.029   0.455   0.028
    1UNK    C06    7  -0.080   0.208  -0.239
    1UNK    C07    8  -0.128   0.075  -0.301
    1UNK    C08    9  -0.280   0.065  -0.309
    1UNK    C09   10  -0.347   0.185  -0.374
    1UNK    C0A   11  -0.285   0.318  -0.335
    1UNK    O0B   12  -0.355   0.418  -0.318
    1UNK    C0C   13  -0.136   0.326  -0.323
    1UNK    S0D   14  -0.065   0.335  -0.489
    1UNK    C0E   15  -0.126   0.485  -0.562
    1UNK    O0F   16   0.078   0.351  -0.472
    1UNK    O0G   17  -0.116   0.226  -0.569
    1UNK    H0H   18   0.138   0.016   0.058
    1UNK    H0I   19   0.141   0.191   0.045
    1UNK    H0J   20   0.141   0.090  -0.101
    1UNK    H0K   21  -0.087   0.004  -0.041
    1UNK    H0M   22  -0.074   0.191   0.199
    1UNK    H0N   23  -0.058   0.016   0.201
    1UNK    H0O   24  -0.211   0.089   0.151
    1UNK    H0P   25  -0.226   0.213  -0.073
    1UNK    H0Q   26   0.029   0.212  -0.247
    1UNK    H0R   27  -0.089  -0.011  -0.245
    1UNK    H0S   28  -0.085   0.062  -0.400
    1UNK    H0T   29  -0.320   0.053  -0.208
    1UNK    H0U   30  -0.308  -0.025  -0.364
    1UNK    H0V   31  -0.453   0.187  -0.346
    1UNK    H0W   32  -0.343   0.177  -0.483
    1UNK    H0X   33  -0.109   0.422  -0.276
    1UNK    H0Y   34  -0.105   0.569  -0.495
    1UNK    H0Z   35  -0.233   0.475  -0.580
    1UNK    H10   36  -0.074   0.499  -0.657
   1.00000   1.00000   1.00000

