LIGPARGEN GENERATED GRO FILE
   38
    1UNK    C00    1   0.100   0.100   0.000
    1UNK    O01    2  -0.042   0.100   0.000
    1UNK    C02    3  -0.096   0.100   0.133
    1UNK    C03    4  -0.251   0.100   0.126
    1UNK    C04    5  -0.302  -0.025   0.048
    1UNK    C05    6  -0.454  -0.037   0.027
    1UNK    C06    7  -0.514   0.079  -0.053
    1UNK    C07    8  -0.485  -0.169  -0.046
    1UNK    C08    9  -0.314   0.110   0.265
    1UNK    C09   10  -0.282   0.001   0.367
    1UNK    C0A   11  -0.237   0.077   0.493
    1UNK    C0B   12  -0.317   0.207   0.491
    1UNK    C0C   13  -0.328   0.237   0.345
    1UNK    C0D   14  -0.447   0.184   0.272
    1UNK    H0E   15   0.135   0.085  -0.103
    1UNK    H0F   16   0.139   0.019   0.062
    1UNK    H0G   17   0.138   0.197   0.035
    1UNK    H0H   18  -0.061   0.189   0.186
    1UNK    H0I   19  -0.060   0.011   0.185
    1UNK    H0J   20  -0.280   0.189   0.067
    1UNK    H0K   21  -0.267  -0.115   0.101
    1UNK    H0M   22  -0.254  -0.027  -0.050
    1UNK    H0N   23  -0.505  -0.043   0.124
    1UNK    H0O   24  -0.445   0.115  -0.130
    1UNK    H0P   25  -0.539   0.163   0.012
    1UNK    H0Q   26  -0.608   0.049  -0.102
    1UNK    H0R   27  -0.444  -0.168  -0.148
    1UNK    H0S   28  -0.594  -0.184  -0.054
    1UNK    H0T   29  -0.444  -0.254   0.007
    1UNK    H0U   30  -0.203  -0.067   0.335
    1UNK    H0V   31  -0.371  -0.059   0.387
    1UNK    H0W   32  -0.131   0.101   0.485
    1UNK    H0X   33  -0.252   0.018   0.583
    1UNK    H0Y   34  -0.268   0.287   0.547
    1UNK    H0Z   35  -0.417   0.191   0.534
    1UNK    H10   36  -0.278   0.327   0.312
    1UNK    H11   37  -0.480   0.246   0.190
    1UNK    H12   38  -0.528   0.136   0.326
   1.00000   1.00000   1.00000

