LIGPARGEN GENERATED GRO FILE
   30
    1UNK    C00    1   0.100   0.100   0.000
    1UNK    C01    2  -0.053   0.100   0.000
    1UNK    C02    3  -0.115   0.100   0.142
    1UNK    F03    4  -0.069   0.214   0.203
    1UNK    C04    5  -0.270   0.106   0.141
    1UNK    C05    6  -0.325   0.226   0.062
    1UNK    C06    7  -0.332  -0.025   0.089
    1UNK    C07    8  -0.283  -0.149   0.166
    1UNK    C08    9  -0.351  -0.159   0.303
    1UNK    C09   10  -0.130  -0.152   0.177
    1UNK    C0A   11  -0.070  -0.020   0.227
    1UNK    F0B   12  -0.112  -0.002   0.355
    1UNK    H0C   13   0.137   0.112  -0.102
    1UNK    H0D   14   0.141   0.006   0.038
    1UNK    H0E   15   0.139   0.182   0.060
    1UNK    H0F   16  -0.088   0.015  -0.059
    1UNK    H0G   17  -0.083   0.191  -0.053
    1UNK    H0H   18  -0.302   0.123   0.244
    1UNK    H0I   19  -0.305   0.217  -0.046
    1UNK    H0J   20  -0.282   0.319   0.098
    1UNK    H0K   21  -0.434   0.232   0.074
    1UNK    H0M   22  -0.308  -0.038  -0.017
    1UNK    H0N   23  -0.441  -0.018   0.095
    1UNK    H0O   24  -0.314  -0.237   0.110
    1UNK    H0P   25  -0.331  -0.072   0.367
    1UNK    H0Q   26  -0.317  -0.249   0.356
    1UNK    H0R   27  -0.460  -0.166   0.292
    1UNK    H0S   28  -0.088  -0.176   0.078
    1UNK    H0T   29  -0.100  -0.233   0.244
    1UNK    H0U   30   0.039  -0.027   0.232
   1.00000   1.00000   1.00000

