
;
; GENERATED BY LigParGen Server
; Jorgensen Lab @ Yale University 
;
[ atomtypes ]
  opls_818  H818     1.0080     0.000    A    2.50000E-01   1.25520E-01
  opls_824  H824     1.0080     0.000    A    2.50000E-01   1.25520E-01
  opls_805  C805    12.0110     0.000    A    3.50000E-01   2.76144E-01
  opls_828  H828     1.0080     0.000    A    2.50000E-01   1.25520E-01
  opls_810  C810    12.0110     0.000    A    3.50000E-01   2.76144E-01
  opls_813  H813     1.0080     0.000    A    2.50000E-01   1.25520E-01
  opls_811  F811    18.9984     0.000    A    2.90000E-01   2.51040E-01
  opls_802  C802    12.0110     0.000    A    3.50000E-01   2.76144E-01
  opls_815  H815     1.0080     0.000    A    2.50000E-01   1.25520E-01
  opls_809  C809    12.0110     0.000    A    3.50000E-01   2.76144E-01
  opls_822  H822     1.0080     0.000    A    2.50000E-01   1.25520E-01
  opls_807  C807    12.0110     0.000    A    3.50000E-01   2.76144E-01
  opls_825  H825     1.0080     0.000    A    2.50000E-01   1.25520E-01
  opls_814  H814     1.0080     0.000    A    2.50000E-01   1.25520E-01
  opls_821  H821     1.0080     0.000    A    2.50000E-01   1.25520E-01
  opls_820  H820     1.0080     0.000    A    2.50000E-01   1.25520E-01
  opls_829  H829     1.0080     0.000    A    2.50000E-01   1.25520E-01
  opls_816  H816     1.0080     0.000    A    2.50000E-01   1.25520E-01
  opls_800  C800    12.0110     0.000    A    3.50000E-01   2.76144E-01
  opls_806  C806    12.0110     0.000    A    3.50000E-01   2.76144E-01
  opls_823  H823     1.0080     0.000    A    2.50000E-01   1.25520E-01
  opls_826  H826     1.0080     0.000    A    2.50000E-01   1.25520E-01
  opls_803  F803    18.9984     0.000    A    2.90000E-01   2.51040E-01
  opls_819  H819     1.0080     0.000    A    2.50000E-01   1.25520E-01
  opls_804  C804    12.0110     0.000    A    3.50000E-01   2.76144E-01
  opls_827  H827     1.0080     0.000    A    2.50000E-01   1.25520E-01
  opls_801  C801    12.0110     0.000    A    3.50000E-01   2.76144E-01
  opls_808  C808    12.0110     0.000    A    3.50000E-01   2.76144E-01
  opls_817  H817     1.0080     0.000    A    2.50000E-01   1.25520E-01
  opls_812  H812     1.0080     0.000    A    2.50000E-01   1.25520E-01
[ moleculetype ]
; Name               nrexcl
UNK                   3
[ atoms ]
;   nr       type  resnr residue  atom   cgnr     charge       mass  
     1   opls_800      1    UNK   C00      1     -0.244    12.0110 
     2   opls_801      1    UNK   C01      1    -0.2037    12.0110 
     3   opls_802      1    UNK   C02      1     0.1015    12.0110 
     4   opls_803      1    UNK   F03      1    -0.1678    18.9984 
     5   opls_804      1    UNK   C04      1     -0.142    12.0110 
     6   opls_805      1    UNK   C05      1    -0.2355    12.0110 
     7   opls_806      1    UNK   C06      1    -0.1671    12.0110 
     8   opls_807      1    UNK   C07      1     -0.111    12.0110 
     9   opls_808      1    UNK   C08      1    -0.2393    12.0110 
    10   opls_809      1    UNK   C09      1    -0.2076    12.0110 
    11   opls_810      1    UNK   C0A      1     0.0457    12.0110 
    12   opls_811      1    UNK   F0B      1    -0.1711    18.9984 
    13   opls_812      1    UNK   H0C      1     0.0883     1.0080 
    14   opls_813      1    UNK   H0D      1     0.0883     1.0080 
    15   opls_814      1    UNK   H0E      1     0.0883     1.0080 
    16   opls_815      1    UNK   H0F      1     0.1062     1.0080 
    17   opls_816      1    UNK   H0G      1     0.1062     1.0080 
    18   opls_817      1    UNK   H0H      1     0.1266     1.0080 
    19   opls_818      1    UNK   H0I      1     0.0883     1.0080 
    20   opls_819      1    UNK   H0J      1     0.0883     1.0080 
    21   opls_820      1    UNK   H0K      1     0.0883     1.0080 
    22   opls_821      1    UNK   H0M      1     0.0934     1.0080 
    23   opls_822      1    UNK   H0N      1     0.0934     1.0080 
    24   opls_823      1    UNK   H0O      1     0.0974     1.0080 
    25   opls_824      1    UNK   H0P      1     0.0879     1.0080 
    26   opls_825      1    UNK   H0Q      1     0.0879     1.0080 
    27   opls_826      1    UNK   H0R      1     0.0879     1.0080 
    28   opls_827      1    UNK   H0S      1     0.1054     1.0080 
    29   opls_828      1    UNK   H0T      1     0.1054     1.0080 
    30   opls_829      1    UNK   H0U      1     0.1139     1.0080 
[ bonds ]
    2     1     1      0.1529 224262.400
    3     2     1      0.1529 224262.400
    4     3     1      0.1360 307105.600
    5     3     1      0.1529 224262.400
    6     5     1      0.1529 224262.400
    7     5     1      0.1529 224262.400
    8     7     1      0.1529 224262.400
    9     8     1      0.1529 224262.400
   10     8     1      0.1529 224262.400
   11     3     1      0.1529 224262.400
   12    11     1      0.1360 307105.600
   13     1     1      0.1090 284512.000
   14     1     1      0.1090 284512.000
   15     1     1      0.1090 284512.000
   16     2     1      0.1090 284512.000
   17     2     1      0.1090 284512.000
   18     5     1      0.1090 284512.000
   19     6     1      0.1090 284512.000
   20     6     1      0.1090 284512.000
   21     6     1      0.1090 284512.000
   22     7     1      0.1090 284512.000
   23     7     1      0.1090 284512.000
   24     8     1      0.1090 284512.000
   25     9     1      0.1090 284512.000
   26     9     1      0.1090 284512.000
   27     9     1      0.1090 284512.000
   28    10     1      0.1090 284512.000
   29    10     1      0.1090 284512.000
   30    11     1      0.1090 284512.000
   11    10     1      0.1529 224262.400

[ angles ]
;  ai    aj    ak funct            c0            c1            c2            c3 
    1     2     3     1    112.700    488.273
    2     3     4     1    109.500    418.400
    2     3     5     1    112.700    488.273
    3     5     6     1    112.700    488.273
    3     5     7     1    112.700    488.273
    5     7     8     1    112.700    488.273
    7     8     9     1    112.700    488.273
    7     8    10     1    112.700    488.273
    2     3    11     1    112.700    488.273
    3    11    12     1    109.500    418.400
    2     1    13     1    110.700    313.800
    2     1    14     1    110.700    313.800
    2     1    15     1    110.700    313.800
    1     2    16     1    110.700    313.800
    1     2    17     1    110.700    313.800
    3     5    18     1    110.700    313.800
    5     6    19     1    110.700    313.800
    5     6    20     1    110.700    313.800
    5     6    21     1    110.700    313.800
    5     7    22     1    110.700    313.800
    5     7    23     1    110.700    313.800
    7     8    24     1    110.700    313.800
    8     9    25     1    110.700    313.800
    8     9    26     1    110.700    313.800
    8     9    27     1    110.700    313.800
    8    10    28     1    110.700    313.800
    8    10    29     1    110.700    313.800
    3    11    30     1    110.700    313.800
   25     9    26     1    107.800    276.144
    4     3    11     1    109.500    418.400
   13     1    14     1    107.800    276.144
    9     8    10     1    112.700    488.273
   20     6    21     1    107.800    276.144
    3     2    17     1    110.700    313.800
   11    10    29     1    110.700    313.800
   26     9    27     1    107.800    276.144
   28    10    29     1    107.800    276.144
   12    11    30     1    107.000    334.720
    3     2    16     1    110.700    313.800
   19     6    21     1    107.800    276.144
    8     7    23     1    110.700    313.800
    8    10    11     1    112.700    488.273
    9     8    24     1    110.700    313.800
    4     3     5     1    109.500    418.400
   16     2    17     1    107.800    276.144
    6     5     7     1    112.700    488.273
   14     1    15     1    107.800    276.144
   10    11    12     1    109.500    418.400
   11    10    28     1    110.700    313.800
    8     7    22     1    110.700    313.800
   19     6    20     1    107.800    276.144
   22     7    23     1    107.800    276.144
   25     9    27     1    107.800    276.144
   10    11    30     1    110.700    313.800
    5     3    11     1    112.700    488.273
    7     5    18     1    110.700    313.800
   13     1    15     1    107.800    276.144
    3    11    10     1    112.700    488.273
   10     8    24     1    110.700    313.800
    6     5    18     1    110.700    313.800

[ dihedrals ]
; IMPROPER DIHEDRAL ANGLES 
;  ai    aj    ak    al funct            c0            c1            c2            c3            c4            c5

[ dihedrals ]
; PROPER DIHEDRAL ANGLES
;  ai    aj    ak    al funct            c0            c1            c2            c3            c4            c5
    5    3    2    1        3       2.301  -1.464   0.837  -1.674  -0.000   0.000
   11   10    8    9        3       2.301  -1.464   0.837  -1.674  -0.000   0.000
   11    3    5    7        3       2.301  -1.464   0.837  -1.674  -0.000   0.000
   10   11    3    5        3       2.301  -1.464   0.837  -1.674  -0.000   0.000
    8    7    5    6        3       2.301  -1.464   0.837  -1.674  -0.000   0.000
   10   11    3    2        3       2.301  -1.464   0.837  -1.674  -0.000   0.000
    7    5    3    2        3       2.301  -1.464   0.837  -1.674  -0.000   0.000
   11   10    8    7        3       2.301  -1.464   0.837  -1.674  -0.000   0.000
   11    3    5    6        3       2.301  -1.464   0.837  -1.674  -0.000   0.000
   10    8    7    5        3       2.301  -1.464   0.837  -1.674  -0.000   0.000
    8   10   11    3        3       2.301  -1.464   0.837  -1.674  -0.000   0.000
    9    8    7    5        3       2.301  -1.464   0.837  -1.674  -0.000   0.000
    8    7    5    3        3       2.301  -1.464   0.837  -1.674  -0.000   0.000
    6    5    3    2        3       2.301  -1.464   0.837  -1.674  -0.000   0.000
   11    3    2    1        3       2.301  -1.464   0.837  -1.674  -0.000   0.000
    6    5    3    4        3      -0.209   1.883   1.674  -3.347  -0.000   0.000
   10   11    3    4        3      -0.209   1.883   1.674  -3.347  -0.000   0.000
    7    5    3    4        3      -0.209   1.883   1.674  -3.347  -0.000   0.000
   12   11    3    5        3      -0.209   1.883   1.674  -3.347  -0.000   0.000
   12   11   10    8        3      -0.209   1.883   1.674  -3.347  -0.000   0.000
   12   11    3    2        3      -0.209   1.883   1.674  -3.347  -0.000   0.000
    4    3    2    1        3      -0.209   1.883   1.674  -3.347  -0.000   0.000
   12   11    3    4        3      -4.707   6.799   0.000  -2.092  -0.000   0.000
   23    7    8    9        3       0.628   1.883   0.000  -2.510  -0.000   0.000
   20    6    5    7        3       0.628   1.883   0.000  -2.510  -0.000   0.000
   23    7    8   10        3       0.628   1.883   0.000  -2.510  -0.000   0.000
   30   11    3    5        3       0.628   1.883   0.000  -2.510  -0.000   0.000
   23    7    5    3        3       0.628   1.883   0.000  -2.510  -0.000   0.000
   17    2    3   11        3       0.628   1.883   0.000  -2.510  -0.000   0.000
   27    9    8   10        3       0.628   1.883   0.000  -2.510  -0.000   0.000
   18    5    3    2        3       0.628   1.883   0.000  -2.510  -0.000   0.000
   23    7    5    6        3       0.628   1.883   0.000  -2.510  -0.000   0.000
   14    1    2    3        3       0.628   1.883   0.000  -2.510  -0.000   0.000
   28   10   11    3        3       0.628   1.883   0.000  -2.510  -0.000   0.000
   30   11    3    2        3       0.628   1.883   0.000  -2.510  -0.000   0.000
   13    1    2    3        3       0.628   1.883   0.000  -2.510  -0.000   0.000
   21    6    5    3        3       0.628   1.883   0.000  -2.510  -0.000   0.000
   24    8   10   11        3       0.628   1.883   0.000  -2.510  -0.000   0.000
   18    5    7    8        3       0.628   1.883   0.000  -2.510  -0.000   0.000
   28   10    8    7        3       0.628   1.883   0.000  -2.510  -0.000   0.000
   20    6    5    3        3       0.628   1.883   0.000  -2.510  -0.000   0.000
   25    9    8   10        3       0.628   1.883   0.000  -2.510  -0.000   0.000
   22    7    8   10        3       0.628   1.883   0.000  -2.510  -0.000   0.000
   22    7    8    9        3       0.628   1.883   0.000  -2.510  -0.000   0.000
   24    8    7    5        3       0.628   1.883   0.000  -2.510  -0.000   0.000
   25    9    8    7        3       0.628   1.883   0.000  -2.510  -0.000   0.000
   29   10    8    7        3       0.628   1.883   0.000  -2.510  -0.000   0.000
   19    6    5    7        3       0.628   1.883   0.000  -2.510  -0.000   0.000
   21    6    5    7        3       0.628   1.883   0.000  -2.510  -0.000   0.000
   30   11   10    8        3       0.628   1.883   0.000  -2.510  -0.000   0.000
   26    9    8    7        3       0.628   1.883   0.000  -2.510  -0.000   0.000
   17    2    3    5        3       0.628   1.883   0.000  -2.510  -0.000   0.000
   16    2    3   11        3       0.628   1.883   0.000  -2.510  -0.000   0.000
   28   10    8    9        3       0.628   1.883   0.000  -2.510  -0.000   0.000
   26    9    8   10        3       0.628   1.883   0.000  -2.510  -0.000   0.000
   15    1    2    3        3       0.628   1.883   0.000  -2.510  -0.000   0.000
   27    9    8    7        3       0.628   1.883   0.000  -2.510  -0.000   0.000
   29   10    8    9        3       0.628   1.883   0.000  -2.510  -0.000   0.000
   22    7    5    6        3       0.628   1.883   0.000  -2.510  -0.000   0.000
   29   10   11    3        3       0.628   1.883   0.000  -2.510  -0.000   0.000
   22    7    5    3        3       0.628   1.883   0.000  -2.510  -0.000   0.000
   19    6    5    3        3       0.628   1.883   0.000  -2.510  -0.000   0.000
   18    5    3   11        3       0.628   1.883   0.000  -2.510  -0.000   0.000
   16    2    3    5        3       0.628   1.883   0.000  -2.510  -0.000   0.000
   16    2    3    4        3       0.837   2.510   0.000  -3.347  -0.000   0.000
   17    2    3    4        3       0.837   2.510   0.000  -3.347  -0.000   0.000
   30   11    3    4        3       0.837   2.510   0.000  -3.347  -0.000   0.000
   18    5    3    4        3       0.837   2.510   0.000  -3.347  -0.000   0.000
   28   10   11   12        3       0.837   2.510   0.000  -3.347  -0.000   0.000
   29   10   11   12        3       0.837   2.510   0.000  -3.347  -0.000   0.000
   25    9    8   24        3       0.628   1.883   0.000  -2.510  -0.000   0.000
   16    2    1   13        3       0.628   1.883   0.000  -2.510  -0.000   0.000
   21    6    5   18        3       0.628   1.883   0.000  -2.510  -0.000   0.000
   24    8    7   23        3       0.628   1.883   0.000  -2.510  -0.000   0.000
   24    8    7   22        3       0.628   1.883   0.000  -2.510  -0.000   0.000
   28   10    8   24        3       0.628   1.883   0.000  -2.510  -0.000   0.000
   23    7    5   18        3       0.628   1.883   0.000  -2.510  -0.000   0.000
   19    6    5   18        3       0.628   1.883   0.000  -2.510  -0.000   0.000
   20    6    5   18        3       0.628   1.883   0.000  -2.510  -0.000   0.000
   27    9    8   24        3       0.628   1.883   0.000  -2.510  -0.000   0.000
   16    2    1   15        3       0.628   1.883   0.000  -2.510  -0.000   0.000
   29   10    8   24        3       0.628   1.883   0.000  -2.510  -0.000   0.000
   17    2    1   15        3       0.628   1.883   0.000  -2.510  -0.000   0.000
   30   11   10   28        3       0.628   1.883   0.000  -2.510  -0.000   0.000
   17    2    1   13        3       0.628   1.883   0.000  -2.510  -0.000   0.000
   16    2    1   14        3       0.628   1.883   0.000  -2.510  -0.000   0.000
   30   11   10   29        3       0.628   1.883   0.000  -2.510  -0.000   0.000
   22    7    5   18        3       0.628   1.883   0.000  -2.510  -0.000   0.000
   26    9    8   24        3       0.628   1.883   0.000  -2.510  -0.000   0.000
   17    2    1   14        3       0.628   1.883   0.000  -2.510  -0.000   0.000

[ pairs ]
     1     4    1
     1     5    1
     2     6    1
     2     7    1
     4     6    1
     4     7    1
     3     8    1
     2    10    1
     1    11    1
     6     8    1
     5     9    1
     4    10    1
     2    12    1
     5    10    1
     4    12    1
     3    13    1
     6    11    1
     5    12    1
     3    14    1
     7    11    1
     3    15    1
     9    11    1
     8    12    1
     4    16    1
     2    18    1
     5    16    1
     4    17    1
     5    17    1
     4    18    1
     3    19    1
     3    20    1
     3    21    1
     3    22    1
     8    18    1
     7    19    1
     3    23    1
    11    16    1
     7    20    1
    11    17    1
     7    21    1
     6    22    1
    13    16    1
    11    18    1
     6    23    1
     5    24    1
    14    16    1
    13    17    1
    15    16    1
    14    17    1
     9    22    1
     3    28    1
    15    17    1
    10    22    1
     9    23    1
     7    25    1
     3    29    1
     2    30    1
    10    23    1
     7    26    1
     7    27    1
     4    30    1
    11    24    1
    10    25    1
     7    28    1
     5    30    1
    10    26    1
     7    29    1
    18    19    1
    10    27    1
     9    28    1
    18    20    1
     9    29    1
     8    30    1
    18    21    1
    18    22    1
    12    28    1
    18    23    1
    12    29    1
    22    24    1
    23    24    1
    24    25    1
    24    26    1
    24    27    1
    24    28    1
    24    29    1
    28    30    1
    29    30    1

