
;
; GENERATED BY LigParGen Server
; Jorgensen Lab @ Yale University 
;
[ atomtypes ]
  opls_818  H818     1.0080     0.000    A    2.50000E-01   1.25520E-01
  opls_814  N814    14.0070     0.000    A    3.30000E-01   7.11280E-01
  opls_824  H824     1.0080     0.000    A    2.50000E-01   1.25520E-01
  opls_815  C815    12.0110     0.000    A    3.50000E-01   2.76144E-01
  opls_843  H843     1.0080     0.000    A    2.50000E-01   1.25520E-01
  opls_836  H836     1.0080     0.000    A    2.50000E-01   1.25520E-01
  opls_834  H834     1.0080     0.000    A    2.50000E-01   1.25520E-01
  opls_810  C810    12.0110     0.000    A    3.50000E-01   2.76144E-01
  opls_828  H828     1.0080     0.000    A    2.50000E-01   1.25520E-01
  opls_812  C812    12.0110     0.000    A    3.50000E-01   2.76144E-01
  opls_811  C811    12.0110     0.000    A    3.50000E-01   2.76144E-01
  opls_827  H827     1.0080     0.000    A    2.50000E-01   1.25520E-01
  opls_809  C809    12.0110     0.000    A    3.50000E-01   2.76144E-01
  opls_838  H838     1.0080     0.000    A    2.50000E-01   1.25520E-01
  opls_822  H822     1.0080     0.000    A    2.50000E-01   1.25520E-01
  opls_803  C803    12.0110     0.000    A    3.50000E-01   2.76144E-01
  opls_825  H825     1.0080     0.000    A    2.50000E-01   1.25520E-01
  opls_830  H830     1.0080     0.000    A    2.50000E-01   1.25520E-01
  opls_821  H821     1.0080     0.000    A    2.50000E-01   1.25520E-01
  opls_842  H842     1.0080     0.000    A    2.50000E-01   1.25520E-01
  opls_820  H820     1.0080     0.000    A    2.50000E-01   1.25520E-01
  opls_837  H837     1.0080     0.000    A    2.50000E-01   1.25520E-01
  opls_829  H829     1.0080     0.000    A    2.50000E-01   1.25520E-01
  opls_831  H831     1.0080     0.000    A    2.50000E-01   1.25520E-01
  opls_805  C805    12.0110     0.000    A    3.55000E-01   2.92880E-01
  opls_832  H832     1.0080     0.000    A    2.50000E-01   1.25520E-01
  opls_800  C800    12.0110     0.000    A    3.50000E-01   2.76144E-01
  opls_802  C802    12.0110     0.000    A    3.50000E-01   2.76144E-01
  opls_823  H823     1.0080     0.000    A    2.50000E-01   1.25520E-01
  opls_813  C813    12.0110     0.000    A    3.50000E-01   2.76144E-01
  opls_826  H826     1.0080     0.000    A    2.50000E-01   1.25520E-01
  opls_835  H835     1.0080     0.000    A    2.50000E-01   1.25520E-01
  opls_841  H841     1.0080     0.000    A    2.50000E-01   1.25520E-01
  opls_819  H819     1.0080     0.000    A    2.50000E-01   1.25520E-01
  opls_816  C816    12.0110     0.000    A    3.50000E-01   2.76144E-01
  opls_833  H833     1.0080     0.000    A    2.50000E-01   1.25520E-01
  opls_839  H839     1.0080     0.000    A    2.50000E-01   1.25520E-01
  opls_817  C817    12.0110     0.000    A    3.50000E-01   2.76144E-01
  opls_801  C801    12.0110     0.000    A    3.50000E-01   2.76144E-01
  opls_808  C808    12.0110     0.000    A    3.50000E-01   2.76144E-01
  opls_806  O806    15.9990     0.000    A    2.96000E-01   8.78640E-01
  opls_840  H840     1.0080     0.000    A    2.50000E-01   1.25520E-01
  opls_804  O804    15.9990     0.000    A    2.90000E-01   5.85760E-01
  opls_807  O807    15.9990     0.000    A    2.90000E-01   5.85760E-01
  opls_844  H844     1.0080     0.000    A    2.50000E-01   1.25520E-01
[ moleculetype ]
; Name               nrexcl
UNK                   3
[ atoms ]
;   nr       type  resnr residue  atom   cgnr     charge       mass  
     1   opls_800      1    UNK   C00      1    -0.2364    12.0110 
     2   opls_801      1    UNK   C01      1    -0.1765    12.0110 
     3   opls_802      1    UNK   C02      1    -0.2069    12.0110 
     4   opls_803      1    UNK   C03      1     0.0207    12.0110 
     5   opls_804      1    UNK   O04      1    -0.3266    15.9990 
     6   opls_805      1    UNK   C05      1     0.5724    12.0110 
     7   opls_806      1    UNK   O06      1     -0.485    15.9990 
     8   opls_807      1    UNK   O07      1    -0.3246    15.9990 
     9   opls_808      1    UNK   C08      1     0.0198    12.0110 
    10   opls_809      1    UNK   C09      1    -0.1425    12.0110 
    11   opls_810      1    UNK   C0A      1    -0.2393    12.0110 
    12   opls_811      1    UNK   C0B      1    -0.0942    12.0110 
    13   opls_812      1    UNK   C0C      1     -0.214    12.0110 
    14   opls_813      1    UNK   C0D      1     0.0134    12.0110 
    15   opls_814      1    UNK   N0E      1    -0.5871    14.0070 
    16   opls_815      1    UNK   C0F      1    -0.0446    12.0110 
    17   opls_816      1    UNK   C0G      1     0.0204    12.0110 
    18   opls_817      1    UNK   C0H      1    -0.2076    12.0110 
    19   opls_818      1    UNK   H0I      1     0.0847     1.0080 
    20   opls_819      1    UNK   H0J      1     0.0847     1.0080 
    21   opls_820      1    UNK   H0K      1     0.0847     1.0080 
    22   opls_821      1    UNK   H0M      1     0.0893     1.0080 
    23   opls_822      1    UNK   H0N      1     0.0893     1.0080 
    24   opls_823      1    UNK   H0O      1     0.1112     1.0080 
    25   opls_824      1    UNK   H0P      1     0.1112     1.0080 
    26   opls_825      1    UNK   H0Q      1     0.1129     1.0080 
    27   opls_826      1    UNK   H0R      1     0.1129     1.0080 
    28   opls_827      1    UNK   H0S      1     0.1187     1.0080 
    29   opls_828      1    UNK   H0T      1     0.1187     1.0080 
    30   opls_829      1    UNK   H0U      1      0.125     1.0080 
    31   opls_830      1    UNK   H0V      1     0.0872     1.0080 
    32   opls_831      1    UNK   H0W      1     0.0872     1.0080 
    33   opls_832      1    UNK   H0X      2     0.0872     1.0080 
    34   opls_833      1    UNK   H0Y      2      0.092     1.0080 
    35   opls_834      1    UNK   H0Z      2     0.0934     1.0080 
    36   opls_835      1    UNK   H10      2     0.0934     1.0080 
    37   opls_836      1    UNK   H11      2     0.1125     1.0080 
    38   opls_837      1    UNK   H12      2     0.1125     1.0080 
    39   opls_838      1    UNK   H13      2     0.0791     1.0080 
    40   opls_839      1    UNK   H14      2     0.0791     1.0080 
    41   opls_840      1    UNK   H15      2     0.0791     1.0080 
    42   opls_841      1    UNK   H16      2     0.1016     1.0080 
    43   opls_842      1    UNK   H17      2     0.1016     1.0080 
    44   opls_843      1    UNK   H18      2     0.0947     1.0080 
    45   opls_844      1    UNK   H19      2     0.0947     1.0080 
[ bonds ]
    2     1     1      0.1529 224262.400
    3     2     1      0.1529 224262.400
    4     3     1      0.1529 224262.400
    5     4     1      0.1410 267776.000
    6     5     1      0.1327 179075.200
    7     6     1      0.1229 476976.000
    8     6     1      0.1327 179075.200
    9     8     1      0.1410 267776.000
   10     9     1      0.1529 224262.400
   11    10     1      0.1529 224262.400
   12    10     1      0.1529 224262.400
   13    12     1      0.1529 224262.400
   14    13     1      0.1529 224262.400
   15    14     1      0.1448 319657.600
   16    15     1      0.1448 319657.600
   17    15     1      0.1448 319657.600
   18    12     1      0.1529 224262.400
   19     1     1      0.1090 284512.000
   20     1     1      0.1090 284512.000
   21     1     1      0.1090 284512.000
   22     2     1      0.1090 284512.000
   23     2     1      0.1090 284512.000
   24     3     1      0.1090 284512.000
   25     3     1      0.1090 284512.000
   26     4     1      0.1090 284512.000
   27     4     1      0.1090 284512.000
   28     9     1      0.1090 284512.000
   29     9     1      0.1090 284512.000
   30    10     1      0.1090 284512.000
   31    11     1      0.1090 284512.000
   32    11     1      0.1090 284512.000
   33    11     1      0.1090 284512.000
   34    12     1      0.1090 284512.000
   35    13     1      0.1090 284512.000
   36    13     1      0.1090 284512.000
   37    14     1      0.1090 284512.000
   38    14     1      0.1090 284512.000
   39    16     1      0.1090 284512.000
   40    16     1      0.1090 284512.000
   41    16     1      0.1090 284512.000
   42    17     1      0.1090 284512.000
   43    17     1      0.1090 284512.000
   44    18     1      0.1090 284512.000
   45    18     1      0.1090 284512.000
   18    17     1      0.1529 224262.400

[ angles ]
;  ai    aj    ak funct            c0            c1            c2            c3 
    1     2     3     1    112.700    488.273
    2     3     4     1    112.700    488.273
    3     4     5     1    109.500    418.400
    4     5     6     1    116.900    694.544
    5     6     7     1    123.400    694.544
    5     6     8     1    118.180    584.923
    6     8     9     1    116.900    694.544
    8     9    10     1    109.500    418.400
    9    10    11     1    112.700    488.273
    9    10    12     1    112.700    488.273
   10    12    13     1    112.700    488.273
   12    13    14     1    112.700    488.273
   13    14    15     1    109.470    470.282
   14    15    16     1    107.200    433.462
   14    15    17     1    107.200    433.462
   10    12    18     1    112.700    488.273
    2     1    19     1    110.700    313.800
    2     1    20     1    110.700    313.800
    2     1    21     1    110.700    313.800
    1     2    22     1    110.700    313.800
    1     2    23     1    110.700    313.800
    2     3    24     1    110.700    313.800
    2     3    25     1    110.700    313.800
    3     4    26     1    110.700    313.800
    3     4    27     1    110.700    313.800
    8     9    28     1    109.500    292.880
    8     9    29     1    109.500    292.880
    9    10    30     1    110.700    313.800
   10    11    31     1    110.700    313.800
   10    11    32     1    110.700    313.800
   10    11    33     1    110.700    313.800
   10    12    34     1    110.700    313.800
   12    13    35     1    110.700    313.800
   12    13    36     1    110.700    313.800
   13    14    37     1    110.700    313.800
   13    14    38     1    110.700    313.800
   15    16    39     1    109.500    292.880
   15    16    40     1    109.500    292.880
   15    16    41     1    109.500    292.880
   15    17    42     1    109.500    292.880
   15    17    43     1    109.500    292.880
   12    18    44     1    110.700    313.800
   12    18    45     1    110.700    313.800
   11    10    12     1    112.700    488.273
   19     1    21     1    107.800    276.144
   26     4    27     1    107.800    276.144
    4     3    24     1    110.700    313.800
   16    15    17     1    107.200    433.462
   28     9    29     1    107.800    276.144
   20     1    21     1    107.800    276.144
    5     4    27     1    109.500    292.880
   42    17    43     1    107.800    276.144
   11    10    30     1    110.700    313.800
   24     3    25     1    107.800    276.144
   10     9    29     1    110.700    313.800
   39    16    40     1    107.800    276.144
    5     4    26     1    109.500    292.880
   14    13    35     1    110.700    313.800
   37    14    38     1    107.800    276.144
   15    17    18     1    109.470    470.282
   13    12    34     1    110.700    313.800
   17    18    45     1    110.700    313.800
   15    14    37     1    109.500    292.880
   44    18    45     1    107.800    276.144
   35    13    36     1    107.800    276.144
   14    13    36     1    110.700    313.800
   18    12    34     1    110.700    313.800
   17    18    44     1    110.700    313.800
   12    18    17     1    112.700    488.273
   40    16    41     1    107.800    276.144
   18    17    43     1    110.700    313.800
    4     3    25     1    110.700    313.800
   32    11    33     1    107.800    276.144
   18    17    42     1    110.700    313.800
   22     2    23     1    107.800    276.144
   19     1    20     1    107.800    276.144
   10     9    28     1    110.700    313.800
   12    10    30     1    110.700    313.800
   31    11    32     1    107.800    276.144
    3     2    22     1    110.700    313.800
    3     2    23     1    110.700    313.800
    7     6     8     1    123.400    694.544
   15    14    38     1    109.500    292.880
   39    16    41     1    107.800    276.144
   13    12    18     1    112.700    488.273
   31    11    33     1    107.800    276.144

[ dihedrals ]
; IMPROPER DIHEDRAL ANGLES 
;  ai    aj    ak    al funct            c0            c1            c2            c3            c4            c5
     8     6     5     7    4        180.000     43.932     2  

[ dihedrals ]
; PROPER DIHEDRAL ANGLES
;  ai    aj    ak    al funct            c0            c1            c2            c3            c4            c5
    6    5    4    3        3      -2.197   5.201   0.527  -3.531  -0.000   0.000
    4    3    2    1        3       2.301  -1.464   0.837  -1.674  -0.000   0.000
   13   12   10   11        3       2.301  -1.464   0.837  -1.674  -0.000   0.000
   18   12   13   14        3       2.301  -1.464   0.837  -1.674  -0.000   0.000
   18   12   10   11        3       2.301  -1.464   0.837  -1.674  -0.000   0.000
   17   18   12   10        3       2.301  -1.464   0.837  -1.674  -0.000   0.000
   14   13   12   10        3       2.301  -1.464   0.837  -1.674  -0.000   0.000
   13   12   10    9        3       2.301  -1.464   0.837  -1.674  -0.000   0.000
   18   12   10    9        3       2.301  -1.464   0.837  -1.674  -0.000   0.000
   17   18   12   13        3       2.301  -1.464   0.837  -1.674  -0.000   0.000
   12   10    9    8        3       2.874   0.582   2.092  -5.548  -0.000   0.000
   11   10    9    8        3       2.874   0.582   2.092  -5.548  -0.000   0.000
   18   17   15   14        3       1.789   3.492   0.536  -5.816  -0.000   0.000
   18   17   15   16        3       1.789   3.492   0.536  -5.816  -0.000   0.000
   10    9    8    6        3      -2.197   5.201   0.527  -3.531  -0.000   0.000
   17   15   14   13        3       1.789   3.492   0.536  -5.816  -0.000   0.000
   16   15   14   13        3       1.789   3.492   0.536  -5.816  -0.000   0.000
    9    8    6    7        3      21.439   0.000  -21.439  -0.000  -0.000   0.000
    9    8    6    5        3      31.206  -9.768  -21.439  -0.000  -0.000   0.000
   23    2    3    4        3       0.628   1.883   0.000  -2.510  -0.000   0.000
   36   13   12   18        3       0.628   1.883   0.000  -2.510  -0.000   0.000
   33   11   10    9        3       0.628   1.883   0.000  -2.510  -0.000   0.000
   34   12   10   11        3       0.628   1.883   0.000  -2.510  -0.000   0.000
   32   11   10   12        3       0.628   1.883   0.000  -2.510  -0.000   0.000
   34   12   18   17        3       0.628   1.883   0.000  -2.510  -0.000   0.000
   43   17   18   12        3       0.628   1.883   0.000  -2.510  -0.000   0.000
   26    4    3    2        3       0.628   1.883   0.000  -2.510  -0.000   0.000
   30   10   12   18        3       0.628   1.883   0.000  -2.510  -0.000   0.000
   44   18   12   13        3       0.628   1.883   0.000  -2.510  -0.000   0.000
   32   11   10    9        3       0.628   1.883   0.000  -2.510  -0.000   0.000
   30   10   12   13        3       0.628   1.883   0.000  -2.510  -0.000   0.000
   33   11   10   12        3       0.628   1.883   0.000  -2.510  -0.000   0.000
   27    4    3    2        3       0.628   1.883   0.000  -2.510  -0.000   0.000
   29    9   10   12        3       0.628   1.883   0.000  -2.510  -0.000   0.000
   34   12   13   14        3       0.628   1.883   0.000  -2.510  -0.000   0.000
   28    9   10   12        3       0.628   1.883   0.000  -2.510  -0.000   0.000
   29    9   10   11        3       0.628   1.883   0.000  -2.510  -0.000   0.000
   44   18   12   10        3       0.628   1.883   0.000  -2.510  -0.000   0.000
   21    1    2    3        3       0.628   1.883   0.000  -2.510  -0.000   0.000
   45   18   12   13        3       0.628   1.883   0.000  -2.510  -0.000   0.000
   35   13   12   10        3       0.628   1.883   0.000  -2.510  -0.000   0.000
   34   12   10    9        3       0.628   1.883   0.000  -2.510  -0.000   0.000
   37   14   13   12        3       0.628   1.883   0.000  -2.510  -0.000   0.000
   25    3    2    1        3       0.628   1.883   0.000  -2.510  -0.000   0.000
   22    2    3    4        3       0.628   1.883   0.000  -2.510  -0.000   0.000
   42   17   18   12        3       0.628   1.883   0.000  -2.510  -0.000   0.000
   31   11   10    9        3       0.628   1.883   0.000  -2.510  -0.000   0.000
   19    1    2    3        3       0.628   1.883   0.000  -2.510  -0.000   0.000
   31   11   10   12        3       0.628   1.883   0.000  -2.510  -0.000   0.000
   28    9   10   11        3       0.628   1.883   0.000  -2.510  -0.000   0.000
   35   13   12   18        3       0.628   1.883   0.000  -2.510  -0.000   0.000
   24    3    2    1        3       0.628   1.883   0.000  -2.510  -0.000   0.000
   36   13   12   10        3       0.628   1.883   0.000  -2.510  -0.000   0.000
   20    1    2    3        3       0.628   1.883   0.000  -2.510  -0.000   0.000
   38   14   13   12        3       0.628   1.883   0.000  -2.510  -0.000   0.000
   45   18   12   10        3       0.628   1.883   0.000  -2.510  -0.000   0.000
   31   11   10   30        3       0.628   1.883   0.000  -2.510  -0.000   0.000
   38   14   13   35        3       0.628   1.883   0.000  -2.510  -0.000   0.000
   26    4    3   24        3       0.628   1.883   0.000  -2.510  -0.000   0.000
   26    4    3   25        3       0.628   1.883   0.000  -2.510  -0.000   0.000
   37   14   13   36        3       0.628   1.883   0.000  -2.510  -0.000   0.000
   45   18   17   43        3       0.628   1.883   0.000  -2.510  -0.000   0.000
   44   18   17   42        3       0.628   1.883   0.000  -2.510  -0.000   0.000
   45   18   12   34        3       0.628   1.883   0.000  -2.510  -0.000   0.000
   22    2    1   21        3       0.628   1.883   0.000  -2.510  -0.000   0.000
   23    2    1   20        3       0.628   1.883   0.000  -2.510  -0.000   0.000
   44   18   17   43        3       0.628   1.883   0.000  -2.510  -0.000   0.000
   45   18   17   42        3       0.628   1.883   0.000  -2.510  -0.000   0.000
   34   12   10   30        3       0.628   1.883   0.000  -2.510  -0.000   0.000
   44   18   12   34        3       0.628   1.883   0.000  -2.510  -0.000   0.000
   37   14   13   35        3       0.628   1.883   0.000  -2.510  -0.000   0.000
   38   14   13   36        3       0.628   1.883   0.000  -2.510  -0.000   0.000
   24    3    2   23        3       0.628   1.883   0.000  -2.510  -0.000   0.000
   27    4    3   24        3       0.628   1.883   0.000  -2.510  -0.000   0.000
   25    3    2   22        3       0.628   1.883   0.000  -2.510  -0.000   0.000
   33   11   10   30        3       0.628   1.883   0.000  -2.510  -0.000   0.000
   22    2    1   20        3       0.628   1.883   0.000  -2.510  -0.000   0.000
   32   11   10   30        3       0.628   1.883   0.000  -2.510  -0.000   0.000
   27    4    3   25        3       0.628   1.883   0.000  -2.510  -0.000   0.000
   23    2    1   19        3       0.628   1.883   0.000  -2.510  -0.000   0.000
   22    2    1   19        3       0.628   1.883   0.000  -2.510  -0.000   0.000
   25    3    2   23        3       0.628   1.883   0.000  -2.510  -0.000   0.000
   36   13   12   34        3       0.628   1.883   0.000  -2.510  -0.000   0.000
   24    3    2   22        3       0.628   1.883   0.000  -2.510  -0.000   0.000
   30   10    9   28        3       0.628   1.883   0.000  -2.510  -0.000   0.000
   30   10    9   29        3       0.628   1.883   0.000  -2.510  -0.000   0.000
   23    2    1   21        3       0.628   1.883   0.000  -2.510  -0.000   0.000
   35   13   12   34        3       0.628   1.883   0.000  -2.510  -0.000   0.000
   44   18   17   15        3      -4.096   5.088   2.966  -3.958  -0.000   0.000
   35   13   14   15        3      -4.096   5.088   2.966  -3.958  -0.000   0.000
   36   13   14   15        3      -4.096   5.088   2.966  -3.958  -0.000   0.000
   45   18   17   15        3      -4.096   5.088   2.966  -3.958  -0.000   0.000
   30   10    9    8        3       0.979   2.937   0.000  -3.916  -0.000   0.000
   25    3    4    5        3       0.979   2.937   0.000  -3.916  -0.000   0.000
   24    3    4    5        3       0.979   2.937   0.000  -3.916  -0.000   0.000
   39   16   15   17        3       1.172   3.515   0.000  -4.686  -0.000   0.000
   39   16   15   14        3       1.172   3.515   0.000  -4.686  -0.000   0.000
   40   16   15   14        3       1.172   3.515   0.000  -4.686  -0.000   0.000
   41   16   15   17        3       1.172   3.515   0.000  -4.686  -0.000   0.000
   41   16   15   14        3       1.172   3.515   0.000  -4.686  -0.000   0.000
   42   17   15   16        3       1.172   3.515   0.000  -4.686  -0.000   0.000
   43   17   15   14        3       1.172   3.515   0.000  -4.686  -0.000   0.000
   38   14   15   17        3       1.172   3.515   0.000  -4.686  -0.000   0.000
   40   16   15   17        3       1.172   3.515   0.000  -4.686  -0.000   0.000
   42   17   15   14        3       1.172   3.515   0.000  -4.686  -0.000   0.000
   43   17   15   16        3       1.172   3.515   0.000  -4.686  -0.000   0.000
   37   14   15   16        3       1.172   3.515   0.000  -4.686  -0.000   0.000
   37   14   15   17        3       1.172   3.515   0.000  -4.686  -0.000   0.000
   38   14   15   16        3       1.172   3.515   0.000  -4.686  -0.000   0.000
   28    9    8    6        3       0.414   1.243   0.000  -1.657  -0.000   0.000
   29    9    8    6        3       0.414   1.243   0.000  -1.657  -0.000   0.000
   26    4    5    6        3       0.414   1.243   0.000  -1.657  -0.000   0.000
   27    4    5    6        3       0.414   1.243   0.000  -1.657  -0.000   0.000
   15   17   18   12        3       3.335  -1.552   2.820  -4.602  -0.000   0.000
   15   14   13   12        3       3.335  -1.552   2.820  -4.602  -0.000   0.000
    7    6    5    4        3      21.439   0.000  -21.439  -0.000  -0.000   0.000
    8    6    5    4        3      31.206  -9.768  -21.439  -0.000  -0.000   0.000
    5    4    3    2        3       2.874   0.582   2.092  -5.548  -0.000   0.000

[ pairs ]
     1     4    1
     2     5    1
     3     6    1
     4     7    1
     4     8    1
     5     9    1
     7     9    1
     6    10    1
     8    11    1
     8    12    1
     9    13    1
     3    19    1
     3    20    1
    11    13    1
    10    14    1
     3    21    1
     1    24    1
     4    22    1
     1    25    1
    12    15    1
    10    17    1
     9    18    1
     4    23    1
     2    26    1
    13    16    1
    11    18    1
     5    24    1
     2    27    1
    13    17    1
     5    25    1
    14    18    1
     6    26    1
     6    27    1
    16    18    1
     6    28    1
     6    29    1
     8    30    1
    11    28    1
    12    28    1
    11    29    1
     9    31    1
    19    22    1
    12    29    1
     9    32    1
    20    22    1
    19    23    1
     9    33    1
    21    22    1
    20    23    1
    13    30    1
    12    31    1
     9    34    1
    21    23    1
    12    32    1
    12    33    1
    11    34    1
    10    35    1
    22    24    1
    10    36    1
    23    24    1
    22    25    1
    23    25    1
    18    30    1
    14    34    1
    12    37    1
    24    26    1
    15    35    1
    12    38    1
    25    26    1
    24    27    1
    17    34    1
    15    36    1
    25    27    1
    18    35    1
    16    37    1
    14    39    1
    18    36    1
    17    37    1
    16    38    1
    14    40    1
    12    42    1
    10    44    1
    17    38    1
    14    41    1
    12    43    1
    10    45    1
    17    39    1
    14    42    1
    17    40    1
    14    43    1
    13    44    1
    28    30    1
    17    41    1
    16    42    1
    13    45    1
    29    30    1
    16    43    1
    15    44    1
    15    45    1
    30    31    1
    30    32    1
    30    33    1
    30    34    1
    34    35    1
    34    36    1
    35    37    1
    36    37    1
    35    38    1
    36    38    1
    34    44    1
    34    45    1
    42    44    1
    43    44    1
    42    45    1
    43    45    1

