LIGPARGEN GENERATED GRO FILE
   45
    1UNK    C00    1   0.100   0.100   0.000
    1UNK    C01    2  -0.052   0.100   0.000
    1UNK    C02    3  -0.111   0.100   0.141
    1UNK    C03    4  -0.263   0.100   0.132
    1UNK    O04    5  -0.326   0.088   0.259
    1UNK    C05    6  -0.377   0.204   0.307
    1UNK    O06    7  -0.332   0.316   0.285
    1UNK    O07    8  -0.494   0.175   0.369
    1UNK    C08    9  -0.569   0.289   0.414
    1UNK    C09   10  -0.638   0.366   0.298
    1UNK    C0A   11  -0.736   0.272   0.226
    1UNK    C0B   12  -0.706   0.496   0.352
    1UNK    C0C   13  -0.604   0.596   0.411
    1UNK    C0D   14  -0.518   0.661   0.302
    1UNK    N0E   15  -0.597   0.731   0.200
    1UNK    C0F   16  -0.648   0.859   0.247
    1UNK    C0G   17  -0.703   0.645   0.144
    1UNK    C0H   18  -0.789   0.574   0.248
    1UNK    H0I   19   0.137   0.100  -0.103
    1UNK    H0J   20   0.139   0.011   0.050
    1UNK    H0K   21   0.139   0.189   0.050
    1UNK    H0M   22  -0.087   0.012  -0.055
    1UNK    H0N   23  -0.088   0.188  -0.055
    1UNK    H0O   24  -0.076   0.188   0.197
    1UNK    H0P   25  -0.076   0.012   0.197
    1UNK    H0Q   26  -0.295   0.013   0.074
    1UNK    H0R   27  -0.298   0.188   0.078
    1UNK    H0S   28  -0.503   0.351   0.474
    1UNK    H0T   29  -0.646   0.250   0.482
    1UNK    H0U   30  -0.563   0.392   0.223
    1UNK    H0V   31  -0.819   0.244   0.292
    1UNK    H0W   32  -0.686   0.180   0.193
    1UNK    H0X   33  -0.778   0.319   0.137
    1UNK    H0Y   34  -0.774   0.466   0.432
    1UNK    H0Z   35  -0.539   0.549   0.485
    1UNK    H10   36  -0.659   0.674   0.466
    1UNK    H11   37  -0.457   0.585   0.253
    1UNK    H12   38  -0.447   0.731   0.349
    1UNK    H13   39  -0.565   0.921   0.284
    1UNK    H14   40  -0.721   0.849   0.328
    1UNK    H15   41  -0.694   0.915   0.165
    1UNK    H16   42  -0.656   0.571   0.079
    1UNK    H17   43  -0.768   0.704   0.078
    1UNK    H18   44  -0.861   0.509   0.198
    1UNK    H19   45  -0.849   0.649   0.301
   1.00000   1.00000   1.00000

