LIGPARGEN GENERATED GRO FILE
   39
    1UNK    C00    1   0.100   0.100   0.000
    1UNK    C01    2  -0.052   0.100   0.000
    1UNK    O02    3  -0.100   0.100   0.135
    1UNK    C03    4  -0.244   0.094   0.152
    1UNK    C04    5  -0.310   0.220   0.093
    1UNK    C05    6  -0.297  -0.034   0.085
    1UNK    C06    7  -0.264   0.093   0.307
    1UNK    C07    8  -0.407   0.103   0.366
    1UNK    C08    9  -0.502  -0.014   0.338
    1UNK    C09   10  -0.444  -0.144   0.389
    1UNK    O0A   11  -0.445  -0.248   0.324
    1UNK    C0B   12  -0.641   0.007   0.399
    1UNK    O0C   13  -0.732  -0.098   0.358
    1UNK    C0D   14  -0.780  -0.090   0.231
    1UNK    O0E   15  -0.756  -0.000   0.151
    1UNK    O0F   16  -0.858  -0.198   0.208
    1UNK    C0G   17  -0.911  -0.205   0.076
    1UNK    H0H   18   0.138   0.100  -0.103
    1UNK    H0I   19   0.138   0.011   0.051
    1UNK    H0J   20   0.139   0.188   0.052
    1UNK    H0K   21  -0.083   0.010  -0.053
    1UNK    H0M   22  -0.087   0.188  -0.053
    1UNK    H0N   23  -0.299   0.223  -0.016
    1UNK    H0O   24  -0.262   0.310   0.132
    1UNK    H0P   25  -0.417   0.224   0.114
    1UNK    H0Q   26  -0.270  -0.041  -0.020
    1UNK    H0R   27  -0.406  -0.039   0.084
    1UNK    H0S   28  -0.257  -0.123   0.135
    1UNK    H0T   29  -0.208   0.178   0.348
    1UNK    H0U   30  -0.213   0.005   0.349
    1UNK    H0V   31  -0.453   0.196   0.333
    1UNK    H0W   32  -0.396   0.112   0.475
    1UNK    H0X   33  -0.517  -0.025   0.231
    1UNK    H0Y   34  -0.402  -0.142   0.491
    1UNK    H0Z   35  -0.682   0.104   0.371
    1UNK    H10   36  -0.636   0.004   0.508
    1UNK    H11   37  -0.972  -0.295   0.068
    1UNK    H12   38  -0.830  -0.212   0.002
    1UNK    H13   39  -0.974  -0.119   0.055
   1.00000   1.00000   1.00000

