LIGPARGEN GENERATED GRO FILE
   47
    1UNK    C00    1   0.100   0.100   0.000
    1UNK    C01    2  -0.052   0.100   0.000
    1UNK    C02    3  -0.107   0.100   0.142
    1UNK    C03    4  -0.260   0.100   0.144
    1UNK    C04    5  -0.310   0.100   0.288
    1UNK    C05    6  -0.462   0.099   0.300
    1UNK    C06    7  -0.499   0.099   0.448
    1UNK    O07    8  -0.641   0.108   0.465
    1UNK    C08    9  -0.679   0.096   0.603
    1UNK    C09   10  -0.635   0.218   0.684
    1UNK    C0A   11  -0.833   0.084   0.610
    1UNK    C0B   12  -0.893  -0.043   0.545
    1UNK    C0C   13  -0.837  -0.170   0.610
    1UNK    C0D   14  -1.046  -0.034   0.559
    1UNK    C0E   15  -1.122  -0.152   0.500
    1UNK    C0F   16  -1.103  -0.183   0.354
    1UNK    O0G   17  -1.196  -0.221   0.570
    1UNK    H0H   18   0.138   0.100  -0.103
    1UNK    H0I   19   0.139   0.011   0.051
    1UNK    H0J   20   0.139   0.189   0.051
    1UNK    H0K   21  -0.088   0.012  -0.054
    1UNK    H0M   22  -0.088   0.188  -0.054
    1UNK    H0N   23  -0.070   0.188   0.196
    1UNK    H0O   24  -0.069   0.012   0.196
    1UNK    H0P   25  -0.298   0.011   0.092
    1UNK    H0Q   26  -0.298   0.188   0.092
    1UNK    H0R   27  -0.270   0.188   0.340
    1UNK    H0S   28  -0.269   0.012   0.340
    1UNK    H0T   29  -0.505   0.011   0.251
    1UNK    H0U   30  -0.505   0.187   0.251
    1UNK    H0V   31  -0.452   0.186   0.495
    1UNK    H0W   32  -0.462   0.008   0.496
    1UNK    H0X   33  -0.633   0.006   0.645
    1UNK    H0Y   34  -0.679   0.310   0.644
    1UNK    H0Z   35  -0.526   0.231   0.683
    1UNK    H10   36  -0.664   0.207   0.789
    1UNK    H11   37  -0.876   0.172   0.561
    1UNK    H12   38  -0.863   0.088   0.715
    1UNK    H13   39  -0.868  -0.044   0.439
    1UNK    H14   40  -0.821  -0.156   0.717
    1UNK    H15   41  -0.742  -0.196   0.564
    1UNK    H16   42  -0.904  -0.256   0.597
    1UNK    H17   43  -1.084   0.056   0.508
    1UNK    H18   44  -1.075  -0.026   0.664
    1UNK    H19   45  -1.076  -0.093   0.299
    1UNK    H1A   46  -1.197  -0.221   0.313
    1UNK    H1B   47  -1.025  -0.259   0.342
   1.00000   1.00000   1.00000

