
;
; GENERATED BY LigParGen Server
; Jorgensen Lab @ Yale University 
;
[ atomtypes ]
  opls_818  H818     1.0080     0.000    A    2.50000E-01   1.25520E-01
  opls_814  C814    12.0110     0.000    A    3.50000E-01   2.76144E-01
  opls_824  H824     1.0080     0.000    A    2.50000E-01   1.25520E-01
  opls_810  F810    18.9984     0.000    A    2.90000E-01   2.51040E-01
  opls_802  C802    12.0110     0.000    A    3.45000E-01   3.47272E-01
  opls_816  O816    15.9990     0.000    A    2.96000E-01   8.78640E-01
  opls_834  H834     1.0080     0.000    A    2.50000E-01   1.25520E-01
  opls_828  H828     1.0080     0.000    A    2.50000E-01   1.25520E-01
  opls_801  O801    15.9990     0.000    A    2.90000E-01   5.85760E-01
  opls_806  C806    12.0110     0.000    A    3.50000E-01   2.76144E-01
  opls_827  H827     1.0080     0.000    A    2.50000E-01   1.25520E-01
  opls_812  C812    12.0110     0.000    A    3.50000E-01   2.76144E-01
  opls_822  H822     1.0080     0.000    A    2.50000E-01   1.25520E-01
  opls_803  C803    12.0110     0.000    A    3.50000E-01   2.76144E-01
  opls_825  H825     1.0080     0.000    A    2.50000E-01   1.25520E-01
  opls_826  H826     1.0080     0.000    A    2.50000E-01   1.25520E-01
  opls_830  H830     1.0080     0.000    A    2.50000E-01   1.25520E-01
  opls_821  H821     1.0080     0.000    A    2.50000E-01   1.25520E-01
  opls_820  H820     1.0080     0.000    A    2.50000E-01   1.25520E-01
  opls_829  H829     1.0080     0.000    A    2.50000E-01   1.25520E-01
  opls_831  H831     1.0080     0.000    A    2.50000E-01   1.25520E-01
  opls_832  H832     1.0080     0.000    A    2.50000E-01   1.25520E-01
  opls_800  C800    12.0110     0.000    A    3.50000E-01   2.76144E-01
  opls_813  C813    12.0110     0.000    A    3.45000E-01   3.47272E-01
  opls_805  C805    12.0110     0.000    A    3.50000E-01   2.76144E-01
  opls_823  H823     1.0080     0.000    A    2.50000E-01   1.25520E-01
  opls_815  C815    12.0110     0.000    A    3.55000E-01   2.92880E-01
  opls_833  H833     1.0080     0.000    A    2.50000E-01   1.25520E-01
  opls_808  F808    18.9984     0.000    A    2.90000E-01   2.51040E-01
  opls_809  F809    18.9984     0.000    A    2.90000E-01   2.51040E-01
  opls_811  C811    12.0110     0.000    A    3.45000E-01   3.47272E-01
  opls_835  H835     1.0080     0.000    A    2.50000E-01   1.25520E-01
  opls_819  H819     1.0080     0.000    A    2.50000E-01   1.25520E-01
  opls_804  C804    12.0110     0.000    A    3.50000E-01   2.76144E-01
  opls_817  H817     1.0080     0.000    A    2.50000E-01   1.25520E-01
  opls_807  C807    12.0110     0.000    A    3.50000E-01   2.76144E-01
[ moleculetype ]
; Name               nrexcl
UNK                   3
[ atoms ]
;   nr       type  resnr residue  atom   cgnr     charge       mass  
     1   opls_800      1    UNK   C00      1    -0.0547    12.0110 
     2   opls_801      1    UNK   O01      1    -0.3504    15.9990 
     3   opls_802      1    UNK   C02      1     0.0826    12.0110 
     4   opls_803      1    UNK   C03      1    -0.1498    12.0110 
     5   opls_804      1    UNK   C04      1    -0.0972    12.0110 
     6   opls_805      1    UNK   C05      1    -0.2499    12.0110 
     7   opls_806      1    UNK   C06      1    -0.2669    12.0110 
     8   opls_807      1    UNK   C07      1     0.4544    12.0110 
     9   opls_808      1    UNK   F08      1    -0.1706    18.9984 
    10   opls_809      1    UNK   F09      1    -0.1706    18.9984 
    11   opls_810      1    UNK   F0A      1    -0.1706    18.9984 
    12   opls_811      1    UNK   C0B      1    -0.1733    12.0110 
    13   opls_812      1    UNK   C0C      1    -0.2079    12.0110 
    14   opls_813      1    UNK   C0D      1    -0.1796    12.0110 
    15   opls_814      1    UNK   C0E      1    -0.2263    12.0110 
    16   opls_815      1    UNK   C0F      1     0.2623    12.0110 
    17   opls_816      1    UNK   O0G      1    -0.3860    15.9990 
    18   opls_817      1    UNK   H0H      1     0.0873     1.0080 
    19   opls_818      1    UNK   H0I      1     0.0873     1.0080 
    20   opls_819      1    UNK   H0J      1     0.0873     1.0080 
    21   opls_820      1    UNK   H0K      1     0.1006     1.0080 
    22   opls_821      1    UNK   H0M      1     0.1006     1.0080 
    23   opls_822      1    UNK   H0N      1     0.1280     1.0080 
    24   opls_823      1    UNK   H0O      1     0.0937     1.0080 
    25   opls_824      1    UNK   H0P      1     0.0937     1.0080 
    26   opls_825      1    UNK   H0Q      1     0.0937     1.0080 
    27   opls_826      1    UNK   H0R      1     0.1306     1.0080 
    28   opls_827      1    UNK   H0S      1     0.1306     1.0080 
    29   opls_828      1    UNK   H0T      1     0.1341     1.0080 
    30   opls_829      1    UNK   H0U      1     0.0918     1.0080 
    31   opls_830      1    UNK   H0V      1     0.0918     1.0080 
    32   opls_831      1    UNK   H0W      1     0.0918     1.0080 
    33   opls_832      1    UNK   H0X      2     0.1584     1.0080 
    34   opls_833      1    UNK   H0Y      2     0.1237     1.0080 
    35   opls_834      1    UNK   H0Z      2     0.1237     1.0080 
    36   opls_835      1    UNK   H10      2     0.1057     1.0080 
[ bonds ]
    2     1     1      0.1410 267776.000
    3     2     1      0.1410 267776.000
    4     3     1      0.1510 234304.000
    5     4     1      0.1529 224262.400
    6     5     1      0.1529 224262.400
    7     5     1      0.1529 224262.400
    8     7     1      0.1529 224262.400
    9     8     1      0.1360 307105.600
   10     8     1      0.1360 307105.600
   11     8     1      0.1360 307105.600
   12     3     1      0.1520 217568.000
   13    12     1      0.1510 234304.000
   14     3     1      0.1520 217568.000
   15    14     1      0.1510 234304.000
   16    15     1      0.1522 265265.600
   17    16     1      0.1229 476976.000
   18     1     1      0.1090 284512.000
   19     1     1      0.1090 284512.000
   20     1     1      0.1090 284512.000
   21     4     1      0.1090 284512.000
   22     4     1      0.1090 284512.000
   23     5     1      0.1090 284512.000
   24     6     1      0.1090 284512.000
   25     6     1      0.1090 284512.000
   26     6     1      0.1090 284512.000
   27     7     1      0.1090 284512.000
   28     7     1      0.1090 284512.000
   29    12     1      0.1088 284512.000
   30    13     1      0.1090 284512.000
   31    13     1      0.1090 284512.000
   32    13     1      0.1090 284512.000
   33    14     1      0.1088 284512.000
   34    15     1      0.1090 284512.000
   35    15     1      0.1090 284512.000
   36    16     1      0.1090 284512.000
   14    12     1      0.1520 217568.000

[ angles ]
;  ai    aj    ak funct            c0            c1            c2            c3 
    1     2     3     1    109.500    502.080
    2     3     4     1    109.500    418.400
    3     4     5     1    112.700    488.273
    4     5     6     1    112.700    488.273
    4     5     7     1    112.700    488.273
    5     7     8     1    112.700    488.273
    7     8     9     1    109.500    418.400
    7     8    10     1    109.500    418.400
    7     8    11     1    109.500    418.400
    2     3    12     1    109.500    418.400
    3    12    13     1    117.200    313.800
    2     3    14     1    109.500    418.400
    3    14    15     1    117.200    313.800
   14    15    16     1    111.100    527.184
   15    16    17     1    120.400    669.440
    2     1    18     1    109.500    292.880
    2     1    19     1    109.500    292.880
    2     1    20     1    109.500    292.880
    3     4    21     1    110.700    313.800
    3     4    22     1    110.700    313.800
    4     5    23     1    110.700    313.800
    5     6    24     1    110.700    313.800
    5     6    25     1    110.700    313.800
    5     6    26     1    110.700    313.800
    5     7    27     1    110.700    313.800
    5     7    28     1    110.700    313.800
    3    12    29     1    117.200    313.800
   12    13    30     1    110.700    313.800
   12    13    31     1    110.700    313.800
   12    13    32     1    110.700    313.800
    3    14    33     1    117.200    313.800
   14    15    34     1    110.700    313.800
   14    15    35     1    110.700    313.800
   15    16    36     1    115.000    292.880
   15    14    33     1    114.300    292.880
   10     8    11     1    109.100    644.336
   13    12    14     1    117.200    313.800
   27     7    28     1    107.800    276.144
   18     1    20     1    107.800    276.144
   24     6    25     1    107.800    276.144
    5     4    22     1    110.700    313.800
    9     8    11     1    109.100    644.336
   14    12    29     1    117.200    313.800
   13    12    29     1    114.300    292.880
   12    14    15     1    117.200    313.800
    8     7    27     1    110.700    313.800
   17    16    36     1    123.000    292.880
   30    13    32     1    107.800    276.144
   12    14    33     1    117.200    313.800
   18     1    19     1    107.800    276.144
    3    14    12     1     83.000    251.040
   24     6    26     1    107.800    276.144
    6     5     7     1    112.700    488.273
   34    15    35     1    107.800    276.144
   21     4    22     1    107.800    276.144
   19     1    20     1    107.800    276.144
    3    12    14     1     83.000    251.040
   25     6    26     1    107.800    276.144
   12     3    14     1     83.000    251.040
    7     5    23     1    110.700    313.800
   16    15    34     1    109.500    292.880
    4     3    12     1    117.200    313.800
    4     3    14     1    117.200    313.800
    6     5    23     1    110.700    313.800
   31    13    32     1    107.800    276.144
    5     4    21     1    110.700    313.800
   16    15    35     1    109.500    292.880
    8     7    28     1    110.700    313.800
    9     8    10     1    109.100    644.336
   30    13    31     1    107.800    276.144

[ dihedrals ]
; IMPROPER DIHEDRAL ANGLES 
;  ai    aj    ak    al funct            c0            c1            c2            c3            c4            c5
    36    16    15    17    4        180.000     43.932     2  

[ dihedrals ]
; PROPER DIHEDRAL ANGLES
;  ai    aj    ak    al funct            c0            c1            c2            c3            c4            c5
   16   15   14   12        3      -4.960   6.286   1.310  -2.636  -0.000   0.000
   16   15   14    3        3      -4.960   6.286   1.310  -2.636  -0.000   0.000
    8    7    5    4        3       2.301  -1.464   0.837  -1.674  -0.000   0.000
    8    7    5    6        3       2.301  -1.464   0.837  -1.674  -0.000   0.000
    6    5    4    3        3       2.301  -1.464   0.837  -1.674  -0.000   0.000
    7    5    4    3        3       2.301  -1.464   0.837  -1.674  -0.000   0.000
    5    4    3    2        3      -1.157  -3.471   0.000   4.628  -0.000   0.000
   15   14   12   13        3       0.000   0.000   0.000  -0.000  -0.000   0.000
   13   12    3    4        3       0.000   0.000   0.000  -0.000  -0.000   0.000
   15   14    3    4        3       0.000   0.000   0.000  -0.000  -0.000   0.000
   15   14   12    3        3       0.000   0.000   0.000  -0.000  -0.000   0.000
   13   12   14    3        3       0.000   0.000   0.000  -0.000  -0.000   0.000
   15   14    3   12        3       0.000   0.000   0.000  -0.000  -0.000   0.000
   13   12    3    2        3       0.000   0.000   0.000  -0.000  -0.000   0.000
   15   14    3    2        3       0.000   0.000   0.000  -0.000  -0.000   0.000
    4    3    2    1        3       1.715   2.845   1.046  -5.607  -0.000   0.000
   12    3    4    5        3       0.000   0.000   0.000  -0.000  -0.000   0.000
   14    3    4    5        3       0.000   0.000   0.000  -0.000  -0.000   0.000
   14    3    2    1        3       1.715   2.845   1.046  -5.607  -0.000   0.000
   12    3    2    1        3       1.715   2.845   1.046  -5.607  -0.000   0.000
    9    8    7    5        3       0.000   0.000   0.000  -0.000  -0.000   0.000
   11    8    7    5        3       0.000   0.000   0.000  -0.000  -0.000   0.000
   10    8    7    5        3       0.000   0.000   0.000  -0.000  -0.000   0.000
   36   16   15   14        3       0.000   0.000   0.000  -0.000  -0.000   0.000
   36   16   15   34        3       0.753   2.259   0.000  -3.012  -0.000   0.000
   36   16   15   35        3       0.753   2.259   0.000  -3.012  -0.000   0.000
   35   15   16   17        3       0.000   0.000   0.000  -0.000  -0.000   0.000
   34   15   16   17        3       0.000   0.000   0.000  -0.000  -0.000   0.000
   28    7    8    9        3       0.753   2.259   0.000  -3.012  -0.000   0.000
   27    7    8   10        3       0.753   2.259   0.000  -3.012  -0.000   0.000
   27    7    8   11        3       0.753   2.259   0.000  -3.012  -0.000   0.000
   27    7    8    9        3       0.753   2.259   0.000  -3.012  -0.000   0.000
   28    7    8   11        3       0.753   2.259   0.000  -3.012  -0.000   0.000
   28    7    8   10        3       0.753   2.259   0.000  -3.012  -0.000   0.000
   23    5    7    8        3       0.628   1.883   0.000  -2.510  -0.000   0.000
   24    6    5    4        3       0.628   1.883   0.000  -2.510  -0.000   0.000
   24    6    5    7        3       0.628   1.883   0.000  -2.510  -0.000   0.000
   26    6    5    7        3       0.628   1.883   0.000  -2.510  -0.000   0.000
   22    4    5    7        3       0.628   1.883   0.000  -2.510  -0.000   0.000
   26    6    5    4        3       0.628   1.883   0.000  -2.510  -0.000   0.000
   21    4    5    7        3       0.628   1.883   0.000  -2.510  -0.000   0.000
   27    7    5    4        3       0.628   1.883   0.000  -2.510  -0.000   0.000
   28    7    5    4        3       0.628   1.883   0.000  -2.510  -0.000   0.000
   22    4    5    6        3       0.628   1.883   0.000  -2.510  -0.000   0.000
   21    4    5    6        3       0.628   1.883   0.000  -2.510  -0.000   0.000
   25    6    5    7        3       0.628   1.883   0.000  -2.510  -0.000   0.000
   27    7    5    6        3       0.628   1.883   0.000  -2.510  -0.000   0.000
   25    6    5    4        3       0.628   1.883   0.000  -2.510  -0.000   0.000
   28    7    5    6        3       0.628   1.883   0.000  -2.510  -0.000   0.000
   23    5    4    3        3       0.628   1.883   0.000  -2.510  -0.000   0.000
   26    6    5   23        3       0.628   1.883   0.000  -2.510  -0.000   0.000
   27    7    5   23        3       0.628   1.883   0.000  -2.510  -0.000   0.000
   23    5    4   22        3       0.628   1.883   0.000  -2.510  -0.000   0.000
   24    6    5   23        3       0.628   1.883   0.000  -2.510  -0.000   0.000
   23    5    4   21        3       0.628   1.883   0.000  -2.510  -0.000   0.000
   25    6    5   23        3       0.628   1.883   0.000  -2.510  -0.000   0.000
   28    7    5   23        3       0.628   1.883   0.000  -2.510  -0.000   0.000
   35   15   14   12        3       0.628   1.883   0.000  -2.510  -0.000   0.000
   31   13   12   14        3       0.628   1.883   0.000  -2.510  -0.000   0.000
   30   13   12    3        3       0.628   1.883   0.000  -2.510  -0.000   0.000
   34   15   14   12        3       0.628   1.883   0.000  -2.510  -0.000   0.000
   32   13   12   14        3       0.628   1.883   0.000  -2.510  -0.000   0.000
   21    4    3   14        3       0.628   1.883   0.000  -2.510  -0.000   0.000
   32   13   12    3        3       0.628   1.883   0.000  -2.510  -0.000   0.000
   21    4    3   12        3       0.628   1.883   0.000  -2.510  -0.000   0.000
   35   15   14    3        3       0.628   1.883   0.000  -2.510  -0.000   0.000
   22    4    3   14        3       0.628   1.883   0.000  -2.510  -0.000   0.000
   22    4    3   12        3       0.628   1.883   0.000  -2.510  -0.000   0.000
   34   15   14    3        3       0.628   1.883   0.000  -2.510  -0.000   0.000
   30   13   12   14        3       0.628   1.883   0.000  -2.510  -0.000   0.000
   31   13   12    3        3       0.628   1.883   0.000  -2.510  -0.000   0.000
   34   15   14   33        3       0.628   1.883   0.000  -2.510  -0.000   0.000
   31   13   12   29        3       0.628   1.883   0.000  -2.510  -0.000   0.000
   30   13   12   29        3       0.628   1.883   0.000  -2.510  -0.000   0.000
   35   15   14   33        3       0.628   1.883   0.000  -2.510  -0.000   0.000
   32   13   12   29        3       0.628   1.883   0.000  -2.510  -0.000   0.000
   22    4    3    2        3       0.979   2.937   0.000  -3.916  -0.000   0.000
   21    4    3    2        3       0.979   2.937   0.000  -3.916  -0.000   0.000
   19    1    2    3        3       1.590   4.770   0.000  -6.360  -0.000   0.000
   20    1    2    3        3       1.590   4.770   0.000  -6.360  -0.000   0.000
   18    1    2    3        3       1.590   4.770   0.000  -6.360  -0.000   0.000
   33   14   15   16        3      -0.209  -0.628   0.000   0.837  -0.000   0.000
   29   12    3    4        3       0.000   0.000   0.000  -0.000  -0.000   0.000
   33   14    3    4        3       0.000   0.000   0.000  -0.000  -0.000   0.000
   33   14   12   13        3       0.000   0.000   0.000  -0.000  -0.000   0.000
   29   12   14   15        3       0.000   0.000   0.000  -0.000  -0.000   0.000
   33   14    3   12        3       0.000   0.000   0.000  -0.000  -0.000   0.000
   29   12    3   14        3       0.000   0.000   0.000  -0.000  -0.000   0.000
   33   14   12    3        3       0.000   0.000   0.000  -0.000  -0.000   0.000
   29   12   14    3        3       0.000   0.000   0.000  -0.000  -0.000   0.000
   33   14   12   29        3       0.000   0.000   0.000  -0.000  -0.000   0.000
   33   14    3    2        3       0.000   0.000   0.000  -0.000  -0.000   0.000
   29   12    3    2        3       0.000   0.000   0.000  -0.000  -0.000   0.000
   17   16   15   14        3       0.000   0.000   0.000  -0.000  -0.000   0.000

[ pairs ]
     1     4    1
     2     5    1
     3     6    1
     3     7    1
     4     8    1
     1    12    1
     6     8    1
     5     9    1
     5    10    1
     2    13    1
     1    14    1
     5    11    1
     5    12    1
     4    13    1
     2    15    1
     5    14    1
     4    15    1
     3    16    1
     3    18    1
     3    19    1
     3    20    1
     2    21    1
     2    22    1
     3    23    1
     6    21    1
    13    15    1
    12    16    1
     7    21    1
     6    22    1
     4    24    1
     7    22    1
     4    25    1
     4    26    1
    14    17    1
     8    23    1
     7    24    1
     4    27    1
     2    29    1
     7    25    1
     4    28    1
    12    21    1
     7    26    1
     6    27    1
     4    29    1
     3    30    1
    12    22    1
     6    28    1
     3    31    1
    14    21    1
     3    32    1
     2    33    1
    14    22    1
     9    27    1
    10    27    1
     9    28    1
     4    33    1
     3    34    1
    11    27    1
    10    28    1
     3    35    1
    11    28    1
    21    23    1
    15    29    1
    14    30    1
    22    23    1
    14    31    1
    14    32    1
    13    33    1
    12    34    1
    23    24    1
    12    35    1
    23    25    1
    23    26    1
    16    33    1
    23    27    1
    14    36    1
    23    28    1
    17    34    1
    17    35    1
    29    30    1
    29    31    1
    29    32    1
    29    33    1
    33    34    1
    33    35    1
    34    36    1
    35    36    1

