LIGPARGEN GENERATED GRO FILE
   36
    1UNK    C00    1   0.100   0.100   0.000
    1UNK    O01    2  -0.042   0.100   0.000
    1UNK    C02    3  -0.104   0.100   0.132
    1UNK    C03    4  -0.084   0.228   0.210
    1UNK    C04    5  -0.127   0.356   0.133
    1UNK    C05    6  -0.279   0.364   0.113
    1UNK    C06    7  -0.074   0.481   0.205
    1UNK    C07    8  -0.114   0.615   0.144
    1UNK    F08    9  -0.163   0.605   0.019
    1UNK    F09   10  -0.207   0.676   0.221
    1UNK    F0A   11  -0.007   0.698   0.138
    1UNK    C0B   12  -0.240   0.033   0.136
    1UNK    C0C   13  -0.305  -0.022   0.014
    1UNK    C0D   14  -0.121  -0.038   0.196
    1UNK    C0E   15  -0.137  -0.070   0.342
    1UNK    C0F   16  -0.024  -0.150   0.401
    1UNK    O0G   17   0.091  -0.148   0.358
    1UNK    H0H   18   0.134   0.083  -0.102
    1UNK    H0I   19   0.140   0.021   0.064
    1UNK    H0J   20   0.138   0.198   0.032
    1UNK    H0K   21   0.023   0.236   0.234
    1UNK    H0M   22  -0.136   0.224   0.306
    1UNK    H0N   23  -0.081   0.353   0.033
    1UNK    H0O   24  -0.328   0.411   0.199
    1UNK    H0P   25  -0.325   0.266   0.098
    1UNK    H0Q   26  -0.303   0.422   0.024
    1UNK    H0R   27   0.036   0.476   0.209
    1UNK    H0S   28  -0.108   0.480   0.309
    1UNK    H0T   29  -0.314   0.074   0.204
    1UNK    H0U   30  -0.235  -0.070  -0.054
    1UNK    H0V   31  -0.357   0.058  -0.040
    1UNK    H0W   32  -0.380  -0.096   0.044
    1UNK    H0X   33  -0.081  -0.123   0.141
    1UNK    H0Y   34  -0.226  -0.134   0.352
    1UNK    H0Z   35  -0.153   0.018   0.404
    1UNK    H10   36  -0.050  -0.208   0.491
   1.00000   1.00000   1.00000

