LIGPARGEN GENERATED GRO FILE
   31
    1UNK    C00    1   0.100   0.100   0.000
    1UNK    C01    2  -0.052   0.100   0.000
    1UNK    C02    3  -0.116   0.100   0.141
    1UNK    C03    4  -0.069   0.223   0.216
    1UNK    N04    5  -0.030   0.325   0.279
    1UNK    C05    6  -0.270   0.102   0.131
    1UNK    C06    7  -0.333  -0.021   0.059
    1UNK    C07    8  -0.298  -0.154   0.127
    1UNK    C08    9  -0.362  -0.166   0.265
    1UNK    C09   10  -0.514  -0.146   0.259
    1UNK    C0A   11  -0.555  -0.020   0.184
    1UNK    C0B   12  -0.485  -0.007   0.049
    1UNK    H0C   13   0.137   0.095  -0.103
    1UNK    H0D   14   0.139   0.013   0.054
    1UNK    H0E   15   0.141   0.191   0.045
    1UNK    H0F   16  -0.084   0.011  -0.055
    1UNK    H0G   17  -0.087   0.187  -0.057
    1UNK    H0H   18  -0.082   0.012   0.197
    1UNK    H0I   19  -0.301   0.193   0.078
    1UNK    H0J   20  -0.311   0.112   0.232
    1UNK    H0K   21  -0.295  -0.024  -0.043
    1UNK    H0M   22  -0.190  -0.168   0.135
    1UNK    H0N   23  -0.335  -0.236   0.064
    1UNK    H0O   24  -0.318  -0.092   0.333
    1UNK    H0P   25  -0.340  -0.265   0.307
    1UNK    H0Q   26  -0.554  -0.143   0.360
    1UNK    H0R   27  -0.558  -0.233   0.209
    1UNK    H0S   28  -0.533   0.068   0.245
    1UNK    H0T   29  -0.663  -0.020   0.169
    1UNK    H0U   30  -0.512   0.089   0.003
    1UNK    H0V   31  -0.524  -0.085  -0.017
   1.00000   1.00000   1.00000

