LIGPARGEN GENERATED GRO FILE
   48
    1UNK    C00    1   0.100   0.100   0.000
    1UNK    C01    2  -0.052   0.100   0.000
    1UNK    C02    3  -0.116   0.100   0.141
    1UNK    C03    4  -0.060   0.212   0.233
    1UNK    C04    5  -0.093   0.354   0.190
    1UNK    C05    6  -0.271   0.109   0.133
    1UNK    C06    7  -0.345  -0.007   0.060
    1UNK    C07    8  -0.314  -0.141   0.130
    1UNK    C08    9  -0.501   0.021   0.042
    1UNK    C09   10  -0.569  -0.101  -0.025
    1UNK    C0A   11  -0.570   0.041   0.182
    1UNK    C0B   12  -0.719   0.068   0.169
    1UNK    N0C   13  -0.842   0.090   0.158
    1UNK    C0D   14  -0.527   0.151  -0.043
    1UNK    C0E   15  -0.463   0.167  -0.183
    1UNK    C0F   16  -0.516   0.068  -0.287
    1UNK    C0G   17  -0.493   0.309  -0.233
    1UNK    H0H   18   0.138   0.083  -0.101
    1UNK    H0I   19   0.140   0.021   0.065
    1UNK    H0J   20   0.140   0.196   0.034
    1UNK    H0K   21  -0.085   0.010  -0.054
    1UNK    H0M   22  -0.088   0.186  -0.058
    1UNK    H0N   23  -0.088   0.005   0.189
    1UNK    H0O   24   0.048   0.201   0.242
    1UNK    H0P   25  -0.099   0.197   0.334
    1UNK    H0Q   26  -0.076   0.370   0.083
    1UNK    H0R   27  -0.031   0.425   0.245
    1UNK    H0S   28  -0.198   0.378   0.211
    1UNK    H0T   29  -0.296   0.203   0.085
    1UNK    H0U   30  -0.308   0.115   0.236
    1UNK    H0V   31  -0.304  -0.016  -0.041
    1UNK    H0W   32  -0.333  -0.135   0.238
    1UNK    H0X   33  -0.209  -0.168   0.116
    1UNK    H0Y   34  -0.372  -0.224   0.090
    1UNK    H0Z   35  -0.582  -0.184   0.045
    1UNK    H10   36  -0.511  -0.139  -0.109
    1UNK    H11   37  -0.670  -0.076  -0.062
    1UNK    H12   38  -0.526   0.127   0.235
    1UNK    H13   39  -0.556  -0.047   0.245
    1UNK    H14   40  -0.496   0.237   0.017
    1UNK    H15   41  -0.635   0.163  -0.056
    1UNK    H16   42  -0.355   0.157  -0.177
    1UNK    H17   43  -0.624   0.050  -0.275
    1UNK    H18   44  -0.464  -0.028  -0.280
    1UNK    H19   45  -0.500   0.104  -0.389
    1UNK    H1A   46  -0.601   0.327  -0.241
    1UNK    H1B   47  -0.449   0.327  -0.332
    1UNK    H1C   48  -0.451   0.383  -0.165
   1.00000   1.00000   1.00000

