
;
; GENERATED BY LigParGen Server
; Jorgensen Lab @ Yale University 
;
[ atomtypes ]
  opls_818  H818     1.0080     0.000    A    2.50000E-01   1.25520E-01
  opls_814  C814    12.0110     0.000    A    3.50000E-01   2.76144E-01
  opls_811  C811    12.0110     0.000    A    3.30000E-01   2.76144E-01
  opls_824  H824     1.0080     0.000    A    2.50000E-01   1.25520E-01
  opls_805  C805    12.0110     0.000    A    3.50000E-01   2.76144E-01
  opls_843  H843     1.0080     0.000    A    2.50000E-01   1.25520E-01
  opls_836  H836     1.0080     0.000    A    2.50000E-01   1.25520E-01
  opls_834  H834     1.0080     0.000    A    2.50000E-01   1.25520E-01
  opls_810  C810    12.0110     0.000    A    3.50000E-01   2.76144E-01
  opls_828  H828     1.0080     0.000    A    2.50000E-01   1.25520E-01
  opls_844  H844     1.0080     0.000    A    2.50000E-01   1.25520E-01
  opls_802  C802    12.0110     0.000    A    3.50000E-01   2.76144E-01
  opls_827  H827     1.0080     0.000    A    2.50000E-01   1.25520E-01
  opls_809  C809    12.0110     0.000    A    3.50000E-01   2.76144E-01
  opls_806  C806    12.0110     0.000    A    3.50000E-01   2.76144E-01
  opls_822  H822     1.0080     0.000    A    2.50000E-01   1.25520E-01
  opls_803  C803    12.0110     0.000    A    3.50000E-01   2.76144E-01
  opls_838  H838     1.0080     0.000    A    2.50000E-01   1.25520E-01
  opls_825  H825     1.0080     0.000    A    2.50000E-01   1.25520E-01
  opls_830  H830     1.0080     0.000    A    2.50000E-01   1.25520E-01
  opls_804  C804    12.0110     0.000    A    3.50000E-01   2.76144E-01
  opls_842  H842     1.0080     0.000    A    2.50000E-01   1.25520E-01
  opls_820  H820     1.0080     0.000    A    2.50000E-01   1.25520E-01
  opls_837  H837     1.0080     0.000    A    2.50000E-01   1.25520E-01
  opls_821  H821     1.0080     0.000    A    2.50000E-01   1.25520E-01
  opls_831  H831     1.0080     0.000    A    2.50000E-01   1.25520E-01
  opls_812  N812    14.0070     0.000    A    3.20000E-01   7.11280E-01
  opls_832  H832     1.0080     0.000    A    2.50000E-01   1.25520E-01
  opls_800  C800    12.0110     0.000    A    3.50000E-01   2.76144E-01
  opls_846  H846     1.0080     0.000    A    2.50000E-01   1.25520E-01
  opls_815  C815    12.0110     0.000    A    3.50000E-01   2.76144E-01
  opls_823  H823     1.0080     0.000    A    2.50000E-01   1.25520E-01
  opls_813  C813    12.0110     0.000    A    3.50000E-01   2.76144E-01
  opls_826  H826     1.0080     0.000    A    2.50000E-01   1.25520E-01
  opls_835  H835     1.0080     0.000    A    2.50000E-01   1.25520E-01
  opls_841  H841     1.0080     0.000    A    2.50000E-01   1.25520E-01
  opls_847  H847     1.0080     0.000    A    2.50000E-01   1.25520E-01
  opls_819  H819     1.0080     0.000    A    2.50000E-01   1.25520E-01
  opls_816  C816    12.0110     0.000    A    3.50000E-01   2.76144E-01
  opls_833  H833     1.0080     0.000    A    2.50000E-01   1.25520E-01
  opls_839  H839     1.0080     0.000    A    2.50000E-01   1.25520E-01
  opls_801  C801    12.0110     0.000    A    3.50000E-01   2.76144E-01
  opls_808  C808    12.0110     0.000    A    3.50000E-01   2.76144E-01
  opls_817  H817     1.0080     0.000    A    2.50000E-01   1.25520E-01
  opls_829  H829     1.0080     0.000    A    2.50000E-01   1.25520E-01
  opls_840  H840     1.0080     0.000    A    2.50000E-01   1.25520E-01
  opls_845  H845     1.0080     0.000    A    2.50000E-01   1.25520E-01
  opls_807  C807    12.0110     0.000    A    3.50000E-01   2.76144E-01
[ moleculetype ]
; Name               nrexcl
UNK                   3
[ atoms ]
;   nr       type  resnr residue  atom   cgnr     charge       mass  
     1   opls_800      1    UNK   C00      1    -0.2385    12.0110 
     2   opls_801      1    UNK   C01      1    -0.1733    12.0110 
     3   opls_802      1    UNK   C02      1     -0.106    12.0110 
     4   opls_803      1    UNK   C03      1    -0.1733    12.0110 
     5   opls_804      1    UNK   C04      1     -0.237    12.0110 
     6   opls_805      1    UNK   C05      1    -0.1746    12.0110 
     7   opls_806      1    UNK   C06      1    -0.1017    12.0110 
     8   opls_807      1    UNK   C07      1    -0.2413    12.0110 
     9   opls_808      1    UNK   C08      1    -0.0287    12.0110 
    10   opls_809      1    UNK   C09      1    -0.2373    12.0110 
    11   opls_810      1    UNK   C0A      1    -0.0397    12.0110 
    12   opls_811      1    UNK   C0B      1     0.1334    12.0110 
    13   opls_812      1    UNK   N0C      1    -0.4043    14.0070 
    14   opls_813      1    UNK   C0D      1    -0.1696    12.0110 
    15   opls_814      1    UNK   C0E      1    -0.1094    12.0110 
    16   opls_815      1    UNK   C0F      1     -0.235    12.0110 
    17   opls_816      1    UNK   C0G      1    -0.2409    12.0110 
    18   opls_817      1    UNK   H0H      1     0.0815     1.0080 
    19   opls_818      1    UNK   H0I      1     0.0815     1.0080 
    20   opls_819      1    UNK   H0J      1     0.0815     1.0080 
    21   opls_820      1    UNK   H0K      1     0.0877     1.0080 
    22   opls_821      1    UNK   H0M      1     0.0877     1.0080 
    23   opls_822      1    UNK   H0N      1     0.0946     1.0080 
    24   opls_823      1    UNK   H0O      1     0.0875     1.0080 
    25   opls_824      1    UNK   H0P      1     0.0875     1.0080 
    26   opls_825      1    UNK   H0Q      1     0.0813     1.0080 
    27   opls_826      1    UNK   H0R      1     0.0813     1.0080 
    28   opls_827      1    UNK   H0S      1     0.0813     1.0080 
    29   opls_828      1    UNK   H0T      1     0.0896     1.0080 
    30   opls_829      1    UNK   H0U      1     0.0896     1.0080 
    31   opls_830      1    UNK   H0V      1     0.1067     1.0080 
    32   opls_831      1    UNK   H0W      1     0.0838     1.0080 
    33   opls_832      1    UNK   H0X      2     0.0838     1.0080 
    34   opls_833      1    UNK   H0Y      2     0.0838     1.0080 
    35   opls_834      1    UNK   H0Z      2     0.0893     1.0080 
    36   opls_835      1    UNK   H10      2     0.0893     1.0080 
    37   opls_836      1    UNK   H11      2     0.0893     1.0080 
    38   opls_837      1    UNK   H12      2     0.1286     1.0080 
    39   opls_838      1    UNK   H13      2     0.1286     1.0080 
    40   opls_839      1    UNK   H14      2     0.0931     1.0080 
    41   opls_840      1    UNK   H15      2     0.0931     1.0080 
    42   opls_841      1    UNK   H16      2     0.0991     1.0080 
    43   opls_842      1    UNK   H17      2     0.0824     1.0080 
    44   opls_843      1    UNK   H18      2     0.0824     1.0080 
    45   opls_844      1    UNK   H19      2     0.0824     1.0080 
    46   opls_845      1    UNK   H1A      2     0.0829     1.0080 
    47   opls_846      1    UNK   H1B      2     0.0829     1.0080 
    48   opls_847      1    UNK   H1C      2     0.0829     1.0080 
[ bonds ]
    2     1     1      0.1529 224262.400
    3     2     1      0.1529 224262.400
    4     3     1      0.1529 224262.400
    5     4     1      0.1529 224262.400
    6     3     1      0.1529 224262.400
    7     6     1      0.1529 224262.400
    8     7     1      0.1529 224262.400
    9     7     1      0.1529 224262.400
   10     9     1      0.1529 224262.400
   11     9     1      0.1529 224262.400
   12    11     1      0.1470 326352.000
   13    12     1      0.1157 543920.000
   14     9     1      0.1529 224262.400
   15    14     1      0.1529 224262.400
   16    15     1      0.1529 224262.400
   17    15     1      0.1529 224262.400
   18     1     1      0.1090 284512.000
   19     1     1      0.1090 284512.000
   20     1     1      0.1090 284512.000
   21     2     1      0.1090 284512.000
   22     2     1      0.1090 284512.000
   23     3     1      0.1090 284512.000
   24     4     1      0.1090 284512.000
   25     4     1      0.1090 284512.000
   26     5     1      0.1090 284512.000
   27     5     1      0.1090 284512.000
   28     5     1      0.1090 284512.000
   29     6     1      0.1090 284512.000
   30     6     1      0.1090 284512.000
   31     7     1      0.1090 284512.000
   32     8     1      0.1090 284512.000
   33     8     1      0.1090 284512.000
   34     8     1      0.1090 284512.000
   35    10     1      0.1090 284512.000
   36    10     1      0.1090 284512.000
   37    10     1      0.1090 284512.000
   38    11     1      0.1090 284512.000
   39    11     1      0.1090 284512.000
   40    14     1      0.1090 284512.000
   41    14     1      0.1090 284512.000
   42    15     1      0.1090 284512.000
   43    16     1      0.1090 284512.000
   44    16     1      0.1090 284512.000
   45    16     1      0.1090 284512.000
   46    17     1      0.1090 284512.000
   47    17     1      0.1090 284512.000
   48    17     1      0.1090 284512.000

[ angles ]
;  ai    aj    ak funct            c0            c1            c2            c3 
    1     2     3     1    112.700    488.273
    2     3     4     1    112.700    488.273
    3     4     5     1    112.700    488.273
    2     3     6     1    112.700    488.273
    3     6     7     1    112.700    488.273
    6     7     8     1    112.700    488.273
    6     7     9     1    112.700    488.273
    7     9    10     1    112.700    488.273
    7     9    11     1    112.700    488.273
    9    11    12     1    112.700    488.273
   11    12    13     1    180.000   1255.200
    7     9    14     1    112.700    488.273
    9    14    15     1    112.700    488.273
   14    15    16     1    112.700    488.273
   14    15    17     1    112.700    488.273
    2     1    18     1    110.700    313.800
    2     1    19     1    110.700    313.800
    2     1    20     1    110.700    313.800
    1     2    21     1    110.700    313.800
    1     2    22     1    110.700    313.800
    2     3    23     1    110.700    313.800
    3     4    24     1    110.700    313.800
    3     4    25     1    110.700    313.800
    4     5    26     1    110.700    313.800
    4     5    27     1    110.700    313.800
    4     5    28     1    110.700    313.800
    3     6    29     1    110.700    313.800
    3     6    30     1    110.700    313.800
    6     7    31     1    110.700    313.800
    7     8    32     1    110.700    313.800
    7     8    33     1    110.700    313.800
    7     8    34     1    110.700    313.800
    9    10    35     1    110.700    313.800
    9    10    36     1    110.700    313.800
    9    10    37     1    110.700    313.800
    9    11    38     1    110.700    313.800
    9    11    39     1    110.700    313.800
    9    14    40     1    110.700    313.800
    9    14    41     1    110.700    313.800
   14    15    42     1    110.700    313.800
   15    16    43     1    110.700    313.800
   15    16    44     1    110.700    313.800
   15    16    45     1    110.700    313.800
   15    17    46     1    110.700    313.800
   15    17    47     1    110.700    313.800
   15    17    48     1    110.700    313.800
   43    16    45     1    107.800    276.144
   11     9    14     1    112.700    488.273
   32     8    34     1    107.800    276.144
    4     3    23     1    110.700    313.800
   15    14    40     1    110.700    313.800
   46    17    48     1    107.800    276.144
   16    15    42     1    110.700    313.800
   16    15    17     1    112.700    488.273
   35    10    36     1    107.800    276.144
   12    11    38     1    108.500    292.880
   18     1    19     1    107.800    276.144
   40    14    41     1    107.800    276.144
   24     4    25     1    107.800    276.144
    5     4    24     1    110.700    313.800
   27     5    28     1    107.800    276.144
    8     7     9     1    112.700    488.273
   15    14    41     1    110.700    313.800
   38    11    39     1    107.800    276.144
   44    16    45     1    107.800    276.144
   12    11    39     1    108.500    292.880
    5     4    25     1    110.700    313.800
    8     7    31     1    110.700    313.800
   21     2    22     1    107.800    276.144
   17    15    42     1    110.700    313.800
   47    17    48     1    107.800    276.144
   32     8    33     1    107.800    276.144
    6     3    23     1    110.700    313.800
    9     7    31     1    110.700    313.800
   33     8    34     1    107.800    276.144
   35    10    37     1    107.800    276.144
   43    16    44     1    107.800    276.144
   26     5    28     1    107.800    276.144
    7     6    29     1    110.700    313.800
   29     6    30     1    107.800    276.144
   18     1    20     1    107.800    276.144
   46    17    47     1    107.800    276.144
   10     9    14     1    112.700    488.273
    3     2    21     1    110.700    313.800
    7     6    30     1    110.700    313.800
    3     2    22     1    110.700    313.800
   26     5    27     1    107.800    276.144
    4     3     6     1    112.700    488.273
   10     9    11     1    112.700    488.273
   19     1    20     1    107.800    276.144
   36    10    37     1    107.800    276.144

[ dihedrals ]
; IMPROPER DIHEDRAL ANGLES 
;  ai    aj    ak    al funct            c0            c1            c2            c3            c4            c5

[ dihedrals ]
; PROPER DIHEDRAL ANGLES
;  ai    aj    ak    al funct            c0            c1            c2            c3            c4            c5
    4    3    2    1        3       2.301  -1.464   0.837  -1.674  -0.000   0.000
   15   14    9   11        3       2.301  -1.464   0.837  -1.674  -0.000   0.000
    6    3    2    1        3       2.301  -1.464   0.837  -1.674  -0.000   0.000
   17   15   14    9        3       2.301  -1.464   0.837  -1.674  -0.000   0.000
    7    6    3    4        3       2.301  -1.464   0.837  -1.674  -0.000   0.000
    6    3    4    5        3       2.301  -1.464   0.837  -1.674  -0.000   0.000
   15   14    9   10        3       2.301  -1.464   0.837  -1.674  -0.000   0.000
   14    9    7    8        3       2.301  -1.464   0.837  -1.674  -0.000   0.000
   11    9    7    8        3       2.301  -1.464   0.837  -1.674  -0.000   0.000
   14    9    7    6        3       2.301  -1.464   0.837  -1.674  -0.000   0.000
   11    9    7    6        3       2.301  -1.464   0.837  -1.674  -0.000   0.000
   10    9    7    8        3       2.301  -1.464   0.837  -1.674  -0.000   0.000
    9    7    6    3        3       2.301  -1.464   0.837  -1.674  -0.000   0.000
    5    4    3    2        3       2.301  -1.464   0.837  -1.674  -0.000   0.000
   10    9    7    6        3       2.301  -1.464   0.837  -1.674  -0.000   0.000
    8    7    6    3        3       2.301  -1.464   0.837  -1.674  -0.000   0.000
    7    6    3    2        3       2.301  -1.464   0.837  -1.674  -0.000   0.000
   15   14    9    7        3       2.301  -1.464   0.837  -1.674  -0.000   0.000
   16   15   14    9        3       2.301  -1.464   0.837  -1.674  -0.000   0.000
   14    9   11   12        3      -2.720   0.000   2.720  -0.000  -0.000   0.000
   12   11    9   10        3      -2.720   0.000   2.720  -0.000  -0.000   0.000
   12   11    9    7        3      -2.720   0.000   2.720  -0.000  -0.000   0.000
   33    8    7    6        3       0.628   1.883   0.000  -2.510  -0.000   0.000
   37   10    9   14        3       0.628   1.883   0.000  -2.510  -0.000   0.000
   40   14   15   16        3       0.628   1.883   0.000  -2.510  -0.000   0.000
   30    6    7    9        3       0.628   1.883   0.000  -2.510  -0.000   0.000
   29    6    7    8        3       0.628   1.883   0.000  -2.510  -0.000   0.000
   29    6    3    4        3       0.628   1.883   0.000  -2.510  -0.000   0.000
   48   17   15   16        3       0.628   1.883   0.000  -2.510  -0.000   0.000
   48   17   15   14        3       0.628   1.883   0.000  -2.510  -0.000   0.000
   40   14    9   11        3       0.628   1.883   0.000  -2.510  -0.000   0.000
   43   16   15   17        3       0.628   1.883   0.000  -2.510  -0.000   0.000
   39   11    9   14        3       0.628   1.883   0.000  -2.510  -0.000   0.000
   22    2    3    6        3       0.628   1.883   0.000  -2.510  -0.000   0.000
   25    4    3    6        3       0.628   1.883   0.000  -2.510  -0.000   0.000
   44   16   15   14        3       0.628   1.883   0.000  -2.510  -0.000   0.000
   36   10    9   11        3       0.628   1.883   0.000  -2.510  -0.000   0.000
   47   17   15   14        3       0.628   1.883   0.000  -2.510  -0.000   0.000
   30    6    7    8        3       0.628   1.883   0.000  -2.510  -0.000   0.000
   40   14    9   10        3       0.628   1.883   0.000  -2.510  -0.000   0.000
   41   14    9   10        3       0.628   1.883   0.000  -2.510  -0.000   0.000
   24    4    3    2        3       0.628   1.883   0.000  -2.510  -0.000   0.000
   18    1    2    3        3       0.628   1.883   0.000  -2.510  -0.000   0.000
   21    2    3    6        3       0.628   1.883   0.000  -2.510  -0.000   0.000
   31    7    9   11        3       0.628   1.883   0.000  -2.510  -0.000   0.000
   46   17   15   16        3       0.628   1.883   0.000  -2.510  -0.000   0.000
   25    4    3    2        3       0.628   1.883   0.000  -2.510  -0.000   0.000
   44   16   15   17        3       0.628   1.883   0.000  -2.510  -0.000   0.000
   24    4    3    6        3       0.628   1.883   0.000  -2.510  -0.000   0.000
   22    2    3    4        3       0.628   1.883   0.000  -2.510  -0.000   0.000
   30    6    3    4        3       0.628   1.883   0.000  -2.510  -0.000   0.000
   27    5    4    3        3       0.628   1.883   0.000  -2.510  -0.000   0.000
   31    7    6    3        3       0.628   1.883   0.000  -2.510  -0.000   0.000
   41   14    9    7        3       0.628   1.883   0.000  -2.510  -0.000   0.000
   37   10    9    7        3       0.628   1.883   0.000  -2.510  -0.000   0.000
   40   14   15   17        3       0.628   1.883   0.000  -2.510  -0.000   0.000
   20    1    2    3        3       0.628   1.883   0.000  -2.510  -0.000   0.000
   33    8    7    9        3       0.628   1.883   0.000  -2.510  -0.000   0.000
   42   15   14    9        3       0.628   1.883   0.000  -2.510  -0.000   0.000
   21    2    3    4        3       0.628   1.883   0.000  -2.510  -0.000   0.000
   31    7    9   10        3       0.628   1.883   0.000  -2.510  -0.000   0.000
   36   10    9   14        3       0.628   1.883   0.000  -2.510  -0.000   0.000
   29    6    3    2        3       0.628   1.883   0.000  -2.510  -0.000   0.000
   32    8    7    9        3       0.628   1.883   0.000  -2.510  -0.000   0.000
   45   16   15   17        3       0.628   1.883   0.000  -2.510  -0.000   0.000
   41   14    9   11        3       0.628   1.883   0.000  -2.510  -0.000   0.000
   41   14   15   16        3       0.628   1.883   0.000  -2.510  -0.000   0.000
   34    8    7    9        3       0.628   1.883   0.000  -2.510  -0.000   0.000
   39   11    9    7        3       0.628   1.883   0.000  -2.510  -0.000   0.000
   23    3    2    1        3       0.628   1.883   0.000  -2.510  -0.000   0.000
   38   11    9    7        3       0.628   1.883   0.000  -2.510  -0.000   0.000
   30    6    3    2        3       0.628   1.883   0.000  -2.510  -0.000   0.000
   35   10    9   11        3       0.628   1.883   0.000  -2.510  -0.000   0.000
   36   10    9    7        3       0.628   1.883   0.000  -2.510  -0.000   0.000
   34    8    7    6        3       0.628   1.883   0.000  -2.510  -0.000   0.000
   46   17   15   14        3       0.628   1.883   0.000  -2.510  -0.000   0.000
   43   16   15   14        3       0.628   1.883   0.000  -2.510  -0.000   0.000
   35   10    9    7        3       0.628   1.883   0.000  -2.510  -0.000   0.000
   32    8    7    6        3       0.628   1.883   0.000  -2.510  -0.000   0.000
   26    5    4    3        3       0.628   1.883   0.000  -2.510  -0.000   0.000
   19    1    2    3        3       0.628   1.883   0.000  -2.510  -0.000   0.000
   29    6    7    9        3       0.628   1.883   0.000  -2.510  -0.000   0.000
   41   14   15   17        3       0.628   1.883   0.000  -2.510  -0.000   0.000
   28    5    4    3        3       0.628   1.883   0.000  -2.510  -0.000   0.000
   37   10    9   11        3       0.628   1.883   0.000  -2.510  -0.000   0.000
   31    7    9   14        3       0.628   1.883   0.000  -2.510  -0.000   0.000
   40   14    9    7        3       0.628   1.883   0.000  -2.510  -0.000   0.000
   23    3    4    5        3       0.628   1.883   0.000  -2.510  -0.000   0.000
   45   16   15   14        3       0.628   1.883   0.000  -2.510  -0.000   0.000
   38   11    9   10        3       0.628   1.883   0.000  -2.510  -0.000   0.000
   47   17   15   16        3       0.628   1.883   0.000  -2.510  -0.000   0.000
   38   11    9   14        3       0.628   1.883   0.000  -2.510  -0.000   0.000
   35   10    9   14        3       0.628   1.883   0.000  -2.510  -0.000   0.000
   23    3    6    7        3       0.628   1.883   0.000  -2.510  -0.000   0.000
   39   11    9   10        3       0.628   1.883   0.000  -2.510  -0.000   0.000
   21    2    1   18        3       0.628   1.883   0.000  -2.510  -0.000   0.000
   28    5    4   25        3       0.628   1.883   0.000  -2.510  -0.000   0.000
   48   17   15   42        3       0.628   1.883   0.000  -2.510  -0.000   0.000
   31    7    6   29        3       0.628   1.883   0.000  -2.510  -0.000   0.000
   27    5    4   24        3       0.628   1.883   0.000  -2.510  -0.000   0.000
   26    5    4   25        3       0.628   1.883   0.000  -2.510  -0.000   0.000
   46   17   15   42        3       0.628   1.883   0.000  -2.510  -0.000   0.000
   29    6    3   23        3       0.628   1.883   0.000  -2.510  -0.000   0.000
   23    3    2   22        3       0.628   1.883   0.000  -2.510  -0.000   0.000
   47   17   15   42        3       0.628   1.883   0.000  -2.510  -0.000   0.000
   22    2    1   18        3       0.628   1.883   0.000  -2.510  -0.000   0.000
   22    2    1   20        3       0.628   1.883   0.000  -2.510  -0.000   0.000
   45   16   15   42        3       0.628   1.883   0.000  -2.510  -0.000   0.000
   43   16   15   42        3       0.628   1.883   0.000  -2.510  -0.000   0.000
   31    7    6   30        3       0.628   1.883   0.000  -2.510  -0.000   0.000
   44   16   15   42        3       0.628   1.883   0.000  -2.510  -0.000   0.000
   42   15   14   41        3       0.628   1.883   0.000  -2.510  -0.000   0.000
   21    2    1   20        3       0.628   1.883   0.000  -2.510  -0.000   0.000
   22    2    1   19        3       0.628   1.883   0.000  -2.510  -0.000   0.000
   24    4    3   23        3       0.628   1.883   0.000  -2.510  -0.000   0.000
   30    6    3   23        3       0.628   1.883   0.000  -2.510  -0.000   0.000
   33    8    7   31        3       0.628   1.883   0.000  -2.510  -0.000   0.000
   21    2    1   19        3       0.628   1.883   0.000  -2.510  -0.000   0.000
   32    8    7   31        3       0.628   1.883   0.000  -2.510  -0.000   0.000
   34    8    7   31        3       0.628   1.883   0.000  -2.510  -0.000   0.000
   25    4    3   23        3       0.628   1.883   0.000  -2.510  -0.000   0.000
   28    5    4   24        3       0.628   1.883   0.000  -2.510  -0.000   0.000
   27    5    4   25        3       0.628   1.883   0.000  -2.510  -0.000   0.000
   23    3    2   21        3       0.628   1.883   0.000  -2.510  -0.000   0.000
   42   15   14   40        3       0.628   1.883   0.000  -2.510  -0.000   0.000
   26    5    4   24        3       0.628   1.883   0.000  -2.510  -0.000   0.000
   39   11   12   13        3       0.000   0.000   0.000  -0.000  -0.000   0.000
   38   11   12   13        3       0.000   0.000   0.000  -0.000  -0.000   0.000
   13   12   11    9        3       0.000   0.000   0.000  -0.000  -0.000   0.000

[ pairs ]
     1     4    1
     2     5    1
     1     6    1
     2     7    1
     5     6    1
     4     7    1
     3     8    1
     3     9    1
     6    10    1
     6    11    1
     8    10    1
     8    11    1
     7    12    1
     6    14    1
     3    18    1
    10    12    1
     9    13    1
     8    14    1
     7    15    1
     3    19    1
     3    20    1
     1    23    1
    10    15    1
     9    16    1
     4    21    1
    12    14    1
    11    15    1
     9    17    1
     4    22    1
     2    24    1
     6    21    1
     2    25    1
     6    22    1
     5    23    1
     3    26    1
     7    23    1
     6    24    1
     3    27    1
     6    25    1
     3    28    1
     2    29    1
     2    30    1
     4    29    1
     4    30    1
     3    31    1
     8    29    1
     9    29    1
     8    30    1
     6    32    1
    18    21    1
     9    30    1
     6    33    1
    19    21    1
    18    22    1
     6    34    1
    20    21    1
    19    22    1
    10    31    1
     9    32    1
    20    22    1
    11    31    1
     9    33    1
     7    35    1
     9    34    1
     7    36    1
    21    23    1
     7    37    1
    22    23    1
    14    31    1
     7    38    1
    11    35    1
     7    39    1
    23    24    1
    11    36    1
     7    40    1
    23    25    1
    11    37    1
    10    38    1
     7    41    1
    14    35    1
    10    39    1
    24    26    1
    14    36    1
    10    40    1
    25    26    1
    24    27    1
    14    37    1
    13    38    1
    11    40    1
    10    41    1
     9    42    1
    25    27    1
    24    28    1
    23    29    1
    14    38    1
    13    39    1
    11    41    1
    25    28    1
    23    30    1
    14    39    1
    16    40    1
    17    40    1
    16    41    1
    14    43    1
    17    41    1
    14    44    1
    14    45    1
    29    31    1
    17    43    1
    14    46    1
    30    31    1
    17    44    1
    14    47    1
    17    45    1
    16    46    1
    14    48    1
    31    32    1
    16    47    1
    31    33    1
    16    48    1
    31    34    1
    40    42    1
    41    42    1
    42    43    1
    42    44    1
    42    45    1
    42    46    1
    42    47    1
    42    48    1

