LIGPARGEN GENERATED GRO FILE
   53
    1UNK      H    1   0.100   0.100   0.000
    1UNK      C    2  -0.009   0.100   0.000
    1UNK      C    3  -0.076   0.100   0.116
    1UNK      H    4  -0.184   0.100   0.116
    1UNK      C    5  -0.009   0.100   0.251
    1UNK      H    6   0.100   0.104   0.240
    1UNK      H    7  -0.040   0.190   0.305
    1UNK      C    8  -0.048  -0.025   0.330
    1UNK      H    9  -0.157  -0.029   0.341
    1UNK      H   10  -0.018  -0.115   0.275
    1UNK      C   11   0.017  -0.025   0.468
    1UNK      H   12   0.126  -0.021   0.458
    1UNK      H   13  -0.014   0.065   0.523
    1UNK      C   14  -0.023  -0.150   0.548
    1UNK      H   15  -0.132  -0.154   0.558
    1UNK      H   16   0.008  -0.240   0.492
    1UNK      C   17   0.043  -0.150   0.686
    1UNK      H   18   0.152  -0.145   0.675
    1UNK      H   19   0.012  -0.060   0.741
    1UNK      C   20   0.004  -0.274   0.765
    1UNK      H   21  -0.105  -0.279   0.776
    1UNK      H   22   0.035  -0.364   0.710
    1UNK      C   23   0.069  -0.273   0.904
    1UNK      H   24   0.178  -0.269   0.893
    1UNK      H   25   0.038  -0.184   0.959
    1UNK      C   26   0.032  -0.397   0.983
    1UNK      H   27  -0.077  -0.403   0.998
    1UNK      H   28   0.065  -0.488   0.931
    1UNK      H   29   0.079  -0.395   1.082
    1UNK      C   30  -0.076   0.100  -0.135
    1UNK      H   31  -0.185   0.100  -0.124
    1UNK      H   32  -0.048   0.192  -0.187
    1UNK      C   33  -0.032  -0.022  -0.216
    1UNK      H   34   0.077  -0.021  -0.229
    1UNK      H   35  -0.057  -0.114  -0.162
    1UNK      C   36  -0.099  -0.024  -0.354
    1UNK      H   37  -0.208  -0.025  -0.342
    1UNK      H   38  -0.074   0.068  -0.408
    1UNK      C   39  -0.054  -0.146  -0.434
    1UNK      H   40   0.055  -0.143  -0.445
    1UNK      H   41  -0.079  -0.237  -0.379
    1UNK      C   42  -0.120  -0.150  -0.572
    1UNK      H   43  -0.229  -0.152  -0.561
    1UNK      H   44  -0.094  -0.059  -0.628
    1UNK      C   45  -0.073  -0.273  -0.650
    1UNK      H   46   0.037  -0.271  -0.660
    1UNK      H   47  -0.098  -0.364  -0.593
    1UNK      C   48  -0.136  -0.280  -0.788
    1UNK      H   49  -0.245  -0.283  -0.779
    1UNK      H   50  -0.111  -0.189  -0.845
    1UNK      C   51  -0.094  -0.400  -0.873
    1UNK      O   52  -0.012  -0.481  -0.820
    1UNK      O   53  -0.147  -0.404  -0.987
   1.00000   1.00000   1.00000

