LIGPARGEN GENERATED GRO FILE
   26
    1UNK    C00    1   0.100   0.100   0.000
    1UNK    C01    2  -0.052   0.100   0.000
    1UNK    C02    3  -0.109   0.100   0.142
    1UNK    C03    4  -0.263   0.106   0.146
    1UNK    C04    5  -0.327  -0.015   0.079
    1UNK    O05    6  -0.309   0.104   0.283
    1UNK    C06    7  -0.307   0.221   0.352
    1UNK    O07    8  -0.270   0.329   0.308
    1UNK    O08    9  -0.353   0.196   0.476
    1UNK    C09   10  -0.350   0.300   0.562
    1UNK    C0A   11  -0.434   0.419   0.526
    1UNK    O0B   12  -0.294   0.291   0.671
    1UNK    H0C   13   0.137   0.100  -0.103
    1UNK    H0D   14   0.139   0.011   0.050
    1UNK    H0E   15   0.140   0.189   0.050
    1UNK    H0F   16  -0.086   0.011  -0.055
    1UNK    H0G   17  -0.088   0.188  -0.054
    1UNK    H0H   18  -0.068   0.185   0.198
    1UNK    H0I   19  -0.075   0.011   0.196
    1UNK    H0J   20  -0.299   0.197   0.096
    1UNK    H0K   21  -0.290  -0.108   0.123
    1UNK    H0M   22  -0.307  -0.017  -0.029
    1UNK    H0N   23  -0.436  -0.014   0.093
    1UNK    H0O   24  -0.483   0.408   0.429
    1UNK    H0P   25  -0.372   0.508   0.525
    1UNK    H0Q   26  -0.513   0.429   0.602
   1.00000   1.00000   1.00000

