
;
; GENERATED BY LigParGen Server
; Jorgensen Lab @ Yale University 
;
[ atomtypes ]
  opls_818  H818     1.0080     0.000    A    2.50000E-01   1.25520E-01
  opls_804  C804    12.0110     0.000    A    3.45000E-01   3.47272E-01
  opls_806  C806    12.0110     0.000    A    3.45000E-01   3.47272E-01
  opls_813  H813     1.0080     0.000    A    2.50000E-01   1.25520E-01
  opls_807  C807    12.0110     0.000    A    3.45000E-01   3.47272E-01
  opls_815  H815     1.0080     0.000    A    2.50000E-01   1.25520E-01
  opls_801  C801    12.0110     0.000    A    3.50000E-01   2.76144E-01
  opls_808  H808     1.0080     0.000    A    2.50000E-01   1.25520E-01
  opls_814  H814     1.0080     0.000    A    2.50000E-01   1.25520E-01
  opls_821  H821     1.0080     0.000    A    2.50000E-01   1.25520E-01
  opls_820  H820     1.0080     0.000    A    2.50000E-01   1.25520E-01
  opls_803  C803    12.0110     0.000    A    3.45000E-01   3.47272E-01
  opls_811  H811     1.0080     0.000    A    2.50000E-01   1.25520E-01
  opls_810  H810     1.0080     0.000    A    2.50000E-01   1.25520E-01
  opls_816  H816     1.0080     0.000    A    2.50000E-01   1.25520E-01
  opls_800  C800    12.0110     0.000    A    3.50000E-01   2.76144E-01
  opls_802  C802    12.0110     0.000    A    3.45000E-01   3.47272E-01
  opls_819  H819     1.0080     0.000    A    2.50000E-01   1.25520E-01
  opls_817  H817     1.0080     0.000    A    2.50000E-01   1.25520E-01
  opls_812  H812     1.0080     0.000    A    2.50000E-01   1.25520E-01
  opls_809  H809     1.0080     0.000    A    2.50000E-01   1.25520E-01
  opls_805  S805    32.0600     0.000    A    3.60000E-01   1.48532E+00
[ moleculetype ]
; Name               nrexcl
UNK                   3
[ atoms ]
;   nr       type  resnr residue  atom   cgnr     charge       mass  
     1   opls_800      1    UNK   C00      1     -0.244    12.0110 
     2   opls_801      1    UNK   C01      1    -0.1568    12.0110 
     3   opls_802      1    UNK   C02      1    -0.1566    12.0110 
     4   opls_803      1    UNK   C03      1    -0.1589    12.0110 
     5   opls_804      1    UNK   C04      1    -0.2306    12.0110 
     6   opls_805      1    UNK   S05      1     0.0358    32.0600 
     7   opls_806      1    UNK   C06      1    -0.4626    12.0110 
     8   opls_807      1    UNK   C07      1    -0.2306    12.0110 
     9   opls_808      1    UNK   H08      1     0.0862     1.0080 
    10   opls_809      1    UNK   H09      1     0.0862     1.0080 
    11   opls_810      1    UNK   H0A      1     0.0862     1.0080 
    12   opls_811      1    UNK   H0B      1     0.0999     1.0080 
    13   opls_812      1    UNK   H0C      1     0.0999     1.0080 
    14   opls_813      1    UNK   H0D      1     0.1471     1.0080 
    15   opls_814      1    UNK   H0E      1     0.1137     1.0080 
    16   opls_815      1    UNK   H0F      1     0.1137     1.0080 
    17   opls_816      1    UNK   H0G      1     0.1358     1.0080 
    18   opls_817      1    UNK   H0H      1     0.1358     1.0080 
    19   opls_818      1    UNK   H0I      1     0.1152     1.0080 
    20   opls_819      1    UNK   H0J      1     0.1152     1.0080 
    21   opls_820      1    UNK   H0K      1     0.1347     1.0080 
    22   opls_821      1    UNK   H0M      1     0.1347     1.0080 
[ bonds ]
    2     1     1      0.1529 224262.400
    3     2     1      0.1510 234304.000
    4     3     1      0.1520 217568.000
    5     4     1      0.1520 217568.000
    6     3     1      0.1810 185769.600
    7     6     1      0.1810 185769.600
    8     6     1      0.1810 185769.600
    9     1     1      0.1090 284512.000
   10     1     1      0.1090 284512.000
   11     1     1      0.1090 284512.000
   12     2     1      0.1090 284512.000
   13     2     1      0.1090 284512.000
   14     3     1      0.1088 284512.000
   15     4     1      0.1088 284512.000
   16     4     1      0.1088 284512.000
   17     5     1      0.1088 284512.000
   18     5     1      0.1088 284512.000
   19     7     1      0.1088 284512.000
   20     7     1      0.1088 284512.000
   21     8     1      0.1088 284512.000
   22     8     1      0.1088 284512.000
    6     5     1      0.1810 185769.600
    8     7     1      0.1520 217568.000

[ angles ]
;  ai    aj    ak funct            c0            c1            c2            c3 
    1     2     3     1    112.700    488.273
    2     3     4     1    117.200    313.800
    3     4     5     1     83.000    251.040
    2     3     6     1    114.700    418.400
    3     6     7     1     94.000    518.816
    3     6     8     1     94.000    518.816
    2     1     9     1    110.700    313.800
    2     1    10     1    110.700    313.800
    2     1    11     1    110.700    313.800
    1     2    12     1    110.700    313.800
    1     2    13     1    110.700    313.800
    2     3    14     1    114.300    292.880
    3     4    15     1    117.200    313.800
    3     4    16     1    117.200    313.800
    4     5    17     1    117.200    313.800
    4     5    18     1    117.200    313.800
    6     7    19     1    108.000    313.800
    6     7    20     1    108.000    313.800
    6     8    21     1    108.000    313.800
    6     8    22     1    108.000    313.800
   17     5    18     1    114.300    292.880
   15     4    16     1    114.300    292.880
    7     8    21     1    117.200    313.800
   19     7    20     1    114.300    292.880
   21     8    22     1    114.300    292.880
    3     6     5     1     94.000    518.816
   12     2    13     1    107.800    276.144
    4     5     6     1    128.000    460.240
    5     6     8     1     94.000    518.816
    5     6     7     1     94.000    518.816
    6     5    17     1    108.000    313.800
    6     7     8     1    128.000    460.240
    5     4    16     1    117.200    313.800
    8     7    19     1    117.200    313.800
    5     4    15     1    117.200    313.800
    7     6     8     1     94.000    518.816
    3     2    12     1    110.700    313.800
    7     8    22     1    117.200    313.800
   10     1    11     1    107.800    276.144
    3     2    13     1    110.700    313.800
    9     1    10     1    107.800    276.144
    9     1    11     1    107.800    276.144
    4     3    14     1    117.200    313.800
    6     3    14     1    108.000    313.800
    4     3     6     1    128.000    460.240
    6     8     7     1    128.000    460.240
    8     7    20     1    117.200    313.800
    6     5    18     1    108.000    313.800

[ dihedrals ]
; IMPROPER DIHEDRAL ANGLES 
;  ai    aj    ak    al funct            c0            c1            c2            c3            c4            c5
     4     5     6     3    4          0.000      1.935     1  
     4     5     6     3    4        180.000     -1.205     2  
     4     5     6     3    4          0.000      1.416     3  
     5     6     3     4    4          0.000      1.935     1  
     5     6     3     4    4        180.000     -1.205     2  
     5     6     3     4    4          0.000      1.416     3  

[ dihedrals ]
; PROPER DIHEDRAL ANGLES
;  ai    aj    ak    al funct            c0            c1            c2            c3            c4            c5
    4    3    2    1        3       0.000   0.000   0.000  -0.000  -0.000   0.000
    5    4    3    2        3       0.000   0.000   0.000  -0.000  -0.000   0.000
    5    6    3    2        3       0.941   2.314   2.410  -5.665  -0.000   0.000
    7    6    3    2        3       0.941   2.314   2.410  -5.665  -0.000   0.000
    8    6    3    2        3       0.941   2.314   2.410  -5.665  -0.000   0.000
    7    6    3    4        3       0.941   2.314   2.410  -5.665  -0.000   0.000
    8    6    3    4        3       0.941   2.314   2.410  -5.665  -0.000   0.000
    8    6    5    4        3       0.941   2.314   2.410  -5.665  -0.000   0.000
    7    6    5    4        3       0.941   2.314   2.410  -5.665  -0.000   0.000
   11    1    2    3        3       0.628   1.883   0.000  -2.510  -0.000   0.000
   10    1    2    3        3       0.628   1.883   0.000  -2.510  -0.000   0.000
    9    1    2    3        3       0.628   1.883   0.000  -2.510  -0.000   0.000
   13    2    1    9        3       0.628   1.883   0.000  -2.510  -0.000   0.000
   12    2    1   11        3       0.628   1.883   0.000  -2.510  -0.000   0.000
   13    2    1   10        3       0.628   1.883   0.000  -2.510  -0.000   0.000
   13    2    1   11        3       0.628   1.883   0.000  -2.510  -0.000   0.000
   12    2    1    9        3       0.628   1.883   0.000  -2.510  -0.000   0.000
   12    2    1   10        3       0.628   1.883   0.000  -2.510  -0.000   0.000
   12    2    3    4        3       0.628   1.883   0.000  -2.510  -0.000   0.000
   13    2    3    4        3       0.628   1.883   0.000  -2.510  -0.000   0.000
   13    2    3    6        3       0.946   2.837   0.000  -3.782  -0.000   0.000
   12    2    3    6        3       0.946   2.837   0.000  -3.782  -0.000   0.000
   14    3    2    1        3       0.628   1.883   0.000  -2.510  -0.000   0.000
   14    3    2   13        3       0.628   1.883   0.000  -2.510  -0.000   0.000
   14    3    2   12        3       0.628   1.883   0.000  -2.510  -0.000   0.000
   15    4    3    2        3       0.000   0.000   0.000  -0.000  -0.000   0.000
   16    4    3    2        3       0.000   0.000   0.000  -0.000  -0.000   0.000
   18    5    4    3        3       0.000   0.000   0.000  -0.000  -0.000   0.000
   14    3    4    5        3       0.000   0.000   0.000  -0.000  -0.000   0.000
   17    5    4    3        3       0.000   0.000   0.000  -0.000  -0.000   0.000
   16    4    3   14        3       0.000   0.000   0.000  -0.000  -0.000   0.000
   21    8    7   20        3       0.000   0.000   0.000  -0.000  -0.000   0.000
   18    5    4   15        3       0.000   0.000   0.000  -0.000  -0.000   0.000
   17    5    4   16        3       0.000   0.000   0.000  -0.000  -0.000   0.000
   22    8    7   20        3       0.000   0.000   0.000  -0.000  -0.000   0.000
   15    4    3   14        3       0.000   0.000   0.000  -0.000  -0.000   0.000
   22    8    7   19        3       0.000   0.000   0.000  -0.000  -0.000   0.000
   17    5    4   15        3       0.000   0.000   0.000  -0.000  -0.000   0.000
   21    8    7   19        3       0.000   0.000   0.000  -0.000  -0.000   0.000
   18    5    4   16        3       0.000   0.000   0.000  -0.000  -0.000   0.000
   15    4    3    6        3       0.000   0.000   0.000  -0.000  -0.000   0.000
   20    7    8    6        3       0.000   0.000   0.000  -0.000  -0.000   0.000
   22    8    7    6        3       0.000   0.000   0.000  -0.000  -0.000   0.000
   16    4    5    6        3       0.000   0.000   0.000  -0.000  -0.000   0.000
   21    8    7    6        3       0.000   0.000   0.000  -0.000  -0.000   0.000
   15    4    5    6        3       0.000   0.000   0.000  -0.000  -0.000   0.000
   16    4    3    6        3       0.000   0.000   0.000  -0.000  -0.000   0.000
   19    7    8    6        3       0.000   0.000   0.000  -0.000  -0.000   0.000
   17    5    6    8        3       1.354   4.061   0.000  -5.414  -0.000   0.000
   18    5    6    8        3       1.354   4.061   0.000  -5.414  -0.000   0.000
   20    7    6    5        3       1.354   4.061   0.000  -5.414  -0.000   0.000
   19    7    6    8        3       0.000   0.000   0.000  -0.000  -0.000   0.000
   20    7    6    8        3       0.000   0.000   0.000  -0.000  -0.000   0.000
   21    8    6    7        3       0.000   0.000   0.000  -0.000  -0.000   0.000
   22    8    6    7        3       0.000   0.000   0.000  -0.000  -0.000   0.000
   17    5    6    7        3       1.354   4.061   0.000  -5.414  -0.000   0.000
   14    3    6    7        3       1.354   4.061   0.000  -5.414  -0.000   0.000
   21    8    6    3        3       1.354   4.061   0.000  -5.414  -0.000   0.000
   18    5    6    7        3       1.354   4.061   0.000  -5.414  -0.000   0.000
   14    3    6    8        3       1.354   4.061   0.000  -5.414  -0.000   0.000
   14    3    6    5        3       1.354   4.061   0.000  -5.414  -0.000   0.000
   19    7    6    3        3       1.354   4.061   0.000  -5.414  -0.000   0.000
   19    7    6    5        3       1.354   4.061   0.000  -5.414  -0.000   0.000
   22    8    6    5        3       1.354   4.061   0.000  -5.414  -0.000   0.000
   22    8    6    3        3       1.354   4.061   0.000  -5.414  -0.000   0.000
   17    5    6    3        3       1.354   4.061   0.000  -5.414  -0.000   0.000
   18    5    6    3        3       1.354   4.061   0.000  -5.414  -0.000   0.000
   20    7    6    3        3       1.354   4.061   0.000  -5.414  -0.000   0.000
   21    8    6    5        3       1.354   4.061   0.000  -5.414  -0.000   0.000
    6    3    2    1        3       3.425  -3.860   2.594  -2.159  -0.000   0.000

[ pairs ]
     1     4    1
     2     5    1
     1     6    1
     2     7    1
     2     8    1
     4     7    1
     4     8    1
     3     9    1
     3    10    1
     3    11    1
     1    14    1
     4    12    1
     4    13    1
     2    15    1
     6    12    1
     2    16    1
     6    13    1
     5    14    1
     3    17    1
     9    12    1
     7    14    1
     6    15    1
     3    18    1
    10    12    1
     9    13    1
     8    14    1
     6    16    1
     3    19    1
    11    12    1
    10    13    1
     3    20    1
    11    13    1
     7    17    1
     5    19    1
     3    21    1
     8    17    1
     7    18    1
     5    20    1
     3    22    1
    12    14    1
     8    18    1
     5    21    1
    13    14    1
     5    22    1
    14    15    1
    14    16    1
    15    17    1
    16    17    1
    15    18    1
    16    18    1
    19    21    1
    20    21    1
    19    22    1
    20    22    1

