LIGPARGEN GENERATED GRO FILE
   22
    1UNK    C00    1   0.100   0.100   0.000
    1UNK    C01    2  -0.052   0.100   0.000
    1UNK    C02    3  -0.105   0.100   0.143
    1UNK    C03    4  -0.259   0.100   0.157
    1UNK    C04    5  -0.268   0.235   0.231
    1UNK    S05    6  -0.094   0.255   0.229
    1UNK    C06    7  -0.084   0.156   0.434
    1UNK    C07    8   0.004   0.247   0.367
    1UNK    H08    9   0.138   0.095  -0.102
    1UNK    H09   10   0.139   0.014   0.055
    1UNK    H0A   11   0.140   0.191   0.047
    1UNK    H0B   12  -0.088   0.010  -0.052
    1UNK    H0C   13  -0.089   0.187  -0.055
    1UNK    H0D   14  -0.059   0.017   0.199
    1UNK    H0E   15  -0.297   0.016   0.216
    1UNK    H0F   16  -0.314   0.100   0.061
    1UNK    H0G   17  -0.315   0.230   0.329
    1UNK    H0H   18  -0.318   0.313   0.173
    1UNK    H0I   19  -0.083   0.051   0.410
    1UNK    H0J   20  -0.171   0.195   0.485
    1UNK    H0K   21   0.106   0.210   0.352
    1UNK    H0M   22   0.021   0.342   0.420
   1.00000   1.00000   1.00000

