LIGPARGEN GENERATED GRO FILE
   40
    1UNK    C00    1   0.100   0.100   0.000
    1UNK    C01    2  -0.052   0.100   0.000
    1UNK    C02    3  -0.111   0.100   0.142
    1UNK    C03    4  -0.076   0.226   0.221
    1UNK    C04    5  -0.181   0.226   0.330
    1UNK    C05    6  -0.312   0.187   0.259
    1UNK    C06    7  -0.372   0.314   0.192
    1UNK    C07    8  -0.412   0.141   0.364
    1UNK    C08    9  -0.267   0.088   0.145
    1UNK    C09   10  -0.313  -0.060   0.137
    1UNK    C0A   11  -0.233  -0.162   0.221
    1UNK    C0B   12  -0.326  -0.281   0.234
    1UNK    C0C   13  -0.460  -0.214   0.259
    1UNK    C0D   14  -0.461  -0.096   0.161
    1UNK    H0E   15   0.138   0.100  -0.103
    1UNK    H0F   16   0.139   0.011   0.050
    1UNK    H0G   17   0.140   0.188   0.050
    1UNK    H0H   18  -0.087   0.011  -0.054
    1UNK    H0I   19  -0.088   0.188  -0.055
    1UNK    H0J   20  -0.065   0.017   0.197
    1UNK    H0K   21  -0.083   0.316   0.159
    1UNK    H0M   22   0.025   0.222   0.263
    1UNK    H0N   23  -0.187   0.323   0.380
    1UNK    H0O   24  -0.155   0.151   0.406
    1UNK    H0P   25  -0.398   0.390   0.267
    1UNK    H0Q   26  -0.463   0.289   0.136
    1UNK    H0R   27  -0.302   0.361   0.121
    1UNK    H0S   28  -0.414   0.211   0.448
    1UNK    H0T   29  -0.386   0.043   0.405
    1UNK    H0U   30  -0.514   0.138   0.326
    1UNK    H0V   31  -0.304   0.132   0.051
    1UNK    H0W   32  -0.294  -0.089   0.033
    1UNK    H0X   33  -0.209  -0.121   0.320
    1UNK    H0Y   34  -0.140  -0.191   0.172
    1UNK    H0Z   35  -0.297  -0.348   0.316
    1UNK    H10   36  -0.328  -0.338   0.141
    1UNK    H11   37  -0.465  -0.178   0.362
    1UNK    H12   38  -0.544  -0.282   0.243
    1UNK    H13   39  -0.524  -0.015   0.196
    1UNK    H14   40  -0.505  -0.129   0.066
   1.00000   1.00000   1.00000

