LIGPARGEN GENERATED GRO FILE
   34
    1UNK    C00    1   0.100   0.100   0.000
    1UNK    C01    2  -0.053   0.100   0.000
    1UNK    C02    3  -0.105   0.100   0.145
    1UNK    C03    4  -0.258   0.083   0.157
    1UNK    C04    5  -0.305   0.084   0.303
    1UNK    C05    6  -0.459   0.076   0.319
    1UNK    C06    7  -0.513  -0.053   0.255
    1UNK    C07    8  -0.503   0.088   0.468
    1UNK    C08    9  -0.459   0.221   0.531
    1UNK    C09   10  -0.655   0.076   0.486
    1UNK    S0A   11  -0.115   0.247  -0.091
    1UNK    C0B   12  -0.067   0.204  -0.247
    1UNK    N0C   13  -0.034   0.174  -0.354
    1UNK    H0D   14   0.138   0.012   0.053
    1UNK    H0E   15   0.140   0.189   0.050
    1UNK    H0F   16   0.141   0.096  -0.101
    1UNK    H0G   17  -0.089   0.009  -0.050
    1UNK    H0H   18  -0.074   0.192   0.197
    1UNK    H0I   19  -0.058   0.017   0.199
    1UNK    H0J   20  -0.284  -0.011   0.108
    1UNK    H0K   21  -0.309   0.164   0.103
    1UNK    H0M   22  -0.267   0.176   0.349
    1UNK    H0N   23  -0.258   0.000   0.357
    1UNK    H0O   24  -0.502   0.161   0.263
    1UNK    H0P   25  -0.472  -0.141   0.305
    1UNK    H0Q   26  -0.487  -0.059   0.149
    1UNK    H0R   27  -0.622  -0.058   0.259
    1UNK    H0S   28  -0.455   0.007   0.525
    1UNK    H0T   29  -0.496   0.307   0.473
    1UNK    H0U   30  -0.350   0.229   0.538
    1UNK    H0V   31  -0.498   0.231   0.633
    1UNK    H0W   32  -0.708   0.148   0.424
    1UNK    H0X   33  -0.683   0.093   0.590
    1UNK    H0Y   34  -0.690  -0.025   0.460
   1.00000   1.00000   1.00000

