LIGPARGEN GENERATED GRO FILE
   52
    1UNK    C00    1   0.100   0.100   0.000
    1UNK    C01    2  -0.052   0.100   0.000
    1UNK    C02    3  -0.106   0.100   0.143
    1UNK    C03    4  -0.260   0.106   0.154
    1UNK    C04    5  -0.327  -0.012   0.083
    1UNK    C05    6  -0.303   0.104   0.301
    1UNK    C06    7  -0.259   0.223   0.388
    1UNK    N07    8  -0.307   0.357   0.352
    1UNK    C08    9  -0.455   0.366   0.353
    1UNK    C09   10  -0.511   0.495   0.292
    1UNK    S0A   11  -0.690   0.491   0.300
    1UNK    O0B   12  -0.737   0.381   0.219
    1UNK    O0C   13  -0.727   0.501   0.440
    1UNK    C0D   14  -0.738   0.642   0.219
    1UNK    C0E   15  -0.889   0.658   0.216
    1UNK    C0F   16  -0.240   0.462   0.433
    1UNK    C0G   17  -0.269   0.473   0.586
    1UNK    C0H   18  -0.226   0.352   0.669
    1UNK    C0I   19  -0.196   0.596   0.642
    1UNK    H0J   20   0.138   0.100  -0.103
    1UNK    H0K   21   0.139   0.011   0.051
    1UNK    H0M   22   0.139   0.189   0.051
    1UNK    H0N   23  -0.087   0.012  -0.054
    1UNK    H0O   24  -0.089   0.188  -0.054
    1UNK    H0P   25  -0.062   0.186   0.195
    1UNK    H0Q   26  -0.069   0.010   0.195
    1UNK    H0R   27  -0.295   0.199   0.107
    1UNK    H0S   28  -0.292  -0.107   0.125
    1UNK    H0T   29  -0.307  -0.012  -0.024
    1UNK    H0U   30  -0.436  -0.008   0.096
    1UNK    H0V   31  -0.263   0.013   0.348
    1UNK    H0W   32  -0.412   0.093   0.308
    1UNK    H0X   33  -0.150   0.223   0.392
    1UNK    H0Y   34  -0.294   0.197   0.488
    1UNK    H0Z   35  -0.493   0.351   0.454
    1UNK    H10   36  -0.495   0.285   0.292
    1UNK    H11   37  -0.484   0.504   0.187
    1UNK    H12   38  -0.479   0.584   0.347
    1UNK    H13   39  -0.698   0.639   0.118
    1UNK    H14   40  -0.692   0.725   0.274
    1UNK    H15   41  -0.936   0.575   0.162
    1UNK    H16   42  -0.917   0.751   0.167
    1UNK    H17   43  -0.930   0.659   0.318
    1UNK    H18   44  -0.264   0.558   0.387
    1UNK    H19   45  -0.132   0.452   0.418
    1UNK    H1A   46  -0.376   0.489   0.601
    1UNK    H1B   47  -0.132   0.309   0.632
    1UNK    H1C   48  -0.303   0.275   0.669
    1UNK    H1D   49  -0.211   0.378   0.774
    1UNK    H1E   50  -0.087   0.586   0.630
    1UNK    H1F   51  -0.217   0.608   0.748
    1UNK    H1G   52  -0.228   0.687   0.591
   1.00000   1.00000   1.00000

