
;
; GENERATED BY LigParGen Server
; Jorgensen Lab @ Yale University 
;
[ atomtypes ]
  opls_814  C814    12.0110     0.000    A    3.50000E-01   2.76144E-01
  opls_824  H824     1.0080     0.000    A    2.50000E-01   1.25520E-01
  opls_805  C805    12.0110     0.000    A    3.50000E-01   2.76144E-01
  opls_818  C818    12.0110     0.000    A    3.50000E-01   2.76144E-01
  opls_843  H843     1.0080     0.000    A    2.50000E-01   1.25520E-01
  opls_807  N807    14.0070     0.000    A    3.30000E-01   7.11280E-01
  opls_836  H836     1.0080     0.000    A    2.50000E-01   1.25520E-01
  opls_810  S810    32.0600     0.000    A    3.55000E-01   1.04600E+00
  opls_828  H828     1.0080     0.000    A    2.50000E-01   1.25520E-01
  opls_851  H851     1.0080     0.000    A    2.50000E-01   1.25520E-01
  opls_802  C802    12.0110     0.000    A    3.50000E-01   2.76144E-01
  opls_827  H827     1.0080     0.000    A    2.50000E-01   1.25520E-01
  opls_809  C809    12.0110     0.000    A    3.50000E-01   2.76144E-01
  opls_806  C806    12.0110     0.000    A    3.50000E-01   2.76144E-01
  opls_822  H822     1.0080     0.000    A    2.50000E-01   1.25520E-01
  opls_803  C803    12.0110     0.000    A    3.50000E-01   2.76144E-01
  opls_838  H838     1.0080     0.000    A    2.50000E-01   1.25520E-01
  opls_825  H825     1.0080     0.000    A    2.50000E-01   1.25520E-01
  opls_830  H830     1.0080     0.000    A    2.50000E-01   1.25520E-01
  opls_804  C804    12.0110     0.000    A    3.50000E-01   2.76144E-01
  opls_812  O812    15.9990     0.000    A    2.96000E-01   7.11280E-01
  opls_842  H842     1.0080     0.000    A    2.50000E-01   1.25520E-01
  opls_820  H820     1.0080     0.000    A    2.50000E-01   1.25520E-01
  opls_837  H837     1.0080     0.000    A    2.50000E-01   1.25520E-01
  opls_821  H821     1.0080     0.000    A    2.50000E-01   1.25520E-01
  opls_834  H834     1.0080     0.000    A    2.50000E-01   1.25520E-01
  opls_831  H831     1.0080     0.000    A    2.50000E-01   1.25520E-01
  opls_832  H832     1.0080     0.000    A    2.50000E-01   1.25520E-01
  opls_800  C800    12.0110     0.000    A    3.50000E-01   2.76144E-01
  opls_846  H846     1.0080     0.000    A    2.50000E-01   1.25520E-01
  opls_848  H848     1.0080     0.000    A    2.50000E-01   1.25520E-01
  opls_815  C815    12.0110     0.000    A    3.50000E-01   2.76144E-01
  opls_823  H823     1.0080     0.000    A    2.50000E-01   1.25520E-01
  opls_813  C813    12.0110     0.000    A    3.50000E-01   2.76144E-01
  opls_826  H826     1.0080     0.000    A    2.50000E-01   1.25520E-01
  opls_835  H835     1.0080     0.000    A    2.50000E-01   1.25520E-01
  opls_841  H841     1.0080     0.000    A    2.50000E-01   1.25520E-01
  opls_847  H847     1.0080     0.000    A    2.50000E-01   1.25520E-01
  opls_819  H819     1.0080     0.000    A    2.50000E-01   1.25520E-01
  opls_816  C816    12.0110     0.000    A    3.50000E-01   2.76144E-01
  opls_833  H833     1.0080     0.000    A    2.50000E-01   1.25520E-01
  opls_839  H839     1.0080     0.000    A    2.50000E-01   1.25520E-01
  opls_817  C817    12.0110     0.000    A    3.50000E-01   2.76144E-01
  opls_801  C801    12.0110     0.000    A    3.50000E-01   2.76144E-01
  opls_808  C808    12.0110     0.000    A    3.50000E-01   2.76144E-01
  opls_850  H850     1.0080     0.000    A    2.50000E-01   1.25520E-01
  opls_840  H840     1.0080     0.000    A    2.50000E-01   1.25520E-01
  opls_849  H849     1.0080     0.000    A    2.50000E-01   1.25520E-01
  opls_829  H829     1.0080     0.000    A    2.50000E-01   1.25520E-01
  opls_844  H844     1.0080     0.000    A    2.50000E-01   1.25520E-01
  opls_845  H845     1.0080     0.000    A    2.50000E-01   1.25520E-01
  opls_811  O811    15.9990     0.000    A    2.96000E-01   7.11280E-01
[ moleculetype ]
; Name               nrexcl
UNK                   3
[ atoms ]
;   nr       type  resnr residue  atom   cgnr     charge       mass  
     1   opls_800      1    UNK   C00      1    -0.2398    12.0110 
     2   opls_801      1    UNK   C01      1    -0.1776    12.0110 
     3   opls_802      1    UNK   C02      1    -0.1717    12.0110 
     4   opls_803      1    UNK   C03      1     -0.107    12.0110 
     5   opls_804      1    UNK   C04      1    -0.2393    12.0110 
     6   opls_805      1    UNK   C05      1    -0.1777    12.0110 
     7   opls_806      1    UNK   C06      1     0.0176    12.0110 
     8   opls_807      1    UNK   N07      1    -0.5774    14.0070 
     9   opls_808      1    UNK   C08      1     0.0517    12.0110 
    10   opls_809      1    UNK   C09      1    -0.5016    12.0110 
    11   opls_810      1    UNK   S0A      1     1.2889    32.0600 
    12   opls_811      1    UNK   O0B      1    -0.5669    15.9990 
    13   opls_812      1    UNK   O0C      1    -0.5669    15.9990 
    14   opls_813      1    UNK   C0D      1    -0.4966    12.0110 
    15   opls_814      1    UNK   C0E      1    -0.2102    12.0110 
    16   opls_815      1    UNK   C0F      1     0.0209    12.0110 
    17   opls_816      1    UNK   C0G      1    -0.1511    12.0110 
    18   opls_817      1    UNK   C0H      1    -0.2351    12.0110 
    19   opls_818      1    UNK   C0I      1    -0.2347    12.0110 
    20   opls_819      1    UNK   H0J      1     0.0798     1.0080 
    21   opls_820      1    UNK   H0K      1     0.0798     1.0080 
    22   opls_821      1    UNK   H0M      1     0.0798     1.0080 
    23   opls_822      1    UNK   H0N      1     0.0897     1.0080 
    24   opls_823      1    UNK   H0O      1     0.0897     1.0080 
    25   opls_824      1    UNK   H0P      1     0.0873     1.0080 
    26   opls_825      1    UNK   H0Q      1     0.0873     1.0080 
    27   opls_826      1    UNK   H0R      1     0.1136     1.0080 
    28   opls_827      1    UNK   H0S      1     0.0817     1.0080 
    29   opls_828      1    UNK   H0T      1     0.0817     1.0080 
    30   opls_829      1    UNK   H0U      1     0.0817     1.0080 
    31   opls_830      1    UNK   H0V      1     0.0916     1.0080 
    32   opls_831      1    UNK   H0W      1     0.0916     1.0080 
    33   opls_832      1    UNK   H0X      2      0.086     1.0080 
    34   opls_833      1    UNK   H0Y      2      0.086     1.0080 
    35   opls_834      1    UNK   H0Z      2     0.1035     1.0080 
    36   opls_835      1    UNK   H10      2     0.1035     1.0080 
    37   opls_836      1    UNK   H11      2     0.1624     1.0080 
    38   opls_837      1    UNK   H12      2     0.1624     1.0080 
    39   opls_838      1    UNK   H13      2     0.1559     1.0080 
    40   opls_839      1    UNK   H14      2     0.1559     1.0080 
    41   opls_840      1    UNK   H15      2     0.1073     1.0080 
    42   opls_841      1    UNK   H16      2     0.1073     1.0080 
    43   opls_842      1    UNK   H17      2     0.1073     1.0080 
    44   opls_843      1    UNK   H18      2     0.0999     1.0080 
    45   opls_844      1    UNK   H19      2     0.0999     1.0080 
    46   opls_845      1    UNK   H1A      2     0.1041     1.0080 
    47   opls_846      1    UNK   H1B      2     0.0833     1.0080 
    48   opls_847      1    UNK   H1C      2     0.0833     1.0080 
    49   opls_848      1    UNK   H1D      2     0.0833     1.0080 
    50   opls_849      1    UNK   H1E      2     0.0828     1.0080 
    51   opls_850      1    UNK   H1F      2     0.0828     1.0080 
    52   opls_851      1    UNK   H1G      2     0.0828     1.0080 
[ bonds ]
    2     1     1      0.1529 224262.400
    3     2     1      0.1529 224262.400
    4     3     1      0.1529 224262.400
    5     4     1      0.1529 224262.400
    6     4     1      0.1529 224262.400
    7     6     1      0.1529 224262.400
    8     7     1      0.1448 319657.600
    9     8     1      0.1448 319657.600
   10     9     1      0.1529 224262.400
   11    10     1      0.1770 284512.000
   12    11     1      0.1440 585760.000
   13    11     1      0.1440 585760.000
   14    11     1      0.1770 284512.000
   15    14     1      0.1529 224262.400
   16     8     1      0.1448 319657.600
   17    16     1      0.1529 224262.400
   18    17     1      0.1529 224262.400
   19    17     1      0.1529 224262.400
   20     1     1      0.1090 284512.000
   21     1     1      0.1090 284512.000
   22     1     1      0.1090 284512.000
   23     2     1      0.1090 284512.000
   24     2     1      0.1090 284512.000
   25     3     1      0.1090 284512.000
   26     3     1      0.1090 284512.000
   27     4     1      0.1090 284512.000
   28     5     1      0.1090 284512.000
   29     5     1      0.1090 284512.000
   30     5     1      0.1090 284512.000
   31     6     1      0.1090 284512.000
   32     6     1      0.1090 284512.000
   33     7     1      0.1090 284512.000
   34     7     1      0.1090 284512.000
   35     9     1      0.1090 284512.000
   36     9     1      0.1090 284512.000
   37    10     1      0.1090 284512.000
   38    10     1      0.1090 284512.000
   39    14     1      0.1090 284512.000
   40    14     1      0.1090 284512.000
   41    15     1      0.1090 284512.000
   42    15     1      0.1090 284512.000
   43    15     1      0.1090 284512.000
   44    16     1      0.1090 284512.000
   45    16     1      0.1090 284512.000
   46    17     1      0.1090 284512.000
   47    18     1      0.1090 284512.000
   48    18     1      0.1090 284512.000
   49    18     1      0.1090 284512.000
   50    19     1      0.1090 284512.000
   51    19     1      0.1090 284512.000
   52    19     1      0.1090 284512.000

[ angles ]
;  ai    aj    ak funct            c0            c1            c2            c3 
    1     2     3     1    112.700    488.273
    2     3     4     1    112.700    488.273
    3     4     5     1    112.700    488.273
    3     4     6     1    112.700    488.273
    4     6     7     1    112.700    488.273
    6     7     8     1    109.470    470.282
    7     8     9     1    107.200    433.462
    8     9    10     1    109.470    470.282
    9    10    11     1    108.600    418.400
   10    11    12     1    108.900    619.232
   10    11    13     1    108.900    619.232
   10    11    14     1    102.000    518.816
   11    14    15     1    108.600    418.400
    7     8    16     1    107.200    433.462
    8    16    17     1    109.470    470.282
   16    17    18     1    112.700    488.273
   16    17    19     1    112.700    488.273
    2     1    20     1    110.700    313.800
    2     1    21     1    110.700    313.800
    2     1    22     1    110.700    313.800
    1     2    23     1    110.700    313.800
    1     2    24     1    110.700    313.800
    2     3    25     1    110.700    313.800
    2     3    26     1    110.700    313.800
    3     4    27     1    110.700    313.800
    4     5    28     1    110.700    313.800
    4     5    29     1    110.700    313.800
    4     5    30     1    110.700    313.800
    4     6    31     1    110.700    313.800
    4     6    32     1    110.700    313.800
    6     7    33     1    110.700    313.800
    6     7    34     1    110.700    313.800
    8     9    35     1    109.500    292.880
    8     9    36     1    109.500    292.880
    9    10    37     1    110.700    313.800
    9    10    38     1    110.700    313.800
   11    14    39     1    109.500    292.880
   11    14    40     1    109.500    292.880
   14    15    41     1    110.700    313.800
   14    15    42     1    110.700    313.800
   14    15    43     1    110.700    313.800
    8    16    44     1    109.500    292.880
    8    16    45     1    109.500    292.880
   16    17    46     1    110.700    313.800
   17    18    47     1    110.700    313.800
   17    18    48     1    110.700    313.800
   17    18    49     1    110.700    313.800
   17    19    50     1    110.700    313.800
   17    19    51     1    110.700    313.800
   17    19    52     1    110.700    313.800
   11    10    38     1    109.500    292.880
   15    14    40     1    110.700    313.800
   41    15    43     1    107.800    276.144
   47    18    49     1    107.800    276.144
   12    11    14     1    108.900    619.232
   50    19    52     1    107.800    276.144
   20     1    21     1    107.800    276.144
    5     4    27     1    110.700    313.800
    7     6    32     1    110.700    313.800
    7     6    31     1    110.700    313.800
    5     4     6     1    112.700    488.273
    9     8    16     1    107.200    433.462
   28     5    29     1    107.800    276.144
   17    16    45     1    110.700    313.800
   33     7    34     1    107.800    276.144
   44    16    45     1    107.800    276.144
   35     9    36     1    107.800    276.144
    8     7    33     1    109.500    292.880
   13    11    14     1    108.900    619.232
   17    16    44     1    110.700    313.800
   20     1    22     1    107.800    276.144
   41    15    42     1    107.800    276.144
   48    18    49     1    107.800    276.144
   29     5    30     1    107.800    276.144
   42    15    43     1    107.800    276.144
   18    17    46     1    110.700    313.800
   10     9    35     1    110.700    313.800
    6     4    27     1    110.700    313.800
   50    19    51     1    107.800    276.144
   51    19    52     1    107.800    276.144
   37    10    38     1    107.800    276.144
   39    14    40     1    107.800    276.144
   21     1    22     1    107.800    276.144
    4     3    26     1    110.700    313.800
   15    14    39     1    110.700    313.800
    8     7    34     1    109.500    292.880
   25     3    26     1    107.800    276.144
   31     6    32     1    107.800    276.144
   47    18    48     1    107.800    276.144
    4     3    25     1    110.700    313.800
    3     2    23     1    110.700    313.800
   19    17    46     1    110.700    313.800
   18    17    19     1    112.700    488.273
   11    10    37     1    109.500    292.880
   10     9    36     1    110.700    313.800
   23     2    24     1    107.800    276.144
   12    11    13     1    119.000    870.272
    3     2    24     1    110.700    313.800
   28     5    30     1    107.800    276.144

[ dihedrals ]
; IMPROPER DIHEDRAL ANGLES 
;  ai    aj    ak    al funct            c0            c1            c2            c3            c4            c5

[ dihedrals ]
; PROPER DIHEDRAL ANGLES
;  ai    aj    ak    al funct            c0            c1            c2            c3            c4            c5
    4    3    2    1        3       2.301  -1.464   0.837  -1.674  -0.000   0.000
    6    4    3    2        3       2.301  -1.464   0.837  -1.674  -0.000   0.000
    7    6    4    5        3       2.301  -1.464   0.837  -1.674  -0.000   0.000
    5    4    3    2        3       2.301  -1.464   0.837  -1.674  -0.000   0.000
    7    6    4    3        3       2.301  -1.464   0.837  -1.674  -0.000   0.000
   19   17   16    8        3       3.335  -1.552   2.820  -4.602  -0.000   0.000
   18   17   16    8        3       3.335  -1.552   2.820  -4.602  -0.000   0.000
   10    9    8    7        3       1.789   3.492   0.536  -5.816  -0.000   0.000
   17   16    8    9        3       1.789   3.492   0.536  -5.816  -0.000   0.000
   17   16    8    7        3       1.789   3.492   0.536  -5.816  -0.000   0.000
   15   14   11   10        3       0.000   0.000   0.000  -0.000  -0.000   0.000
   15   14   11   13        3       0.000   0.000   0.000  -0.000  -0.000   0.000
   15   14   11   12        3       0.000   0.000   0.000  -0.000  -0.000   0.000
    9    8    7    6        3       1.789   3.492   0.536  -5.816  -0.000   0.000
   16    8    7    6        3       1.789   3.492   0.536  -5.816  -0.000   0.000
   16    8    9   10        3       1.789   3.492   0.536  -5.816  -0.000   0.000
   14   11   10    9        3       0.000   0.000   0.000  -0.000  -0.000   0.000
   47   18   17   19        3       0.628   1.883   0.000  -2.510  -0.000   0.000
   52   19   17   16        3       0.628   1.883   0.000  -2.510  -0.000   0.000
   45   16   17   19        3       0.628   1.883   0.000  -2.510  -0.000   0.000
   31    6    4    5        3       0.628   1.883   0.000  -2.510  -0.000   0.000
   45   16   17   18        3       0.628   1.883   0.000  -2.510  -0.000   0.000
   48   18   17   19        3       0.628   1.883   0.000  -2.510  -0.000   0.000
   34    7    6    4        3       0.628   1.883   0.000  -2.510  -0.000   0.000
   25    3    4    6        3       0.628   1.883   0.000  -2.510  -0.000   0.000
   26    3    4    5        3       0.628   1.883   0.000  -2.510  -0.000   0.000
   29    5    4    6        3       0.628   1.883   0.000  -2.510  -0.000   0.000
   23    2    3    4        3       0.628   1.883   0.000  -2.510  -0.000   0.000
   26    3    2    1        3       0.628   1.883   0.000  -2.510  -0.000   0.000
   52   19   17   18        3       0.628   1.883   0.000  -2.510  -0.000   0.000
   49   18   17   19        3       0.628   1.883   0.000  -2.510  -0.000   0.000
   25    3    2    1        3       0.628   1.883   0.000  -2.510  -0.000   0.000
   51   19   17   18        3       0.628   1.883   0.000  -2.510  -0.000   0.000
   30    5    4    6        3       0.628   1.883   0.000  -2.510  -0.000   0.000
   29    5    4    3        3       0.628   1.883   0.000  -2.510  -0.000   0.000
   33    7    6    4        3       0.628   1.883   0.000  -2.510  -0.000   0.000
   51   19   17   16        3       0.628   1.883   0.000  -2.510  -0.000   0.000
   49   18   17   16        3       0.628   1.883   0.000  -2.510  -0.000   0.000
   21    1    2    3        3       0.628   1.883   0.000  -2.510  -0.000   0.000
   44   16   17   18        3       0.628   1.883   0.000  -2.510  -0.000   0.000
   22    1    2    3        3       0.628   1.883   0.000  -2.510  -0.000   0.000
   27    4    6    7        3       0.628   1.883   0.000  -2.510  -0.000   0.000
   27    4    3    2        3       0.628   1.883   0.000  -2.510  -0.000   0.000
   28    5    4    6        3       0.628   1.883   0.000  -2.510  -0.000   0.000
   24    2    3    4        3       0.628   1.883   0.000  -2.510  -0.000   0.000
   25    3    4    5        3       0.628   1.883   0.000  -2.510  -0.000   0.000
   32    6    4    5        3       0.628   1.883   0.000  -2.510  -0.000   0.000
   31    6    4    3        3       0.628   1.883   0.000  -2.510  -0.000   0.000
   32    6    4    3        3       0.628   1.883   0.000  -2.510  -0.000   0.000
   30    5    4    3        3       0.628   1.883   0.000  -2.510  -0.000   0.000
   50   19   17   18        3       0.628   1.883   0.000  -2.510  -0.000   0.000
   47   18   17   16        3       0.628   1.883   0.000  -2.510  -0.000   0.000
   28    5    4    3        3       0.628   1.883   0.000  -2.510  -0.000   0.000
   44   16   17   19        3       0.628   1.883   0.000  -2.510  -0.000   0.000
   50   19   17   16        3       0.628   1.883   0.000  -2.510  -0.000   0.000
   20    1    2    3        3       0.628   1.883   0.000  -2.510  -0.000   0.000
   48   18   17   16        3       0.628   1.883   0.000  -2.510  -0.000   0.000
   26    3    4    6        3       0.628   1.883   0.000  -2.510  -0.000   0.000
   41   15   14   40        3       0.628   1.883   0.000  -2.510  -0.000   0.000
   37   10    9   35        3       0.628   1.883   0.000  -2.510  -0.000   0.000
   33    7    6   32        3       0.628   1.883   0.000  -2.510  -0.000   0.000
   25    3    2   23        3       0.628   1.883   0.000  -2.510  -0.000   0.000
   27    4    3   26        3       0.628   1.883   0.000  -2.510  -0.000   0.000
   26    3    2   24        3       0.628   1.883   0.000  -2.510  -0.000   0.000
   48   18   17   46        3       0.628   1.883   0.000  -2.510  -0.000   0.000
   43   15   14   39        3       0.628   1.883   0.000  -2.510  -0.000   0.000
   52   19   17   46        3       0.628   1.883   0.000  -2.510  -0.000   0.000
   43   15   14   40        3       0.628   1.883   0.000  -2.510  -0.000   0.000
   28    5    4   27        3       0.628   1.883   0.000  -2.510  -0.000   0.000
   23    2    1   22        3       0.628   1.883   0.000  -2.510  -0.000   0.000
   24    2    1   22        3       0.628   1.883   0.000  -2.510  -0.000   0.000
   34    7    6   32        3       0.628   1.883   0.000  -2.510  -0.000   0.000
   24    2    1   21        3       0.628   1.883   0.000  -2.510  -0.000   0.000
   31    6    4   27        3       0.628   1.883   0.000  -2.510  -0.000   0.000
   42   15   14   40        3       0.628   1.883   0.000  -2.510  -0.000   0.000
   46   17   16   44        3       0.628   1.883   0.000  -2.510  -0.000   0.000
   49   18   17   46        3       0.628   1.883   0.000  -2.510  -0.000   0.000
   29    5    4   27        3       0.628   1.883   0.000  -2.510  -0.000   0.000
   30    5    4   27        3       0.628   1.883   0.000  -2.510  -0.000   0.000
   47   18   17   46        3       0.628   1.883   0.000  -2.510  -0.000   0.000
   34    7    6   31        3       0.628   1.883   0.000  -2.510  -0.000   0.000
   23    2    1   21        3       0.628   1.883   0.000  -2.510  -0.000   0.000
   42   15   14   39        3       0.628   1.883   0.000  -2.510  -0.000   0.000
   50   19   17   46        3       0.628   1.883   0.000  -2.510  -0.000   0.000
   24    2    1   20        3       0.628   1.883   0.000  -2.510  -0.000   0.000
   23    2    1   20        3       0.628   1.883   0.000  -2.510  -0.000   0.000
   33    7    6   31        3       0.628   1.883   0.000  -2.510  -0.000   0.000
   51   19   17   46        3       0.628   1.883   0.000  -2.510  -0.000   0.000
   27    4    3   25        3       0.628   1.883   0.000  -2.510  -0.000   0.000
   46   17   16   45        3       0.628   1.883   0.000  -2.510  -0.000   0.000
   25    3    2   24        3       0.628   1.883   0.000  -2.510  -0.000   0.000
   26    3    2   23        3       0.628   1.883   0.000  -2.510  -0.000   0.000
   37   10    9   36        3       0.628   1.883   0.000  -2.510  -0.000   0.000
   38   10    9   35        3       0.628   1.883   0.000  -2.510  -0.000   0.000
   32    6    4   27        3       0.628   1.883   0.000  -2.510  -0.000   0.000
   38   10    9   36        3       0.628   1.883   0.000  -2.510  -0.000   0.000
   41   15   14   39        3       0.628   1.883   0.000  -2.510  -0.000   0.000
   31    6    7    8        3      -4.096   5.088   2.966  -3.958  -0.000   0.000
   37   10    9    8        3      -4.096   5.088   2.966  -3.958  -0.000   0.000
   38   10    9    8        3      -4.096   5.088   2.966  -3.958  -0.000   0.000
   46   17   16    8        3      -4.096   5.088   2.966  -3.958  -0.000   0.000
   32    6    7    8        3      -4.096   5.088   2.966  -3.958  -0.000   0.000
   42   15   14   11        3       0.946   2.837   0.000  -3.782  -0.000   0.000
   43   15   14   11        3       0.946   2.837   0.000  -3.782  -0.000   0.000
   41   15   14   11        3       0.946   2.837   0.000  -3.782  -0.000   0.000
   36    9   10   11        3       0.946   2.837   0.000  -3.782  -0.000   0.000
   35    9   10   11        3       0.946   2.837   0.000  -3.782  -0.000   0.000
   35    9    8   16        3       1.172   3.515   0.000  -4.686  -0.000   0.000
   36    9    8   16        3       1.172   3.515   0.000  -4.686  -0.000   0.000
   44   16    8    9        3       1.172   3.515   0.000  -4.686  -0.000   0.000
   36    9    8    7        3       1.172   3.515   0.000  -4.686  -0.000   0.000
   45   16    8    9        3       1.172   3.515   0.000  -4.686  -0.000   0.000
   33    7    8    9        3       1.172   3.515   0.000  -4.686  -0.000   0.000
   34    7    8    9        3       1.172   3.515   0.000  -4.686  -0.000   0.000
   33    7    8   16        3       1.172   3.515   0.000  -4.686  -0.000   0.000
   45   16    8    7        3       1.172   3.515   0.000  -4.686  -0.000   0.000
   35    9    8    7        3       1.172   3.515   0.000  -4.686  -0.000   0.000
   34    7    8   16        3       1.172   3.515   0.000  -4.686  -0.000   0.000
   44   16    8    7        3       1.172   3.515   0.000  -4.686  -0.000   0.000
   40   14   11   10        3       0.732   2.197   0.000  -2.929  -0.000   0.000
   39   14   11   10        3       0.732   2.197   0.000  -2.929  -0.000   0.000
   37   10   11   14        3       0.732   2.197   0.000  -2.929  -0.000   0.000
   38   10   11   14        3       0.732   2.197   0.000  -2.929  -0.000   0.000
   37   10   11   13        3       0.732   2.197   0.000  -2.929  -0.000   0.000
   38   10   11   12        3       0.732   2.197   0.000  -2.929  -0.000   0.000
   39   14   11   13        3       0.732   2.197   0.000  -2.929  -0.000   0.000
   40   14   11   13        3       0.732   2.197   0.000  -2.929  -0.000   0.000
   40   14   11   12        3       0.732   2.197   0.000  -2.929  -0.000   0.000
   38   10   11   13        3       0.732   2.197   0.000  -2.929  -0.000   0.000
   39   14   11   12        3       0.732   2.197   0.000  -2.929  -0.000   0.000
   37   10   11   12        3       0.732   2.197   0.000  -2.929  -0.000   0.000
    8    7    6    4        3       3.335  -1.552   2.820  -4.602  -0.000   0.000
   13   11   10    9        3       0.000   0.000   0.000  -0.000  -0.000   0.000
   12   11   10    9        3       0.000   0.000   0.000  -0.000  -0.000   0.000
   11   10    9    8        3       3.408  -2.805  -0.360  -0.243  -0.000   0.000

[ pairs ]
     1     4    1
     2     5    1
     2     6    1
     3     7    1
     5     7    1
     4     8    1
     6     9    1
     7    10    1
     8    11    1
     9    12    1
     9    13    1
     6    16    1
     9    14    1
     3    20    1
     7    17    1
     3    21    1
    10    15    1
     3    22    1
    10    16    1
     9    17    1
     8    18    1
     1    25    1
    12    15    1
     8    19    1
     4    23    1
     1    26    1
    13    15    1
     4    24    1
     2    27    1
     5    25    1
     6    25    1
     5    26    1
     3    28    1
     6    26    1
     3    29    1
     3    30    1
     7    27    1
     6    28    1
     3    31    1
     6    29    1
     3    32    1
     6    30    1
     5    31    1
     5    32    1
     4    33    1
     4    34    1
     8    31    1
     8    32    1
     9    33    1
     7    35    1
    20    23    1
     9    34    1
     7    36    1
    21    23    1
    20    24    1
    22    23    1
    21    24    1
     8    37    1
    22    24    1
    11    35    1
     8    38    1
    11    36    1
    23    25    1
    24    25    1
    23    26    1
    16    33    1
    12    37    1
    10    39    1
    24    26    1
    16    34    1
    13    37    1
    12    38    1
    10    40    1
    16    35    1
    14    37    1
    13    38    1
    12    39    1
     7    44    1
    25    27    1
    16    36    1
    14    38    1
    13    39    1
    12    40    1
    11    41    1
     7    45    1
    26    27    1
    13    40    1
    11    42    1
     9    44    1
    11    43    1
     9    45    1
     8    46    1
    27    28    1
    27    29    1
    27    30    1
    27    31    1
    27    32    1
    18    44    1
    19    44    1
    18    45    1
    16    47    1
    31    33    1
    19    45    1
    16    48    1
    32    33    1
    31    34    1
    16    49    1
    32    34    1
    19    47    1
    16    50    1
    19    48    1
    16    51    1
    19    49    1
    18    50    1
    16    52    1
    18    51    1
    18    52    1
    35    37    1
    36    37    1
    35    38    1
    36    38    1
    39    41    1
    40    41    1
    39    42    1
    40    42    1
    39    43    1
    40    43    1
    44    46    1
    45    46    1
    46    47    1
    46    48    1
    46    49    1
    46    50    1
    46    51    1
    46    52    1

