
;
; GENERATED BY LigParGen Server
; Jorgensen Lab @ Yale University 
;
[ atomtypes ]
  opls_814  C814    12.0110     0.000    A    3.50000E-01   2.76144E-01
  opls_855  H855     1.0080     0.000    A    2.50000E-01   1.25520E-01
  opls_824  H824     1.0080     0.000    A    2.50000E-01   1.25520E-01
  opls_815  C815    12.0110     0.000    A    3.50000E-01   2.76144E-01
  opls_805  C805    12.0110     0.000    A    3.50000E-01   2.76144E-01
  opls_818  C818    12.0110     0.000    A    3.50000E-01   2.76144E-01
  opls_843  H843     1.0080     0.000    A    2.50000E-01   1.25520E-01
  opls_836  H836     1.0080     0.000    A    2.50000E-01   1.25520E-01
  opls_834  H834     1.0080     0.000    A    2.50000E-01   1.25520E-01
  opls_810  C810    12.0110     0.000    A    3.50000E-01   2.76144E-01
  opls_828  H828     1.0080     0.000    A    2.50000E-01   1.25520E-01
  opls_851  H851     1.0080     0.000    A    2.50000E-01   1.25520E-01
  opls_812  C812    12.0110     0.000    A    3.50000E-01   2.76144E-01
  opls_802  C802    12.0110     0.000    A    3.50000E-01   2.76144E-01
  opls_827  H827     1.0080     0.000    A    2.50000E-01   1.25520E-01
  opls_809  C809    12.0110     0.000    A    3.50000E-01   2.76144E-01
  opls_806  C806    12.0110     0.000    A    3.50000E-01   2.76144E-01
  opls_822  H822     1.0080     0.000    A    2.50000E-01   1.25520E-01
  opls_803  C803    12.0110     0.000    A    3.50000E-01   2.76144E-01
  opls_838  H838     1.0080     0.000    A    2.50000E-01   1.25520E-01
  opls_825  H825     1.0080     0.000    A    2.50000E-01   1.25520E-01
  opls_830  H830     1.0080     0.000    A    2.50000E-01   1.25520E-01
  opls_821  H821     1.0080     0.000    A    2.50000E-01   1.25520E-01
  opls_842  H842     1.0080     0.000    A    2.50000E-01   1.25520E-01
  opls_820  H820     1.0080     0.000    A    2.50000E-01   1.25520E-01
  opls_837  H837     1.0080     0.000    A    2.50000E-01   1.25520E-01
  opls_829  H829     1.0080     0.000    A    2.50000E-01   1.25520E-01
  opls_831  H831     1.0080     0.000    A    2.50000E-01   1.25520E-01
  opls_816  N816    14.0070     0.000    A    3.30000E-01   7.11280E-01
  opls_832  H832     1.0080     0.000    A    2.50000E-01   1.25520E-01
  opls_800  C800    12.0110     0.000    A    3.50000E-01   2.76144E-01
  opls_846  H846     1.0080     0.000    A    2.50000E-01   1.25520E-01
  opls_848  H848     1.0080     0.000    A    2.50000E-01   1.25520E-01
  opls_811  C811    12.0110     0.000    A    3.50000E-01   2.76144E-01
  opls_823  H823     1.0080     0.000    A    2.50000E-01   1.25520E-01
  opls_813  C813    12.0110     0.000    A    3.50000E-01   2.76144E-01
  opls_826  H826     1.0080     0.000    A    2.50000E-01   1.25520E-01
  opls_835  H835     1.0080     0.000    A    2.50000E-01   1.25520E-01
  opls_841  H841     1.0080     0.000    A    2.50000E-01   1.25520E-01
  opls_819  H819     1.0080     0.000    A    2.50000E-01   1.25520E-01
  opls_804  C804    12.0110     0.000    A    3.50000E-01   2.76144E-01
  opls_833  H833     1.0080     0.000    A    2.50000E-01   1.25520E-01
  opls_839  H839     1.0080     0.000    A    2.50000E-01   1.25520E-01
  opls_817  C817    12.0110     0.000    A    3.50000E-01   2.76144E-01
  opls_852  H852     1.0080     0.000    A    2.50000E-01   1.25520E-01
  opls_801  C801    12.0110     0.000    A    3.50000E-01   2.76144E-01
  opls_808  C808    12.0110     0.000    A    3.50000E-01   2.76144E-01
  opls_850  H850     1.0080     0.000    A    2.50000E-01   1.25520E-01
  opls_840  H840     1.0080     0.000    A    2.50000E-01   1.25520E-01
  opls_849  H849     1.0080     0.000    A    2.50000E-01   1.25520E-01
  opls_847  H847     1.0080     0.000    A    2.50000E-01   1.25520E-01
  opls_853  H853     1.0080     0.000    A    2.50000E-01   1.25520E-01
  opls_844  H844     1.0080     0.000    A    2.50000E-01   1.25520E-01
  opls_845  H845     1.0080     0.000    A    2.50000E-01   1.25520E-01
  opls_854  H854     1.0080     0.000    A    2.50000E-01   1.25520E-01
  opls_807  C807    12.0110     0.000    A    3.50000E-01   2.76144E-01
[ moleculetype ]
; Name               nrexcl
UNK                   3
[ atoms ]
;   nr       type  resnr residue  atom   cgnr     charge       mass  
     1   opls_800      1    UNK   C00      1    -0.2416    12.0110 
     2   opls_801      1    UNK   C01      1    -0.1782    12.0110 
     3   opls_802      1    UNK   C02      1    -0.1649    12.0110 
     4   opls_803      1    UNK   C03      1    -0.0134    12.0110 
     5   opls_804      1    UNK   C04      1     -0.237    12.0110 
     6   opls_805      1    UNK   C05      1    -0.0984    12.0110 
     7   opls_806      1    UNK   C06      1    -0.2348    12.0110 
     8   opls_807      1    UNK   C07      1    -0.2355    12.0110 
     9   opls_808      1    UNK   C08      1    -0.1007    12.0110 
    10   opls_809      1    UNK   C09      1    -0.1777    12.0110 
    11   opls_810      1    UNK   C0A      1    -0.1225    12.0110 
    12   opls_811      1    UNK   C0B      1    -0.1668    12.0110 
    13   opls_812      1    UNK   C0C      1    -0.2395    12.0110 
    14   opls_813      1    UNK   C0D      1    -0.1668    12.0110 
    15   opls_814      1    UNK   C0E      1    -0.1172    12.0110 
    16   opls_815      1    UNK   C0F      1     0.0229    12.0110 
    17   opls_816      1    UNK   N0G      1    -0.5984    14.0070 
    18   opls_817      1    UNK   C0H      1    -0.0457    12.0110 
    19   opls_818      1    UNK   C0I      1    -0.0434    12.0110 
    20   opls_819      1    UNK   H0J      1     0.0797     1.0080 
    21   opls_820      1    UNK   H0K      1     0.0797     1.0080 
    22   opls_821      1    UNK   H0M      1     0.0797     1.0080 
    23   opls_822      1    UNK   H0N      1     0.0903     1.0080 
    24   opls_823      1    UNK   H0O      1     0.0903     1.0080 
    25   opls_824      1    UNK   H0P      1     0.0859     1.0080 
    26   opls_825      1    UNK   H0Q      1     0.0859     1.0080 
    27   opls_826      1    UNK   H0R      1     0.0816     1.0080 
    28   opls_827      1    UNK   H0S      1     0.0816     1.0080 
    29   opls_828      1    UNK   H0T      1     0.0816     1.0080 
    30   opls_829      1    UNK   H0U      1     0.0885     1.0080 
    31   opls_830      1    UNK   H0V      1     0.0798     1.0080 
    32   opls_831      1    UNK   H0W      1     0.0798     1.0080 
    33   opls_832      1    UNK   H0X      2     0.0798     1.0080 
    34   opls_833      1    UNK   H0Y      2     0.0818     1.0080 
    35   opls_834      1    UNK   H0Z      2     0.0818     1.0080 
    36   opls_835      1    UNK   H10      2     0.0818     1.0080 
    37   opls_836      1    UNK   H11      2     0.0943     1.0080 
    38   opls_837      1    UNK   H12      2     0.0937     1.0080 
    39   opls_838      1    UNK   H13      2     0.0937     1.0080 
    40   opls_839      1    UNK   H14      2     0.0986     1.0080 
    41   opls_840      1    UNK   H15      2     0.0855     1.0080 
    42   opls_841      1    UNK   H16      2     0.0855     1.0080 
    43   opls_842      1    UNK   H17      2     0.0813     1.0080 
    44   opls_843      1    UNK   H18      2     0.0813     1.0080 
    45   opls_844      1    UNK   H19      2     0.0813     1.0080 
    46   opls_845      1    UNK   H1A      2     0.1014     1.0080 
    47   opls_846      1    UNK   H1B      2     0.1014     1.0080 
    48   opls_847      1    UNK   H1C      2     0.1026     1.0080 
    49   opls_848      1    UNK   H1D      2     0.0829     1.0080 
    50   opls_849      1    UNK   H1E      2     0.0829     1.0080 
    51   opls_850      1    UNK   H1F      2     0.0805     1.0080 
    52   opls_851      1    UNK   H1G      2     0.0805     1.0080 
    53   opls_852      1    UNK   H1H      2     0.0805     1.0080 
    54   opls_853      1    UNK   H1I      2     0.0807     1.0080 
    55   opls_854      1    UNK   H1J      2     0.0807     1.0080 
    56   opls_855      1    UNK   H1K      2     0.0807     1.0080 
[ bonds ]
    2     1     1      0.1529 224262.400
    3     2     1      0.1529 224262.400
    4     3     1      0.1529 224262.400
    5     4     1      0.1529 224262.400
    6     4     1      0.1529 224262.400
    7     6     1      0.1529 224262.400
    8     6     1      0.1529 224262.400
    9     4     1      0.1529 224262.400
   10     9     1      0.1529 224262.400
   11    10     1      0.1529 224262.400
   12    11     1      0.1529 224262.400
   13    12     1      0.1529 224262.400
   14    11     1      0.1529 224262.400
   15     9     1      0.1529 224262.400
   16    15     1      0.1529 224262.400
   17    16     1      0.1448 319657.600
   18    17     1      0.1448 319657.600
   19    17     1      0.1448 319657.600
   20     1     1      0.1090 284512.000
   21     1     1      0.1090 284512.000
   22     1     1      0.1090 284512.000
   23     2     1      0.1090 284512.000
   24     2     1      0.1090 284512.000
   25     3     1      0.1090 284512.000
   26     3     1      0.1090 284512.000
   27     5     1      0.1090 284512.000
   28     5     1      0.1090 284512.000
   29     5     1      0.1090 284512.000
   30     6     1      0.1090 284512.000
   31     7     1      0.1090 284512.000
   32     7     1      0.1090 284512.000
   33     7     1      0.1090 284512.000
   34     8     1      0.1090 284512.000
   35     8     1      0.1090 284512.000
   36     8     1      0.1090 284512.000
   37     9     1      0.1090 284512.000
   38    10     1      0.1090 284512.000
   39    10     1      0.1090 284512.000
   40    11     1      0.1090 284512.000
   41    12     1      0.1090 284512.000
   42    12     1      0.1090 284512.000
   43    13     1      0.1090 284512.000
   44    13     1      0.1090 284512.000
   45    13     1      0.1090 284512.000
   46    14     1      0.1090 284512.000
   47    14     1      0.1090 284512.000
   48    15     1      0.1090 284512.000
   49    16     1      0.1090 284512.000
   50    16     1      0.1090 284512.000
   51    18     1      0.1090 284512.000
   52    18     1      0.1090 284512.000
   53    18     1      0.1090 284512.000
   54    19     1      0.1090 284512.000
   55    19     1      0.1090 284512.000
   56    19     1      0.1090 284512.000
   15    14     1      0.1529 224262.400

[ angles ]
;  ai    aj    ak funct            c0            c1            c2            c3 
    1     2     3     1    112.700    488.273
    2     3     4     1    112.700    488.273
    3     4     5     1    112.700    488.273
    3     4     6     1    112.700    488.273
    4     6     7     1    112.700    488.273
    4     6     8     1    112.700    488.273
    3     4     9     1    112.700    488.273
    4     9    10     1    112.700    488.273
    9    10    11     1    112.700    488.273
   10    11    12     1    112.700    488.273
   11    12    13     1    112.700    488.273
   10    11    14     1    112.700    488.273
    4     9    15     1    112.700    488.273
    9    15    16     1    112.700    488.273
   15    16    17     1    109.470    470.282
   16    17    18     1    107.200    433.462
   16    17    19     1    107.200    433.462
    2     1    20     1    110.700    313.800
    2     1    21     1    110.700    313.800
    2     1    22     1    110.700    313.800
    1     2    23     1    110.700    313.800
    1     2    24     1    110.700    313.800
    2     3    25     1    110.700    313.800
    2     3    26     1    110.700    313.800
    4     5    27     1    110.700    313.800
    4     5    28     1    110.700    313.800
    4     5    29     1    110.700    313.800
    4     6    30     1    110.700    313.800
    6     7    31     1    110.700    313.800
    6     7    32     1    110.700    313.800
    6     7    33     1    110.700    313.800
    6     8    34     1    110.700    313.800
    6     8    35     1    110.700    313.800
    6     8    36     1    110.700    313.800
    4     9    37     1    110.700    313.800
    9    10    38     1    110.700    313.800
    9    10    39     1    110.700    313.800
   10    11    40     1    110.700    313.800
   11    12    41     1    110.700    313.800
   11    12    42     1    110.700    313.800
   12    13    43     1    110.700    313.800
   12    13    44     1    110.700    313.800
   12    13    45     1    110.700    313.800
   11    14    46     1    110.700    313.800
   11    14    47     1    110.700    313.800
    9    15    48     1    110.700    313.800
   15    16    49     1    110.700    313.800
   15    16    50     1    110.700    313.800
   17    18    51     1    109.500    292.880
   17    18    52     1    109.500    292.880
   17    18    53     1    109.500    292.880
   17    19    54     1    109.500    292.880
   17    19    55     1    109.500    292.880
   17    19    56     1    109.500    292.880
   15    14    47     1    110.700    313.800
   54    19    56     1    107.800    276.144
   51    18    53     1    107.800    276.144
   11    10    38     1    110.700    313.800
   41    12    42     1    107.800    276.144
   10     9    15     1    112.700    488.273
    9    15    14     1    112.700    488.273
   54    19    55     1    107.800    276.144
   46    14    47     1    107.800    276.144
   12    11    14     1    112.700    488.273
   17    16    50     1    109.500    292.880
   20     1    21     1    107.800    276.144
   14    11    40     1    110.700    313.800
   51    18    52     1    107.800    276.144
    5     4     6     1    112.700    488.273
    8     6    30     1    110.700    313.800
   34     8    35     1    107.800    276.144
   17    16    49     1    109.500    292.880
    5     4     9     1    112.700    488.273
   14    15    48     1    110.700    313.800
   27     5    28     1    107.800    276.144
   31     7    32     1    107.800    276.144
   15    14    46     1    110.700    313.800
   20     1    22     1    107.800    276.144
   13    12    42     1    110.700    313.800
   32     7    33     1    107.800    276.144
   10     9    37     1    110.700    313.800
   44    13    45     1    107.800    276.144
   11    14    15     1    112.700    488.273
   35     8    36     1    107.800    276.144
   49    16    50     1    107.800    276.144
   43    13    45     1    107.800    276.144
   43    13    44     1    107.800    276.144
    4     3    25     1    110.700    313.800
    6     4     9     1    112.700    488.273
   14    15    16     1    112.700    488.273
   28     5    29     1    107.800    276.144
   38    10    39     1    107.800    276.144
    4     3    26     1    110.700    313.800
   52    18    53     1    107.800    276.144
   25     3    26     1    107.800    276.144
    7     6    30     1    110.700    313.800
   16    15    48     1    110.700    313.800
   11    10    39     1    110.700    313.800
   27     5    29     1    107.800    276.144
   55    19    56     1    107.800    276.144
    3     2    23     1    110.700    313.800
   12    11    40     1    110.700    313.800
   18    17    19     1    107.200    433.462
    7     6     8     1    112.700    488.273
   23     2    24     1    107.800    276.144
   21     1    22     1    107.800    276.144
   15     9    37     1    110.700    313.800
    3     2    24     1    110.700    313.800
   13    12    41     1    110.700    313.800
   34     8    36     1    107.800    276.144
   31     7    33     1    107.800    276.144

[ dihedrals ]
; IMPROPER DIHEDRAL ANGLES 
;  ai    aj    ak    al funct            c0            c1            c2            c3            c4            c5

[ dihedrals ]
; PROPER DIHEDRAL ANGLES
;  ai    aj    ak    al funct            c0            c1            c2            c3            c4            c5
    4    3    2    1        3       2.301  -1.464   0.837  -1.674  -0.000   0.000
   15    9    4    6        3       2.301  -1.464   0.837  -1.674  -0.000   0.000
    8    6    4    3        3       2.301  -1.464   0.837  -1.674  -0.000   0.000
    9    4    3    2        3       2.301  -1.464   0.837  -1.674  -0.000   0.000
   14   15    9    4        3       2.301  -1.464   0.837  -1.674  -0.000   0.000
   15   14   11   10        3       2.301  -1.464   0.837  -1.674  -0.000   0.000
   16   15    9    4        3       2.301  -1.464   0.837  -1.674  -0.000   0.000
   15    9    4    5        3       2.301  -1.464   0.837  -1.674  -0.000   0.000
   15    9    4    3        3       2.301  -1.464   0.837  -1.674  -0.000   0.000
   16   15   14   11        3       2.301  -1.464   0.837  -1.674  -0.000   0.000
   10    9    4    6        3       2.301  -1.464   0.837  -1.674  -0.000   0.000
   15   14   11   12        3       2.301  -1.464   0.837  -1.674  -0.000   0.000
   14   15    9   10        3       2.301  -1.464   0.837  -1.674  -0.000   0.000
   16   15    9   10        3       2.301  -1.464   0.837  -1.674  -0.000   0.000
   11   14   15    9        3       2.301  -1.464   0.837  -1.674  -0.000   0.000
    8    6    4    5        3       2.301  -1.464   0.837  -1.674  -0.000   0.000
    9    4    6    7        3       2.301  -1.464   0.837  -1.674  -0.000   0.000
    9    4    6    8        3       2.301  -1.464   0.837  -1.674  -0.000   0.000
    6    4    3    2        3       2.301  -1.464   0.837  -1.674  -0.000   0.000
   14   11   12   13        3       2.301  -1.464   0.837  -1.674  -0.000   0.000
   15    9   10   11        3       2.301  -1.464   0.837  -1.674  -0.000   0.000
   10    9    4    5        3       2.301  -1.464   0.837  -1.674  -0.000   0.000
    5    4    3    2        3       2.301  -1.464   0.837  -1.674  -0.000   0.000
    7    6    4    3        3       2.301  -1.464   0.837  -1.674  -0.000   0.000
   10    9    4    3        3       2.301  -1.464   0.837  -1.674  -0.000   0.000
   11   10    9    4        3       2.301  -1.464   0.837  -1.674  -0.000   0.000
   12   11   10    9        3       2.301  -1.464   0.837  -1.674  -0.000   0.000
   13   12   11   10        3       2.301  -1.464   0.837  -1.674  -0.000   0.000
   14   11   10    9        3       2.301  -1.464   0.837  -1.674  -0.000   0.000
    7    6    4    5        3       2.301  -1.464   0.837  -1.674  -0.000   0.000
   18   17   16   15        3       1.789   3.492   0.536  -5.816  -0.000   0.000
   19   17   16   15        3       1.789   3.492   0.536  -5.816  -0.000   0.000
   33    7    6    8        3       0.628   1.883   0.000  -2.510  -0.000   0.000
   27    5    4    6        3       0.628   1.883   0.000  -2.510  -0.000   0.000
   30    6    4    3        3       0.628   1.883   0.000  -2.510  -0.000   0.000
   21    1    2    3        3       0.628   1.883   0.000  -2.510  -0.000   0.000
   46   14   11   12        3       0.628   1.883   0.000  -2.510  -0.000   0.000
   40   11   10    9        3       0.628   1.883   0.000  -2.510  -0.000   0.000
   29    5    4    6        3       0.628   1.883   0.000  -2.510  -0.000   0.000
   26    3    4    5        3       0.628   1.883   0.000  -2.510  -0.000   0.000
   27    5    4    9        3       0.628   1.883   0.000  -2.510  -0.000   0.000
   25    3    4    6        3       0.628   1.883   0.000  -2.510  -0.000   0.000
   25    3    2    1        3       0.628   1.883   0.000  -2.510  -0.000   0.000
   47   14   11   12        3       0.628   1.883   0.000  -2.510  -0.000   0.000
   38   10    9   15        3       0.628   1.883   0.000  -2.510  -0.000   0.000
   24    2    3    4        3       0.628   1.883   0.000  -2.510  -0.000   0.000
   44   13   12   11        3       0.628   1.883   0.000  -2.510  -0.000   0.000
   40   11   12   13        3       0.628   1.883   0.000  -2.510  -0.000   0.000
   22    1    2    3        3       0.628   1.883   0.000  -2.510  -0.000   0.000
   47   14   15   16        3       0.628   1.883   0.000  -2.510  -0.000   0.000
   48   15    9   10        3       0.628   1.883   0.000  -2.510  -0.000   0.000
   48   15   14   11        3       0.628   1.883   0.000  -2.510  -0.000   0.000
   49   16   15   14        3       0.628   1.883   0.000  -2.510  -0.000   0.000
   45   13   12   11        3       0.628   1.883   0.000  -2.510  -0.000   0.000
   37    9   10   11        3       0.628   1.883   0.000  -2.510  -0.000   0.000
   47   14   11   10        3       0.628   1.883   0.000  -2.510  -0.000   0.000
   37    9    4    3        3       0.628   1.883   0.000  -2.510  -0.000   0.000
   42   12   11   10        3       0.628   1.883   0.000  -2.510  -0.000   0.000
   41   12   11   10        3       0.628   1.883   0.000  -2.510  -0.000   0.000
   46   14   11   10        3       0.628   1.883   0.000  -2.510  -0.000   0.000
   36    8    6    4        3       0.628   1.883   0.000  -2.510  -0.000   0.000
   38   10   11   12        3       0.628   1.883   0.000  -2.510  -0.000   0.000
   48   15    9    4        3       0.628   1.883   0.000  -2.510  -0.000   0.000
   38   10    9    4        3       0.628   1.883   0.000  -2.510  -0.000   0.000
   50   16   15   14        3       0.628   1.883   0.000  -2.510  -0.000   0.000
   37    9   15   16        3       0.628   1.883   0.000  -2.510  -0.000   0.000
   40   11   14   15        3       0.628   1.883   0.000  -2.510  -0.000   0.000
   28    5    4    9        3       0.628   1.883   0.000  -2.510  -0.000   0.000
   37    9    4    5        3       0.628   1.883   0.000  -2.510  -0.000   0.000
   46   14   15    9        3       0.628   1.883   0.000  -2.510  -0.000   0.000
   36    8    6    7        3       0.628   1.883   0.000  -2.510  -0.000   0.000
   33    7    6    4        3       0.628   1.883   0.000  -2.510  -0.000   0.000
   31    7    6    8        3       0.628   1.883   0.000  -2.510  -0.000   0.000
   47   14   15    9        3       0.628   1.883   0.000  -2.510  -0.000   0.000
   28    5    4    6        3       0.628   1.883   0.000  -2.510  -0.000   0.000
   38   10   11   14        3       0.628   1.883   0.000  -2.510  -0.000   0.000
   46   14   15   16        3       0.628   1.883   0.000  -2.510  -0.000   0.000
   37    9   15   14        3       0.628   1.883   0.000  -2.510  -0.000   0.000
   42   12   11   14        3       0.628   1.883   0.000  -2.510  -0.000   0.000
   50   16   15    9        3       0.628   1.883   0.000  -2.510  -0.000   0.000
   30    6    4    9        3       0.628   1.883   0.000  -2.510  -0.000   0.000
   35    8    6    7        3       0.628   1.883   0.000  -2.510  -0.000   0.000
   37    9    4    6        3       0.628   1.883   0.000  -2.510  -0.000   0.000
   29    5    4    3        3       0.628   1.883   0.000  -2.510  -0.000   0.000
   35    8    6    4        3       0.628   1.883   0.000  -2.510  -0.000   0.000
   49   16   15    9        3       0.628   1.883   0.000  -2.510  -0.000   0.000
   32    7    6    8        3       0.628   1.883   0.000  -2.510  -0.000   0.000
   39   10   11   14        3       0.628   1.883   0.000  -2.510  -0.000   0.000
   26    3    4    9        3       0.628   1.883   0.000  -2.510  -0.000   0.000
   30    6    4    5        3       0.628   1.883   0.000  -2.510  -0.000   0.000
   25    3    4    5        3       0.628   1.883   0.000  -2.510  -0.000   0.000
   32    7    6    4        3       0.628   1.883   0.000  -2.510  -0.000   0.000
   43   13   12   11        3       0.628   1.883   0.000  -2.510  -0.000   0.000
   39   10    9    4        3       0.628   1.883   0.000  -2.510  -0.000   0.000
   26    3    4    6        3       0.628   1.883   0.000  -2.510  -0.000   0.000
   29    5    4    9        3       0.628   1.883   0.000  -2.510  -0.000   0.000
   39   10    9   15        3       0.628   1.883   0.000  -2.510  -0.000   0.000
   31    7    6    4        3       0.628   1.883   0.000  -2.510  -0.000   0.000
   34    8    6    4        3       0.628   1.883   0.000  -2.510  -0.000   0.000
   34    8    6    7        3       0.628   1.883   0.000  -2.510  -0.000   0.000
   25    3    4    9        3       0.628   1.883   0.000  -2.510  -0.000   0.000
   23    2    3    4        3       0.628   1.883   0.000  -2.510  -0.000   0.000
   28    5    4    3        3       0.628   1.883   0.000  -2.510  -0.000   0.000
   20    1    2    3        3       0.628   1.883   0.000  -2.510  -0.000   0.000
   26    3    2    1        3       0.628   1.883   0.000  -2.510  -0.000   0.000
   27    5    4    3        3       0.628   1.883   0.000  -2.510  -0.000   0.000
   39   10   11   12        3       0.628   1.883   0.000  -2.510  -0.000   0.000
   41   12   11   14        3       0.628   1.883   0.000  -2.510  -0.000   0.000
   23    2    1   20        3       0.628   1.883   0.000  -2.510  -0.000   0.000
   49   16   15   48        3       0.628   1.883   0.000  -2.510  -0.000   0.000
   45   13   12   41        3       0.628   1.883   0.000  -2.510  -0.000   0.000
   44   13   12   42        3       0.628   1.883   0.000  -2.510  -0.000   0.000
   26    3    2   24        3       0.628   1.883   0.000  -2.510  -0.000   0.000
   38   10    9   37        3       0.628   1.883   0.000  -2.510  -0.000   0.000
   25    3    2   24        3       0.628   1.883   0.000  -2.510  -0.000   0.000
   39   10    9   37        3       0.628   1.883   0.000  -2.510  -0.000   0.000
   26    3    2   23        3       0.628   1.883   0.000  -2.510  -0.000   0.000
   40   11   10   38        3       0.628   1.883   0.000  -2.510  -0.000   0.000
   24    2    1   21        3       0.628   1.883   0.000  -2.510  -0.000   0.000
   23    2    1   21        3       0.628   1.883   0.000  -2.510  -0.000   0.000
   44   13   12   41        3       0.628   1.883   0.000  -2.510  -0.000   0.000
   48   15   14   46        3       0.628   1.883   0.000  -2.510  -0.000   0.000
   45   13   12   42        3       0.628   1.883   0.000  -2.510  -0.000   0.000
   33    7    6   30        3       0.628   1.883   0.000  -2.510  -0.000   0.000
   31    7    6   30        3       0.628   1.883   0.000  -2.510  -0.000   0.000
   40   11   10   39        3       0.628   1.883   0.000  -2.510  -0.000   0.000
   24    2    1   22        3       0.628   1.883   0.000  -2.510  -0.000   0.000
   24    2    1   20        3       0.628   1.883   0.000  -2.510  -0.000   0.000
   43   13   12   42        3       0.628   1.883   0.000  -2.510  -0.000   0.000
   25    3    2   23        3       0.628   1.883   0.000  -2.510  -0.000   0.000
   36    8    6   30        3       0.628   1.883   0.000  -2.510  -0.000   0.000
   34    8    6   30        3       0.628   1.883   0.000  -2.510  -0.000   0.000
   48   15   14   47        3       0.628   1.883   0.000  -2.510  -0.000   0.000
   43   13   12   41        3       0.628   1.883   0.000  -2.510  -0.000   0.000
   35    8    6   30        3       0.628   1.883   0.000  -2.510  -0.000   0.000
   50   16   15   48        3       0.628   1.883   0.000  -2.510  -0.000   0.000
   48   15    9   37        3       0.628   1.883   0.000  -2.510  -0.000   0.000
   23    2    1   22        3       0.628   1.883   0.000  -2.510  -0.000   0.000
   46   14   11   40        3       0.628   1.883   0.000  -2.510  -0.000   0.000
   42   12   11   40        3       0.628   1.883   0.000  -2.510  -0.000   0.000
   32    7    6   30        3       0.628   1.883   0.000  -2.510  -0.000   0.000
   47   14   11   40        3       0.628   1.883   0.000  -2.510  -0.000   0.000
   41   12   11   40        3       0.628   1.883   0.000  -2.510  -0.000   0.000
   48   15   16   17        3      -4.096   5.088   2.966  -3.958  -0.000   0.000
   53   18   17   19        3       1.172   3.515   0.000  -4.686  -0.000   0.000
   49   16   17   18        3       1.172   3.515   0.000  -4.686  -0.000   0.000
   54   19   17   18        3       1.172   3.515   0.000  -4.686  -0.000   0.000
   49   16   17   19        3       1.172   3.515   0.000  -4.686  -0.000   0.000
   51   18   17   16        3       1.172   3.515   0.000  -4.686  -0.000   0.000
   52   18   17   16        3       1.172   3.515   0.000  -4.686  -0.000   0.000
   56   19   17   18        3       1.172   3.515   0.000  -4.686  -0.000   0.000
   50   16   17   18        3       1.172   3.515   0.000  -4.686  -0.000   0.000
   55   19   17   16        3       1.172   3.515   0.000  -4.686  -0.000   0.000
   55   19   17   18        3       1.172   3.515   0.000  -4.686  -0.000   0.000
   51   18   17   19        3       1.172   3.515   0.000  -4.686  -0.000   0.000
   54   19   17   16        3       1.172   3.515   0.000  -4.686  -0.000   0.000
   53   18   17   16        3       1.172   3.515   0.000  -4.686  -0.000   0.000
   50   16   17   19        3       1.172   3.515   0.000  -4.686  -0.000   0.000
   52   18   17   19        3       1.172   3.515   0.000  -4.686  -0.000   0.000
   56   19   17   16        3       1.172   3.515   0.000  -4.686  -0.000   0.000
   17   16   15   14        3       3.335  -1.552   2.820  -4.602  -0.000   0.000
   17   16   15    9        3       3.335  -1.552   2.820  -4.602  -0.000   0.000

[ pairs ]
     1     4    1
     2     5    1
     2     6    1
     3     7    1
     3     8    1
     2     9    1
     5     7    1
     5     8    1
     3    10    1
     5    10    1
     4    11    1
     7     9    1
     6    10    1
     8     9    1
     4    14    1
     3    15    1
     5    15    1
     4    16    1
     9    12    1
     6    15    1
    10    13    1
     3    20    1
     3    21    1
     3    22    1
    10    16    1
     9    17    1
     1    25    1
    13    14    1
    12    15    1
    11    16    1
     4    23    1
     1    26    1
     4    24    1
     5    25    1
     3    27    1
    14    17    1
     6    25    1
     5    26    1
     3    28    1
     6    26    1
     3    29    1
    15    18    1
     6    27    1
     3    30    1
    15    19    1
     9    25    1
     6    28    1
     9    26    1
     6    29    1
     5    30    1
     4    31    1
     9    27    1
     4    32    1
     9    28    1
     4    33    1
     9    29    1
     4    34    1
     9    30    1
     8    31    1
     4    35    1
     8    32    1
     4    36    1
     3    37    1
     8    33    1
     7    34    1
     7    35    1
     5    37    1
     4    38    1
    20    23    1
     7    36    1
     6    37    1
     4    39    1
    21    23    1
    20    24    1
    22    23    1
    21    24    1
    22    24    1
    23    25    1
    11    37    1
    24    25    1
    23    26    1
     9    40    1
    24    26    1
    12    38    1
    14    37    1
    12    39    1
    10    41    1
    14    38    1
    10    42    1
     4    48    1
    16    37    1
    15    38    1
    14    39    1
    13    40    1
    15    39    1
    11    43    1
    15    40    1
    14    41    1
    11    44    1
     9    46    1
    14    42    1
    11    45    1
    10    46    1
     9    47    1
    10    47    1
    12    46    1
    10    48    1
     9    49    1
    12    47    1
    11    48    1
     9    50    1
    30    31    1
    30    32    1
    16    46    1
    30    33    1
    16    47    1
    14    49    1
    30    34    1
    14    50    1
    30    35    1
    17    48    1
    30    36    1
    18    49    1
    16    51    1
    19    49    1
    18    50    1
    16    52    1
    19    50    1
    16    53    1
    19    51    1
    16    54    1
    19    52    1
    16    55    1
    19    53    1
    18    54    1
    16    56    1
    18    55    1
    18    56    1
    37    38    1
    37    39    1
    38    40    1
    39    40    1
    40    41    1
    40    42    1
    41    43    1
    42    43    1
    41    44    1
    37    48    1
    42    44    1
    41    45    1
    40    46    1
    42    45    1
    40    47    1
    46    48    1
    47    48    1
    48    49    1
    48    50    1

