LIGPARGEN GENERATED GRO FILE
   56
    1UNK    C00    1   0.100   0.100   0.000
    1UNK    C01    2  -0.052   0.100   0.000
    1UNK    C02    3  -0.111   0.100   0.142
    1UNK    C03    4  -0.267   0.113   0.159
    1UNK    C04    5  -0.311   0.247   0.095
    1UNK    C05    6  -0.351  -0.004   0.089
    1UNK    C06    7  -0.348  -0.011  -0.065
    1UNK    C07    8  -0.325  -0.146   0.142
    1UNK    C08    9  -0.296   0.127   0.316
    1UNK    C09   10  -0.446   0.141   0.351
    1UNK    C0A   11  -0.458   0.105   0.499
    1UNK    C0B   12  -0.429   0.225   0.590
    1UNK    C0C   13  -0.446   0.193   0.738
    1UNK    C0D   14  -0.360  -0.011   0.511
    1UNK    C0E   15  -0.244   0.017   0.413
    1UNK    C0F   16  -0.112   0.050   0.488
    1UNK    N0G   17  -0.068  -0.059   0.578
    1UNK    C0H   18  -0.037  -0.184   0.508
    1UNK    C0I   19   0.049  -0.017   0.656
    1UNK    H0J   20   0.137   0.093  -0.103
    1UNK    H0K   21   0.139   0.014   0.056
    1UNK    H0M   22   0.140   0.192   0.044
    1UNK    H0N   23  -0.082   0.010  -0.053
    1UNK    H0O   24  -0.087   0.186  -0.057
    1UNK    H0P   25  -0.065   0.184   0.196
    1UNK    H0Q   26  -0.076   0.009   0.192
    1UNK    H0R   27  -0.285   0.255  -0.011
    1UNK    H0S   28  -0.265   0.333   0.146
    1UNK    H0T   29  -0.420   0.261   0.101
    1UNK    H0U   30  -0.457   0.017   0.110
    1UNK    H0V   31  -0.257  -0.057  -0.103
    1UNK    H0W   32  -0.364   0.085  -0.113
    1UNK    H0X   33  -0.429  -0.076  -0.100
    1UNK    H0Y   34  -0.218  -0.168   0.148
    1UNK    H0Z   35  -0.370  -0.221   0.077
    1UNK    H10   36  -0.372  -0.160   0.239
    1UNK    H11   37  -0.249   0.221   0.348
    1UNK    H12   38  -0.508   0.070   0.295
    1UNK    H13   39  -0.484   0.241   0.330
    1UNK    H14   40  -0.560   0.070   0.520
    1UNK    H15   41  -0.499   0.305   0.565
    1UNK    H16   42  -0.328   0.264   0.574
    1UNK    H17   43  -0.545   0.152   0.758
    1UNK    H18   44  -0.434   0.284   0.797
    1UNK    H19   45  -0.371   0.121   0.773
    1UNK    H1A   46  -0.411  -0.103   0.479
    1UNK    H1B   47  -0.328  -0.029   0.614
    1UNK    H1C   48  -0.225  -0.074   0.357
    1UNK    H1D   49  -0.129   0.140   0.548
    1UNK    H1E   50  -0.033   0.074   0.416
    1UNK    H1F   51  -0.123  -0.223   0.454
    1UNK    H1G   52  -0.011  -0.262   0.581
    1UNK    H1H   53   0.047  -0.172   0.438
    1UNK    H1I   54   0.028   0.076   0.712
    1UNK    H1J   55   0.137  -0.001   0.594
    1UNK    H1K   56   0.073  -0.093   0.731
   1.00000   1.00000   1.00000

