LIGPARGEN GENERATED GRO FILE
   36
    1UNK    C00    1   0.100   0.100   0.000
    1UNK    C01    2  -0.052   0.100   0.000
    1UNK    C02    3  -0.118   0.100   0.137
    1UNK    C03    4  -0.088  -0.014   0.238
    1UNK    C04    5  -0.131   0.083   0.351
    1UNK    C05    6  -0.093   0.204   0.257
    1UNK    C06    7   0.055   0.239   0.286
    1UNK    C07    8  -0.188   0.331   0.263
    1UNK    C08    9  -0.334   0.294   0.226
    1UNK    C09   10  -0.190   0.386   0.407
    1UNK    C0A   11  -0.137   0.439   0.163
    1UNK    C0B   12  -0.221   0.566   0.151
    1UNK    H0C   13   0.137   0.083  -0.102
    1UNK    H0D   14   0.141   0.022   0.064
    1UNK    H0E   15   0.140   0.196   0.032
    1UNK    H0F   16  -0.085   0.011  -0.055
    1UNK    H0G   17  -0.087   0.186  -0.057
    1UNK    H0H   18  -0.225   0.093   0.112
    1UNK    H0I   19   0.016  -0.045   0.244
    1UNK    H0J   20  -0.150  -0.103   0.228
    1UNK    H0K   21  -0.074   0.073   0.444
    1UNK    H0M   22  -0.237   0.073   0.376
    1UNK    H0N   23   0.119   0.151   0.286
    1UNK    H0O   24   0.066   0.286   0.384
    1UNK    H0P   25   0.095   0.308   0.212
    1UNK    H0Q   26  -0.371   0.209   0.282
    1UNK    H0R   27  -0.344   0.271   0.119
    1UNK    H0S   28  -0.403   0.377   0.246
    1UNK    H0T   29  -0.216   0.308   0.479
    1UNK    H0U   30  -0.264   0.466   0.418
    1UNK    H0V   31  -0.093   0.428   0.436
    1UNK    H0W   32  -0.127   0.394   0.063
    1UNK    H0X   33  -0.036   0.471   0.192
    1UNK    H0Y   34  -0.322   0.545   0.115
    1UNK    H0Z   35  -0.174   0.634   0.080
    1UNK    H10   36  -0.227   0.618   0.247
   1.00000   1.00000   1.00000

