LIGPARGEN GENERATED GRO FILE
   30
    1UNK    C00    1   0.100   0.100   0.000
    1UNK    C01    2  -0.053   0.100   0.000
    1UNK    C02    3  -0.104   0.100   0.143
    1UNK    O03    4  -0.061  -0.021   0.210
    1UNK    C04    5  -0.171  -0.008   0.305
    1UNK    C05    6  -0.194  -0.144   0.369
    1UNK    C06    7  -0.253   0.079   0.197
    1UNK    O07    8  -0.306   0.200   0.258
    1UNK    C08    9  -0.440   0.208   0.237
    1UNK    O09   10  -0.512   0.296   0.282
    1UNK    O0A   11  -0.482   0.105   0.159
    1UNK    C0B   12  -0.369   0.031   0.109
    1UNK    C0C   13  -0.358   0.071  -0.038
    1UNK    C0D   14  -0.408  -0.114   0.122
    1UNK    H0E   15   0.138   0.135  -0.096
    1UNK    H0F   16   0.138  -0.002   0.017
    1UNK    H0G   17   0.141   0.164   0.079
    1UNK    H0H   18  -0.086   0.012  -0.055
    1UNK    H0I   19  -0.089   0.189  -0.052
    1UNK    H0J   20  -0.060   0.188   0.193
    1UNK    H0K   21  -0.139   0.057   0.388
    1UNK    H0M   22  -0.207  -0.224   0.295
    1UNK    H0N   23  -0.278  -0.142   0.438
    1UNK    H0O   24  -0.105  -0.171   0.428
    1UNK    H0P   25  -0.326   0.175  -0.049
    1UNK    H0Q   26  -0.455   0.064  -0.088
    1UNK    H0R   27  -0.289   0.007  -0.093
    1UNK    H0S   28  -0.444  -0.138   0.223
    1UNK    H0T   29  -0.325  -0.181   0.097
    1UNK    H0U   30  -0.492  -0.138   0.055
   1.00000   1.00000   1.00000

