LIGPARGEN GENERATED GRO FILE
   47
    1UNK    C00    1   0.100   0.100   0.000
    1UNK    C01    2  -0.052   0.100   0.000
    1UNK    C02    3  -0.106   0.100   0.143
    1UNK    C03    4  -0.259   0.100   0.148
    1UNK    C04    5  -0.315   0.100   0.292
    1UNK    C05    6  -0.263   0.218   0.378
    1UNK    C06    7  -0.310   0.355   0.333
    1UNK    C07    8  -0.469   0.092   0.288
    1UNK    C08    9  -0.533   0.091   0.427
    1UNK    C09   10  -0.686   0.082   0.421
    1UNK    C0A   11  -0.751   0.081   0.561
    1UNK    C0B   12  -0.717   0.207   0.641
    1UNK    C0C   13  -0.905   0.068   0.551
    1UNK    C0D   14  -0.952  -0.063   0.489
    1UNK    C0E   15  -1.104  -0.073   0.488
    1UNK    H0F   16   0.138   0.100  -0.103
    1UNK    H0G   17   0.139   0.011   0.051
    1UNK    H0H   18   0.139   0.189   0.051
    1UNK    H0I   19  -0.089   0.012  -0.054
    1UNK    H0J   20  -0.088   0.189  -0.053
    1UNK    H0K   21  -0.066   0.189   0.193
    1UNK    H0M   22  -0.068   0.012   0.197
    1UNK    H0N   23  -0.296   0.011   0.096
    1UNK    H0O   24  -0.297   0.186   0.092
    1UNK    H0P   25  -0.279   0.008   0.340
    1UNK    H0Q   26  -0.153   0.217   0.380
    1UNK    H0R   27  -0.292   0.203   0.483
    1UNK    H0S   28  -0.299   0.369   0.225
    1UNK    H0T   29  -0.251   0.433   0.383
    1UNK    H0U   30  -0.415   0.372   0.360
    1UNK    H0V   31  -0.498  -0.000   0.235
    1UNK    H0W   32  -0.510   0.175   0.229
    1UNK    H0X   33  -0.505   0.182   0.479
    1UNK    H0Y   34  -0.494   0.006   0.485
    1UNK    H0Z   35  -0.712  -0.009   0.367
    1UNK    H10   36  -0.725   0.166   0.362
    1UNK    H11   37  -0.713  -0.005   0.617
    1UNK    H12   38  -0.747   0.298   0.586
    1UNK    H13   39  -0.610   0.214   0.663
    1UNK    H14   40  -0.770   0.208   0.737
    1UNK    H15   41  -0.946   0.153   0.494
    1UNK    H16   42  -0.947   0.075   0.652
    1UNK    H17   43  -0.910  -0.148   0.545
    1UNK    H18   44  -0.917  -0.071   0.385
    1UNK    H19   45  -1.144  -0.070   0.590
    1UNK    H1A   46  -1.135  -0.168   0.442
    1UNK    H1B   47  -1.147   0.009   0.430
   1.00000   1.00000   1.00000

