LIGPARGEN GENERATED GRO FILE
   30
    1UNK    C00    1   0.100   0.100   0.000
    1UNK    C01    2  -0.052   0.100   0.000
    1UNK    C02    3  -0.107   0.100   0.142
    1UNK    C03    4  -0.090   0.229   0.230
    1UNK    C04    5  -0.078   0.366   0.165
    1UNK    C05    6  -0.231   0.199   0.287
    1UNK    C06    7  -0.262   0.117   0.159
    1UNK    C07    8  -0.346  -0.010   0.181
    1UNK    C08    9  -0.483   0.027   0.238
    1UNK    C09   10  -0.363  -0.085   0.049
    1UNK    H0A   11   0.138   0.105  -0.103
    1UNK    H0B   12   0.139   0.009   0.047
    1UNK    H0C   13   0.141   0.185   0.055
    1UNK    H0D   14  -0.087   0.011  -0.053
    1UNK    H0E   15  -0.089   0.187  -0.056
    1UNK    H0F   16  -0.070   0.011   0.196
    1UNK    H0G   17  -0.011   0.218   0.306
    1UNK    H0H   18  -0.155   0.382   0.089
    1UNK    H0I   19   0.020   0.378   0.118
    1UNK    H0J   20  -0.089   0.445   0.240
    1UNK    H0K   21  -0.296   0.285   0.304
    1UNK    H0M   22  -0.228   0.139   0.379
    1UNK    H0N   23  -0.305   0.180   0.081
    1UNK    H0O   24  -0.295  -0.076   0.253
    1UNK    H0P   25  -0.536   0.096   0.172
    1UNK    H0Q   26  -0.472   0.076   0.336
    1UNK    H0R   27  -0.544  -0.062   0.252
    1UNK    H0S   28  -0.411  -0.022  -0.027
    1UNK    H0T   29  -0.426  -0.174   0.064
    1UNK    H0U   30  -0.267  -0.118   0.010
   1.00000   1.00000   1.00000

