LIGPARGEN GENERATED GRO FILE
   31
    1UNK    C00    1   0.100   0.100   0.000
    1UNK    C01    2  -0.052   0.100   0.000
    1UNK    C02    3  -0.117   0.100   0.141
    1UNK    C03    4  -0.077   0.226   0.221
    1UNK    C04    5  -0.124   0.224   0.364
    1UNK    O05    6  -0.152   0.123   0.427
    1UNK    C06    7  -0.271   0.091   0.129
    1UNK    C07    8  -0.326  -0.033   0.057
    1UNK    C08    9  -0.286  -0.165   0.123
    1UNK    C09   10  -0.343  -0.283   0.048
    1UNK    O0A   11  -0.411  -0.276  -0.054
    1UNK    O0B   12  -0.305  -0.399   0.109
    1UNK    C0C   13  -0.354  -0.516   0.044
    1UNK    H0D   14   0.137   0.084  -0.102
    1UNK    H0E   15   0.139   0.020   0.063
    1UNK    H0F   16   0.140   0.196   0.034
    1UNK    H0G   17  -0.083   0.010  -0.055
    1UNK    H0H   18  -0.088   0.186  -0.057
    1UNK    H0I   19  -0.080   0.012   0.195
    1UNK    H0J   20  -0.118   0.315   0.173
    1UNK    H0K   21   0.032   0.237   0.225
    1UNK    H0M   22  -0.126   0.323   0.413
    1UNK    H0N   23  -0.308   0.180   0.076
    1UNK    H0O   24  -0.316   0.094   0.229
    1UNK    H0P   25  -0.294  -0.032  -0.048
    1UNK    H0Q   26  -0.435  -0.025   0.055
    1UNK    H0R   27  -0.324  -0.168   0.226
    1UNK    H0S   28  -0.177  -0.176   0.124
    1UNK    H0T   29  -0.324  -0.603   0.103
    1UNK    H0U   30  -0.311  -0.525  -0.056
    1UNK    H0V   31  -0.464  -0.514   0.039
   1.00000   1.00000   1.00000

