
;
; GENERATED BY LigParGen Server
; Jorgensen Lab @ Yale University 
;
[ atomtypes ]
  opls_818  H818     1.0080     0.000    A    2.50000E-01   1.25520E-01
  opls_824  H824     1.0080     0.000    A    2.50000E-01   1.25520E-01
  opls_805  O805    15.9990     0.000    A    2.96000E-01   8.78640E-01
  opls_828  H828     1.0080     0.000    A    2.50000E-01   1.25520E-01
  opls_813  H813     1.0080     0.000    A    2.50000E-01   1.25520E-01
  opls_806  C806    12.0110     0.000    A    3.50000E-01   2.76144E-01
  opls_815  H815     1.0080     0.000    A    2.50000E-01   1.25520E-01
  opls_801  C801    12.0110     0.000    A    3.50000E-01   2.76144E-01
  opls_830  H830     1.0080     0.000    A    2.50000E-01   1.25520E-01
  opls_822  H822     1.0080     0.000    A    2.50000E-01   1.25520E-01
  opls_803  C803    12.0110     0.000    A    3.50000E-01   2.76144E-01
  opls_825  H825     1.0080     0.000    A    2.50000E-01   1.25520E-01
  opls_814  H814     1.0080     0.000    A    2.50000E-01   1.25520E-01
  opls_810  O810    15.9990     0.000    A    2.96000E-01   8.78640E-01
  opls_821  H821     1.0080     0.000    A    2.50000E-01   1.25520E-01
  opls_820  H820     1.0080     0.000    A    2.50000E-01   1.25520E-01
  opls_809  C809    12.0110     0.000    A    3.55000E-01   2.92880E-01
  opls_829  H829     1.0080     0.000    A    2.50000E-01   1.25520E-01
  opls_804  C804    12.0110     0.000    A    3.55000E-01   2.92880E-01
  opls_816  H816     1.0080     0.000    A    2.50000E-01   1.25520E-01
  opls_800  C800    12.0110     0.000    A    3.50000E-01   2.76144E-01
  opls_802  C802    12.0110     0.000    A    3.50000E-01   2.76144E-01
  opls_823  H823     1.0080     0.000    A    2.50000E-01   1.25520E-01
  opls_826  H826     1.0080     0.000    A    2.50000E-01   1.25520E-01
  opls_819  H819     1.0080     0.000    A    2.50000E-01   1.25520E-01
  opls_827  H827     1.0080     0.000    A    2.50000E-01   1.25520E-01
  opls_811  O811    15.9990     0.000    A    2.90000E-01   5.85760E-01
  opls_812  C812    12.0110     0.000    A    3.50000E-01   2.76144E-01
  opls_808  C808    12.0110     0.000    A    3.50000E-01   2.76144E-01
  opls_817  H817     1.0080     0.000    A    2.50000E-01   1.25520E-01
  opls_807  C807    12.0110     0.000    A    3.50000E-01   2.76144E-01
[ moleculetype ]
; Name               nrexcl
UNK                   3
[ atoms ]
;   nr       type  resnr residue  atom   cgnr     charge       mass  
     1   opls_800      1    UNK   C00      1    -0.2408    12.0110 
     2   opls_801      1    UNK   C01      1    -0.1796    12.0110 
     3   opls_802      1    UNK   C02      1    -0.1003    12.0110 
     4   opls_803      1    UNK   C03      1    -0.2523    12.0110 
     5   opls_804      1    UNK   C04      1     0.3109    12.0110 
     6   opls_805      1    UNK   O05      1    -0.4441    15.9990 
     7   opls_806      1    UNK   C06      1    -0.1764    12.0110 
     8   opls_807      1    UNK   C07      1     -0.171    12.0110 
     9   opls_808      1    UNK   C08      1    -0.1891    12.0110 
    10   opls_809      1    UNK   C09      1     0.4321    12.0110 
    11   opls_810      1    UNK   O0A      1    -0.4511    15.9990 
    12   opls_811      1    UNK   O0B      1    -0.3557    15.9990 
    13   opls_812      1    UNK   C0C      1    -0.0582    12.0110 
    14   opls_813      1    UNK   H0D      1     0.0824     1.0080 
    15   opls_814      1    UNK   H0E      1     0.0824     1.0080 
    16   opls_815      1    UNK   H0F      1     0.0824     1.0080 
    17   opls_816      1    UNK   H0G      1     0.0929     1.0080 
    18   opls_817      1    UNK   H0H      1     0.0929     1.0080 
    19   opls_818      1    UNK   H0I      1     0.1163     1.0080 
    20   opls_819      1    UNK   H0J      1     0.1219     1.0080 
    21   opls_820      1    UNK   H0K      1     0.1219     1.0080 
    22   opls_821      1    UNK   H0M      1     0.1042     1.0080 
    23   opls_822      1    UNK   H0N      1     0.0946     1.0080 
    24   opls_823      1    UNK   H0O      1     0.0946     1.0080 
    25   opls_824      1    UNK   H0P      1     0.1053     1.0080 
    26   opls_825      1    UNK   H0Q      1     0.1053     1.0080 
    27   opls_826      1    UNK   H0R      1     0.1375     1.0080 
    28   opls_827      1    UNK   H0S      1     0.1375     1.0080 
    29   opls_828      1    UNK   H0T      1     0.1013     1.0080 
    30   opls_829      1    UNK   H0U      1     0.1013     1.0080 
    31   opls_830      1    UNK   H0V      1     0.1013     1.0080 
[ bonds ]
    2     1     1      0.1529 224262.400
    3     2     1      0.1529 224262.400
    4     3     1      0.1529 224262.400
    5     4     1      0.1522 265265.600
    6     5     1      0.1229 476976.000
    7     3     1      0.1529 224262.400
    8     7     1      0.1529 224262.400
    9     8     1      0.1529 224262.400
   10     9     1      0.1522 265265.600
   11    10     1      0.1229 476976.000
   12    10     1      0.1327 179075.200
   13    12     1      0.1410 267776.000
   14     1     1      0.1090 284512.000
   15     1     1      0.1090 284512.000
   16     1     1      0.1090 284512.000
   17     2     1      0.1090 284512.000
   18     2     1      0.1090 284512.000
   19     3     1      0.1090 284512.000
   20     4     1      0.1090 284512.000
   21     4     1      0.1090 284512.000
   22     5     1      0.1090 284512.000
   23     7     1      0.1090 284512.000
   24     7     1      0.1090 284512.000
   25     8     1      0.1090 284512.000
   26     8     1      0.1090 284512.000
   27     9     1      0.1090 284512.000
   28     9     1      0.1090 284512.000
   29    13     1      0.1090 284512.000
   30    13     1      0.1090 284512.000
   31    13     1      0.1090 284512.000

[ angles ]
;  ai    aj    ak funct            c0            c1            c2            c3 
    1     2     3     1    112.700    488.273
    2     3     4     1    112.700    488.273
    3     4     5     1    111.100    527.184
    4     5     6     1    120.400    669.440
    2     3     7     1    112.700    488.273
    3     7     8     1    112.700    488.273
    7     8     9     1    112.700    488.273
    8     9    10     1    111.100    527.184
    9    10    11     1    120.400    669.440
    9    10    12     1    111.400    677.808
   10    12    13     1    116.900    694.544
    2     1    14     1    110.700    313.800
    2     1    15     1    110.700    313.800
    2     1    16     1    110.700    313.800
    1     2    17     1    110.700    313.800
    1     2    18     1    110.700    313.800
    2     3    19     1    110.700    313.800
    3     4    20     1    110.700    313.800
    3     4    21     1    110.700    313.800
    4     5    22     1    115.000    292.880
    3     7    23     1    110.700    313.800
    3     7    24     1    110.700    313.800
    7     8    25     1    110.700    313.800
    7     8    26     1    110.700    313.800
    8     9    27     1    110.700    313.800
    8     9    28     1    110.700    313.800
   12    13    29     1    109.500    292.880
   12    13    30     1    109.500    292.880
   12    13    31     1    109.500    292.880
   23     7    24     1    107.800    276.144
    9     8    25     1    110.700    313.800
    3     2    18     1    110.700    313.800
   11    10    12     1    123.400    694.544
    7     3    19     1    110.700    313.800
    4     3     7     1    112.700    488.273
    6     5    22     1    123.000    292.880
    3     2    17     1    110.700    313.800
    4     3    19     1    110.700    313.800
   25     8    26     1    107.800    276.144
   27     9    28     1    107.800    276.144
    8     7    23     1    110.700    313.800
   15     1    16     1    107.800    276.144
   14     1    15     1    107.800    276.144
   30    13    31     1    107.800    276.144
   17     2    18     1    107.800    276.144
    5     4    20     1    109.500    292.880
    9     8    26     1    110.700    313.800
   10     9    28     1    109.500    292.880
    5     4    21     1    109.500    292.880
    8     7    24     1    110.700    313.800
   29    13    30     1    107.800    276.144
   29    13    31     1    107.800    276.144
   14     1    16     1    107.800    276.144
   10     9    27     1    109.500    292.880
   20     4    21     1    107.800    276.144

[ dihedrals ]
; IMPROPER DIHEDRAL ANGLES 
;  ai    aj    ak    al funct            c0            c1            c2            c3            c4            c5
    22     5     4     6    4        180.000     43.932     2  
    12    10     9    11    4        180.000     43.932     2  

[ dihedrals ]
; PROPER DIHEDRAL ANGLES
;  ai    aj    ak    al funct            c0            c1            c2            c3            c4            c5
    5    4    3    2        3      -4.960   6.286   1.310  -2.636  -0.000   0.000
   10    9    8    7        3      -4.960   6.286   1.310  -2.636  -0.000   0.000
    7    3    4    5        3      -4.960   6.286   1.310  -2.636  -0.000   0.000
    4    3    2    1        3       2.301  -1.464   0.837  -1.674  -0.000   0.000
    7    3    2    1        3       2.301  -1.464   0.837  -1.674  -0.000   0.000
    8    7    3    2        3       2.301  -1.464   0.837  -1.674  -0.000   0.000
    9    8    7    3        3       2.301  -1.464   0.837  -1.674  -0.000   0.000
    8    7    3    4        3       2.301  -1.464   0.837  -1.674  -0.000   0.000
   13   12   10    9        3      31.206  -9.768  -21.439  -0.000  -0.000   0.000
   13   12   10   11        3      21.439   0.000  -21.439  -0.000  -0.000   0.000
   22    5    4    3        3       0.000   0.000   0.000  -0.000  -0.000   0.000
   22    5    4   21        3       0.753   2.259   0.000  -3.012  -0.000   0.000
   22    5    4   20        3       0.753   2.259   0.000  -3.012  -0.000   0.000
   27    9   10   11        3       0.000   0.000   0.000  -0.000  -0.000   0.000
   21    4    5    6        3       0.000   0.000   0.000  -0.000  -0.000   0.000
   20    4    5    6        3       0.000   0.000   0.000  -0.000  -0.000   0.000
   28    9   10   11        3       0.000   0.000   0.000  -0.000  -0.000   0.000
   28    9   10   12        3       0.276   0.828   0.000  -1.105  -0.000   0.000
   27    9   10   12        3       0.276   0.828   0.000  -1.105  -0.000   0.000
   25    8    9   10        3      -0.209  -0.628   0.000   0.837  -0.000   0.000
   19    3    4    5        3      -0.209  -0.628   0.000   0.837  -0.000   0.000
   26    8    9   10        3      -0.209  -0.628   0.000   0.837  -0.000   0.000
   17    2    3    4        3       0.628   1.883   0.000  -2.510  -0.000   0.000
   20    4    3    7        3       0.628   1.883   0.000  -2.510  -0.000   0.000
   25    8    7    3        3       0.628   1.883   0.000  -2.510  -0.000   0.000
   28    9    8    7        3       0.628   1.883   0.000  -2.510  -0.000   0.000
   24    7    3    4        3       0.628   1.883   0.000  -2.510  -0.000   0.000
   23    7    3    2        3       0.628   1.883   0.000  -2.510  -0.000   0.000
   16    1    2    3        3       0.628   1.883   0.000  -2.510  -0.000   0.000
   15    1    2    3        3       0.628   1.883   0.000  -2.510  -0.000   0.000
   24    7    3    2        3       0.628   1.883   0.000  -2.510  -0.000   0.000
   18    2    3    4        3       0.628   1.883   0.000  -2.510  -0.000   0.000
   20    4    3    2        3       0.628   1.883   0.000  -2.510  -0.000   0.000
   21    4    3    7        3       0.628   1.883   0.000  -2.510  -0.000   0.000
   26    8    7    3        3       0.628   1.883   0.000  -2.510  -0.000   0.000
   23    7    3    4        3       0.628   1.883   0.000  -2.510  -0.000   0.000
   17    2    3    7        3       0.628   1.883   0.000  -2.510  -0.000   0.000
   21    4    3    2        3       0.628   1.883   0.000  -2.510  -0.000   0.000
   27    9    8    7        3       0.628   1.883   0.000  -2.510  -0.000   0.000
   14    1    2    3        3       0.628   1.883   0.000  -2.510  -0.000   0.000
   18    2    3    7        3       0.628   1.883   0.000  -2.510  -0.000   0.000
   19    3    7    8        3       0.628   1.883   0.000  -2.510  -0.000   0.000
   19    3    2    1        3       0.628   1.883   0.000  -2.510  -0.000   0.000
   24    7    8    9        3       0.628   1.883   0.000  -2.510  -0.000   0.000
   23    7    8    9        3       0.628   1.883   0.000  -2.510  -0.000   0.000
   19    3    2   17        3       0.628   1.883   0.000  -2.510  -0.000   0.000
   18    2    1   15        3       0.628   1.883   0.000  -2.510  -0.000   0.000
   17    2    1   16        3       0.628   1.883   0.000  -2.510  -0.000   0.000
   19    3    2   18        3       0.628   1.883   0.000  -2.510  -0.000   0.000
   26    8    7   24        3       0.628   1.883   0.000  -2.510  -0.000   0.000
   17    2    1   14        3       0.628   1.883   0.000  -2.510  -0.000   0.000
   23    7    3   19        3       0.628   1.883   0.000  -2.510  -0.000   0.000
   28    9    8   26        3       0.628   1.883   0.000  -2.510  -0.000   0.000
   28    9    8   25        3       0.628   1.883   0.000  -2.510  -0.000   0.000
   27    9    8   26        3       0.628   1.883   0.000  -2.510  -0.000   0.000
   21    4    3   19        3       0.628   1.883   0.000  -2.510  -0.000   0.000
   26    8    7   23        3       0.628   1.883   0.000  -2.510  -0.000   0.000
   18    2    1   16        3       0.628   1.883   0.000  -2.510  -0.000   0.000
   27    9    8   25        3       0.628   1.883   0.000  -2.510  -0.000   0.000
   25    8    7   24        3       0.628   1.883   0.000  -2.510  -0.000   0.000
   20    4    3   19        3       0.628   1.883   0.000  -2.510  -0.000   0.000
   18    2    1   14        3       0.628   1.883   0.000  -2.510  -0.000   0.000
   17    2    1   15        3       0.628   1.883   0.000  -2.510  -0.000   0.000
   25    8    7   23        3       0.628   1.883   0.000  -2.510  -0.000   0.000
   24    7    3   19        3       0.628   1.883   0.000  -2.510  -0.000   0.000
   31   13   12   10        3       0.414   1.243   0.000  -1.657  -0.000   0.000
   30   13   12   10        3       0.414   1.243   0.000  -1.657  -0.000   0.000
   29   13   12   10        3       0.414   1.243   0.000  -1.657  -0.000   0.000
   11   10    9    8        3       0.000   0.000   0.000  -0.000  -0.000   0.000
    6    5    4    3        3       0.000   0.000   0.000  -0.000  -0.000   0.000
   12   10    9    8        3      -1.157  -3.471   0.000   4.628  -0.000   0.000

[ pairs ]
     1     4    1
     2     5    1
     1     7    1
     3     6    1
     2     8    1
     5     7    1
     4     8    1
     3     9    1
     7    10    1
     3    14    1
     3    15    1
     8    11    1
     3    16    1
     8    12    1
     1    19    1
     4    17    1
     9    13    1
     4    18    1
     2    20    1
     2    21    1
    11    13    1
     7    17    1
     5    19    1
     7    18    1
     3    22    1
     2    23    1
     6    20    1
     2    24    1
     8    19    1
     7    20    1
     6    21    1
     4    23    1
     7    21    1
     4    24    1
     3    25    1
     3    26    1
    14    17    1
    15    17    1
    14    18    1
     9    23    1
    16    17    1
    15    18    1
     9    24    1
    16    18    1
     7    27    1
    10    25    1
     7    28    1
    17    19    1
    10    26    1
    18    19    1
    11    27    1
    19    20    1
    12    27    1
    11    28    1
    10    29    1
    19    21    1
    12    28    1
    10    30    1
    10    31    1
    20    22    1
    19    23    1
    21    22    1
    19    24    1
    23    25    1
    24    25    1
    23    26    1
    24    26    1
    25    27    1
    26    27    1
    25    28    1
    26    28    1

