LIGPARGEN GENERATED GRO FILE
   38
    1UNK    C00    1   0.100   0.100   0.000
    1UNK    C01    2  -0.052   0.100   0.000
    1UNK    C02    3  -0.107   0.100   0.143
    1UNK    C03    4  -0.261   0.106   0.150
    1UNK    C04    5  -0.328  -0.014   0.087
    1UNK    C05    6  -0.465  -0.005   0.147
    1UNK    O06    7  -0.564  -0.047   0.088
    1UNK    C07    8  -0.461   0.047   0.290
    1UNK    C08    9  -0.588   0.121   0.340
    1UNK    C09   10  -0.716   0.035   0.326
    1UNK    C0A   11  -0.581   0.158   0.489
    1UNK    C0B   12  -0.321   0.121   0.294
    1UNK    C0C   13  -0.235   0.052   0.402
    1UNK    C0D   14  -0.324   0.273   0.324
    1UNK    H0E   15   0.138   0.100  -0.103
    1UNK    H0F   16   0.139   0.011   0.051
    1UNK    H0G   17   0.139   0.189   0.051
    1UNK    H0H   18  -0.088   0.012  -0.054
    1UNK    H0I   19  -0.088   0.188  -0.054
    1UNK    H0J   20  -0.065   0.186   0.196
    1UNK    H0K   21  -0.071   0.010   0.194
    1UNK    H0M   22  -0.292   0.194   0.091
    1UNK    H0N   23  -0.282  -0.109   0.117
    1UNK    H0O   24  -0.333  -0.007  -0.022
    1UNK    H0P   25  -0.453  -0.045   0.350
    1UNK    H0Q   26  -0.603   0.212   0.280
    1UNK    H0R   27  -0.704  -0.061   0.378
    1UNK    H0S   28  -0.742   0.015   0.222
    1UNK    H0T   29  -0.802   0.086   0.371
    1UNK    H0U   30  -0.570   0.068   0.551
    1UNK    H0V   31  -0.672   0.210   0.520
    1UNK    H0W   32  -0.498   0.224   0.513
    1UNK    H0X   33  -0.214  -0.052   0.376
    1UNK    H0Y   34  -0.286   0.052   0.499
    1UNK    H0Z   35  -0.139   0.103   0.416
    1UNK    H10   36  -0.404   0.323   0.268
    1UNK    H11   37  -0.230   0.320   0.295
    1UNK    H12   38  -0.336   0.295   0.430
   1.00000   1.00000   1.00000

