LIGPARGEN GENERATED GRO FILE
   15
    1UNK    C00    1   0.100   0.100   0.000
    1UNK    C01    2  -0.049   0.100   0.000
    1UNK    C02    3  -0.124   0.100   0.112
    1UNK    C03    4  -0.274   0.100   0.108
    1UNK    H04    5  -0.311   0.191   0.155
    1UNK    F05    6  -0.321  -0.005   0.181
    1UNK    C06    7  -0.326   0.092  -0.032
    1UNK    C07    8  -0.244   0.093  -0.137
    1UNK    O08    9  -0.106   0.100  -0.127
    1UNK    H09   10   0.141   0.092   0.101
    1UNK    H0A   11   0.138   0.193  -0.045
    1UNK    H0B   12   0.138   0.015  -0.058
    1UNK    H0C   13  -0.078   0.100   0.210
    1UNK    H0D   14  -0.434   0.085  -0.045
    1UNK    H0E   15  -0.275   0.088  -0.240
   1.00000   1.00000   1.00000

