
;
; GENERATED BY LigParGen Server
; Jorgensen Lab @ Yale University 
;
[ atomtypes ]
  opls_818  H818     1.0080     0.000    A    2.50000E-01   1.25520E-01
  opls_824  H824     1.0080     0.000    A    2.50000E-01   1.25520E-01
  opls_809  O809    15.9990     0.000    A    2.90000E-01   5.85760E-01
  opls_828  H828     1.0080     0.000    A    2.50000E-01   1.25520E-01
  opls_810  C810    12.0110     0.000    A    3.50000E-01   2.76144E-01
  opls_813  H813     1.0080     0.000    A    2.50000E-01   1.25520E-01
  opls_802  C802    12.0110     0.000    A    3.50000E-01   2.76144E-01
  opls_815  H815     1.0080     0.000    A    2.50000E-01   1.25520E-01
  opls_801  C801    12.0110     0.000    A    3.50000E-01   2.76144E-01
  opls_806  C806    12.0110     0.000    A    3.50000E-01   2.76144E-01
  opls_822  H822     1.0080     0.000    A    2.50000E-01   1.25520E-01
  opls_803  C803    12.0110     0.000    A    3.50000E-01   2.76144E-01
  opls_825  H825     1.0080     0.000    A    2.50000E-01   1.25520E-01
  opls_814  H814     1.0080     0.000    A    2.50000E-01   1.25520E-01
  opls_821  H821     1.0080     0.000    A    2.50000E-01   1.25520E-01
  opls_820  H820     1.0080     0.000    A    2.50000E-01   1.25520E-01
  opls_829  H829     1.0080     0.000    A    2.50000E-01   1.25520E-01
  opls_816  H816     1.0080     0.000    A    2.50000E-01   1.25520E-01
  opls_800  C800    12.0110     0.000    A    3.50000E-01   2.76144E-01
  opls_808  O808    15.9990     0.000    A    2.96000E-01   8.78640E-01
  opls_811  C811    12.0110     0.000    A    3.50000E-01   2.76144E-01
  opls_823  H823     1.0080     0.000    A    2.50000E-01   1.25520E-01
  opls_805  C805    12.0110     0.000    A    3.50000E-01   2.76144E-01
  opls_826  H826     1.0080     0.000    A    2.50000E-01   1.25520E-01
  opls_819  H819     1.0080     0.000    A    2.50000E-01   1.25520E-01
  opls_804  C804    12.0110     0.000    A    3.50000E-01   2.76144E-01
  opls_827  H827     1.0080     0.000    A    2.50000E-01   1.25520E-01
  opls_812  C812    12.0110     0.000    A    3.50000E-01   2.76144E-01
  opls_807  C807    12.0110     0.000    A    3.55000E-01   2.92880E-01
  opls_817  H817     1.0080     0.000    A    2.50000E-01   1.25520E-01
  opls_830  H830     1.0080     0.000    A    2.50000E-01   1.25520E-01
[ moleculetype ]
; Name               nrexcl
UNK                   3
[ atoms ]
;   nr       type  resnr residue  atom   cgnr     charge       mass  
     1   opls_800      1    UNK   C00      1    -0.2325    12.0110 
     2   opls_801      1    UNK   C01      1    -0.1144    12.0110 
     3   opls_802      1    UNK   C02      1    -0.1849    12.0110 
     4   opls_803      1    UNK   C03      1     -0.186    12.0110 
     5   opls_804      1    UNK   C04      1     0.1426    12.0110 
     6   opls_805      1    UNK   C05      1    -0.2133    12.0110 
     7   opls_806      1    UNK   C06      1    -0.2577    12.0110 
     8   opls_807      1    UNK   C07      1     0.4511    12.0110 
     9   opls_808      1    UNK   O08      1    -0.4061    15.9990 
    10   opls_809      1    UNK   O09      1     -0.336    15.9990 
    11   opls_810      1    UNK   C0A      1    -0.0451    12.0110 
    12   opls_811      1    UNK   C0B      1    -0.2238    12.0110 
    13   opls_812      1    UNK   C0C      1    -0.2277    12.0110 
    14   opls_813      1    UNK   H0D      1     0.0828     1.0080 
    15   opls_814      1    UNK   H0E      1     0.0828     1.0080 
    16   opls_815      1    UNK   H0F      1     0.0828     1.0080 
    17   opls_816      1    UNK   H0G      1     0.1089     1.0080 
    18   opls_817      1    UNK   H0H      1     0.1021     1.0080 
    19   opls_818      1    UNK   H0I      1     0.1021     1.0080 
    20   opls_819      1    UNK   H0J      1     0.1104     1.0080 
    21   opls_820      1    UNK   H0K      1     0.1104     1.0080 
    22   opls_821      1    UNK   H0M      1     0.1156     1.0080 
    23   opls_822      1    UNK   H0N      1     0.1156     1.0080 
    24   opls_823      1    UNK   H0O      1     0.1446     1.0080 
    25   opls_824      1    UNK   H0P      1     0.1446     1.0080 
    26   opls_825      1    UNK   H0Q      1     0.0907     1.0080 
    27   opls_826      1    UNK   H0R      1     0.0907     1.0080 
    28   opls_827      1    UNK   H0S      1     0.0907     1.0080 
    29   opls_828      1    UNK   H0T      1     0.0865     1.0080 
    30   opls_829      1    UNK   H0U      1     0.0865     1.0080 
    31   opls_830      1    UNK   H0V      1     0.0865     1.0080 
[ bonds ]
    2     1     1      0.1529 224262.400
    3     2     1      0.1529 224262.400
    4     3     1      0.1529 224262.400
    5     4     1      0.1529 224262.400
    6     5     1      0.1529 224262.400
    7     6     1      0.1529 224262.400
    8     7     1      0.1522 265265.600
    9     8     1      0.1229 476976.000
   10     5     1      0.1410 267776.000
   11     2     1      0.1529 224262.400
   12    11     1      0.1529 224262.400
   13    11     1      0.1529 224262.400
   14     1     1      0.1090 284512.000
   15     1     1      0.1090 284512.000
   16     1     1      0.1090 284512.000
   17     2     1      0.1090 284512.000
   18     3     1      0.1090 284512.000
   19     3     1      0.1090 284512.000
   20     4     1      0.1090 284512.000
   21     4     1      0.1090 284512.000
   22     6     1      0.1090 284512.000
   23     6     1      0.1090 284512.000
   24     7     1      0.1090 284512.000
   25     7     1      0.1090 284512.000
   26    12     1      0.1090 284512.000
   27    12     1      0.1090 284512.000
   28    12     1      0.1090 284512.000
   29    13     1      0.1090 284512.000
   30    13     1      0.1090 284512.000
   31    13     1      0.1090 284512.000
   11     5     1      0.1529 224262.400
   10     8     1      0.1327 179075.200

[ angles ]
;  ai    aj    ak funct            c0            c1            c2            c3 
    1     2     3     1    112.700    488.273
    2     3     4     1    112.700    488.273
    3     4     5     1    112.700    488.273
    4     5     6     1    112.700    488.273
    5     6     7     1    112.700    488.273
    6     7     8     1    111.100    527.184
    7     8     9     1    120.400    669.440
    4     5    10     1    109.500    418.400
    1     2    11     1    112.700    488.273
    2    11    12     1    112.700    488.273
    2    11    13     1    112.700    488.273
    2     1    14     1    110.700    313.800
    2     1    15     1    110.700    313.800
    2     1    16     1    110.700    313.800
    1     2    17     1    110.700    313.800
    2     3    18     1    110.700    313.800
    2     3    19     1    110.700    313.800
    3     4    20     1    110.700    313.800
    3     4    21     1    110.700    313.800
    5     6    22     1    110.700    313.800
    5     6    23     1    110.700    313.800
    6     7    24     1    110.700    313.800
    6     7    25     1    110.700    313.800
   11    12    26     1    110.700    313.800
   11    12    27     1    110.700    313.800
   11    12    28     1    110.700    313.800
   11    13    29     1    110.700    313.800
   11    13    30     1    110.700    313.800
   11    13    31     1    110.700    313.800
   26    12    27     1    107.800    276.144
    4     5    11     1    112.700    488.273
    5    11    12     1    112.700    488.273
   14     1    16     1    107.800    276.144
   29    13    31     1    107.800    276.144
    7     6    22     1    110.700    313.800
    6     5    10     1    109.500    418.400
    3     2    17     1    110.700    313.800
   24     7    25     1    107.800    276.144
    2    11     5     1    112.700    488.273
    6     5    11     1    112.700    488.273
   27    12    28     1    107.800    276.144
   15     1    16     1    107.800    276.144
    5    10     8     1    116.900    694.544
   14     1    15     1    107.800    276.144
    4     3    18     1    110.700    313.800
    3     2    11     1    112.700    488.273
    8     7    25     1    109.500    292.880
    7     8    10     1    111.400    677.808
   18     3    19     1    107.800    276.144
   29    13    30     1    107.800    276.144
    5     4    20     1    110.700    313.800
   12    11    13     1    112.700    488.273
   11     2    17     1    110.700    313.800
    4     3    19     1    110.700    313.800
    5     4    21     1    110.700    313.800
   26    12    28     1    107.800    276.144
    5    11    13     1    112.700    488.273
    8     7    24     1    109.500    292.880
    7     6    23     1    110.700    313.800
   22     6    23     1    107.800    276.144
   30    13    31     1    107.800    276.144
   20     4    21     1    107.800    276.144
   10     5    11     1    109.500    418.400
    9     8    10     1    123.400    694.544

[ dihedrals ]
; IMPROPER DIHEDRAL ANGLES 
;  ai    aj    ak    al funct            c0            c1            c2            c3            c4            c5
     9     8    10     7    4        180.000     43.932     2  

[ dihedrals ]
; PROPER DIHEDRAL ANGLES
;  ai    aj    ak    al funct            c0            c1            c2            c3            c4            c5
    8    7    6    5        3      -4.960   6.286   1.310  -2.636  -0.000   0.000
    8   10    5    6        3      -2.197   5.201   0.527  -3.531  -0.000   0.000
    8   10    5    4        3      -2.197   5.201   0.527  -3.531  -0.000   0.000
    7    8   10    5        3      31.206  -9.768  -21.439  -0.000  -0.000   0.000
    4    3    2    1        3       2.301  -1.464   0.837  -1.674  -0.000   0.000
    5   11    2    1        3       2.301  -1.464   0.837  -1.674  -0.000   0.000
   12   11    5    4        3       2.301  -1.464   0.837  -1.674  -0.000   0.000
    5   11    2    3        3       2.301  -1.464   0.837  -1.674  -0.000   0.000
   12   11    2    1        3       2.301  -1.464   0.837  -1.674  -0.000   0.000
   12   11    5    6        3       2.301  -1.464   0.837  -1.674  -0.000   0.000
   13   11    2    1        3       2.301  -1.464   0.837  -1.674  -0.000   0.000
    6    5   11    2        3       2.301  -1.464   0.837  -1.674  -0.000   0.000
    4    5   11    2        3       2.301  -1.464   0.837  -1.674  -0.000   0.000
   12   11    2    3        3       2.301  -1.464   0.837  -1.674  -0.000   0.000
   13   11    5    6        3       2.301  -1.464   0.837  -1.674  -0.000   0.000
   13   11    5    4        3       2.301  -1.464   0.837  -1.674  -0.000   0.000
   11    5    6    7        3       2.301  -1.464   0.837  -1.674  -0.000   0.000
   13   11    2    3        3       2.301  -1.464   0.837  -1.674  -0.000   0.000
   11    2    3    4        3       2.301  -1.464   0.837  -1.674  -0.000   0.000
   11    5    4    3        3       2.301  -1.464   0.837  -1.674  -0.000   0.000
    5    4    3    2        3       2.301  -1.464   0.837  -1.674  -0.000   0.000
    6    5    4    3        3       2.301  -1.464   0.837  -1.674  -0.000   0.000
    7    6    5    4        3       2.301  -1.464   0.837  -1.674  -0.000   0.000
   12   11    5   10        3       2.874   0.582   2.092  -5.548  -0.000   0.000
   13   11    5   10        3       2.874   0.582   2.092  -5.548  -0.000   0.000
   11    5   10    8        3      -2.197   5.201   0.527  -3.531  -0.000   0.000
   25    7    8    9        3       0.000   0.000   0.000  -0.000  -0.000   0.000
   24    7    8    9        3       0.000   0.000   0.000  -0.000  -0.000   0.000
   25    7    8   10        3       0.276   0.828   0.000  -1.105  -0.000   0.000
   24    7    8   10        3       0.276   0.828   0.000  -1.105  -0.000   0.000
   22    6    7    8        3      -0.209  -0.628   0.000   0.837  -0.000   0.000
   23    6    7    8        3      -0.209  -0.628   0.000   0.837  -0.000   0.000
   27   12   11    2        3       0.628   1.883   0.000  -2.510  -0.000   0.000
   28   12   11    5        3       0.628   1.883   0.000  -2.510  -0.000   0.000
   16    1    2    3        3       0.628   1.883   0.000  -2.510  -0.000   0.000
   19    3    4    5        3       0.628   1.883   0.000  -2.510  -0.000   0.000
   18    3    2    1        3       0.628   1.883   0.000  -2.510  -0.000   0.000
   22    6    5   11        3       0.628   1.883   0.000  -2.510  -0.000   0.000
   31   13   11    5        3       0.628   1.883   0.000  -2.510  -0.000   0.000
   30   13   11    5        3       0.628   1.883   0.000  -2.510  -0.000   0.000
   29   13   11   12        3       0.628   1.883   0.000  -2.510  -0.000   0.000
   27   12   11   13        3       0.628   1.883   0.000  -2.510  -0.000   0.000
   30   13   11   12        3       0.628   1.883   0.000  -2.510  -0.000   0.000
   17    2   11    5        3       0.628   1.883   0.000  -2.510  -0.000   0.000
   18    3    2   11        3       0.628   1.883   0.000  -2.510  -0.000   0.000
   26   12   11    5        3       0.628   1.883   0.000  -2.510  -0.000   0.000
   25    7    6    5        3       0.628   1.883   0.000  -2.510  -0.000   0.000
   23    6    5   11        3       0.628   1.883   0.000  -2.510  -0.000   0.000
   31   13   11    2        3       0.628   1.883   0.000  -2.510  -0.000   0.000
   17    2   11   12        3       0.628   1.883   0.000  -2.510  -0.000   0.000
   14    1    2   11        3       0.628   1.883   0.000  -2.510  -0.000   0.000
   18    3    4    5        3       0.628   1.883   0.000  -2.510  -0.000   0.000
   21    4    3    2        3       0.628   1.883   0.000  -2.510  -0.000   0.000
   21    4    5    6        3       0.628   1.883   0.000  -2.510  -0.000   0.000
   15    1    2    3        3       0.628   1.883   0.000  -2.510  -0.000   0.000
   17    2   11   13        3       0.628   1.883   0.000  -2.510  -0.000   0.000
   20    4    3    2        3       0.628   1.883   0.000  -2.510  -0.000   0.000
   20    4    5   11        3       0.628   1.883   0.000  -2.510  -0.000   0.000
   21    4    5   11        3       0.628   1.883   0.000  -2.510  -0.000   0.000
   26   12   11    2        3       0.628   1.883   0.000  -2.510  -0.000   0.000
   29   13   11    2        3       0.628   1.883   0.000  -2.510  -0.000   0.000
   23    6    5    4        3       0.628   1.883   0.000  -2.510  -0.000   0.000
   28   12   11    2        3       0.628   1.883   0.000  -2.510  -0.000   0.000
   28   12   11   13        3       0.628   1.883   0.000  -2.510  -0.000   0.000
   27   12   11    5        3       0.628   1.883   0.000  -2.510  -0.000   0.000
   30   13   11    2        3       0.628   1.883   0.000  -2.510  -0.000   0.000
   22    6    5    4        3       0.628   1.883   0.000  -2.510  -0.000   0.000
   17    2    3    4        3       0.628   1.883   0.000  -2.510  -0.000   0.000
   20    4    5    6        3       0.628   1.883   0.000  -2.510  -0.000   0.000
   16    1    2   11        3       0.628   1.883   0.000  -2.510  -0.000   0.000
   14    1    2    3        3       0.628   1.883   0.000  -2.510  -0.000   0.000
   26   12   11   13        3       0.628   1.883   0.000  -2.510  -0.000   0.000
   15    1    2   11        3       0.628   1.883   0.000  -2.510  -0.000   0.000
   24    7    6    5        3       0.628   1.883   0.000  -2.510  -0.000   0.000
   19    3    2   11        3       0.628   1.883   0.000  -2.510  -0.000   0.000
   29   13   11    5        3       0.628   1.883   0.000  -2.510  -0.000   0.000
   19    3    2    1        3       0.628   1.883   0.000  -2.510  -0.000   0.000
   31   13   11   12        3       0.628   1.883   0.000  -2.510  -0.000   0.000
   17    2    1   14        3       0.628   1.883   0.000  -2.510  -0.000   0.000
   20    4    3   19        3       0.628   1.883   0.000  -2.510  -0.000   0.000
   21    4    3   18        3       0.628   1.883   0.000  -2.510  -0.000   0.000
   19    3    2   17        3       0.628   1.883   0.000  -2.510  -0.000   0.000
   17    2    1   15        3       0.628   1.883   0.000  -2.510  -0.000   0.000
   24    7    6   23        3       0.628   1.883   0.000  -2.510  -0.000   0.000
   17    2    1   16        3       0.628   1.883   0.000  -2.510  -0.000   0.000
   25    7    6   23        3       0.628   1.883   0.000  -2.510  -0.000   0.000
   18    3    2   17        3       0.628   1.883   0.000  -2.510  -0.000   0.000
   25    7    6   22        3       0.628   1.883   0.000  -2.510  -0.000   0.000
   20    4    3   18        3       0.628   1.883   0.000  -2.510  -0.000   0.000
   21    4    3   19        3       0.628   1.883   0.000  -2.510  -0.000   0.000
   24    7    6   22        3       0.628   1.883   0.000  -2.510  -0.000   0.000
   22    6    5   10        3       0.979   2.937   0.000  -3.916  -0.000   0.000
   21    4    5   10        3       0.979   2.937   0.000  -3.916  -0.000   0.000
   23    6    5   10        3       0.979   2.937   0.000  -3.916  -0.000   0.000
   20    4    5   10        3       0.979   2.937   0.000  -3.916  -0.000   0.000
    9    8    7    6        3       0.000   0.000   0.000  -0.000  -0.000   0.000
    9    8   10    5        3      21.439   0.000  -21.439  -0.000  -0.000   0.000
   10    8    7    6        3      -1.157  -3.471   0.000   4.628  -0.000   0.000
   10    5    4    3        3       2.874   0.582   2.092  -5.548  -0.000   0.000
   10    5   11    2        3       2.874   0.582   2.092  -5.548  -0.000   0.000
   10    5    6    7        3       2.874   0.582   2.092  -5.548  -0.000   0.000

[ pairs ]
     1     4    1
     1     5    1
     2     6    1
     3     6    1
     4     7    1
     4     8    1
     2    10    1
     3    10    1
     1    12    1
     5     9    1
     1    13    1
     6     9    1
     3    12    1
     4    12    1
     3    13    1
     4    13    1
     3    14    1
     7    11    1
     6    12    1
     3    15    1
     8    11    1
     6    13    1
     3    16    1
     1    18    1
     1    19    1
     4    17    1
    10    12    1
     5    17    1
     2    20    1
    10    13    1
     5    18    1
     2    21    1
     5    19    1
    11    14    1
    11    15    1
     6    20    1
     4    22    1
    11    16    1
     6    21    1
     4    23    1
     2    26    1
    12    17    1
    11    18    1
     5    24    1
     2    27    1
    13    17    1
    11    19    1
    10    20    1
     8    22    1
     5    25    1
     2    28    1
    14    17    1
    11    20    1
    10    21    1
     8    23    1
     5    26    1
     2    29    1
    15    17    1
    11    21    1
    10    22    1
     5    27    1
     2    30    1
    16    17    1
    11    22    1
    10    23    1
     9    24    1
     5    28    1
     2    31    1
    11    23    1
    10    24    1
     9    25    1
     5    29    1
    17    18    1
    10    25    1
     5    30    1
    17    19    1
     5    31    1
    18    20    1
    19    20    1
    18    21    1
    13    26    1
    19    21    1
    13    27    1
    13    28    1
    12    29    1
    12    30    1
    12    31    1
    22    24    1
    23    24    1
    22    25    1
    23    25    1

