LIGPARGEN GENERATED GRO FILE
   42
    1UNK    C00    1   0.100   0.100   0.000
    1UNK    C01    2  -0.052   0.100   0.000
    1UNK    C02    3  -0.105   0.100   0.143
    1UNK    C03    4  -0.258   0.100   0.151
    1UNK    C04    5  -0.310   0.089   0.296
    1UNK    C05    6  -0.255   0.199   0.390
    1UNK    C06    7  -0.296   0.342   0.355
    1UNK    C07    8  -0.464   0.083   0.302
    1UNK    C08    9  -0.527  -0.043   0.240
    1UNK    C09   10  -0.481  -0.174   0.306
    1UNK    C0A   11  -0.593  -0.271   0.276
    1UNK    C0B   12  -0.719  -0.188   0.296
    1UNK    C0C   13  -0.681  -0.045   0.254
    1UNK    C0D   14  -0.750  -0.004   0.124
    1UNK    H0E   15   0.139   0.105  -0.102
    1UNK    H0F   16   0.139   0.009   0.047
    1UNK    H0G   17   0.139   0.186   0.055
    1UNK    H0H   18  -0.089   0.012  -0.054
    1UNK    H0I   19  -0.088   0.189  -0.053
    1UNK    H0J   20  -0.065   0.189   0.194
    1UNK    H0K   21  -0.066   0.012   0.196
    1UNK    H0M   22  -0.294   0.015   0.092
    1UNK    H0N   23  -0.298   0.190   0.103
    1UNK    H0O   24  -0.271  -0.006   0.337
    1UNK    H0P   25  -0.146   0.194   0.393
    1UNK    H0Q   26  -0.288   0.178   0.492
    1UNK    H0R   27  -0.281   0.364   0.249
    1UNK    H0S   28  -0.236   0.413   0.412
    1UNK    H0T   29  -0.401   0.360   0.380
    1UNK    H0U   30  -0.506   0.171   0.253
    1UNK    H0V   31  -0.495   0.088   0.408
    1UNK    H0W   32  -0.501  -0.048   0.133
    1UNK    H0X   33  -0.469  -0.161   0.414
    1UNK    H0Y   34  -0.386  -0.209   0.265
    1UNK    H0Z   35  -0.591  -0.358   0.341
    1UNK    H10   36  -0.587  -0.306   0.172
    1UNK    H11   37  -0.745  -0.188   0.403
    1UNK    H12   38  -0.804  -0.228   0.241
    1UNK    H13   39  -0.714   0.025   0.332
    1UNK    H14   40  -0.726  -0.074   0.043
    1UNK    H15   41  -0.719   0.096   0.093
    1UNK    H16   42  -0.859  -0.004   0.137
   1.00000   1.00000   1.00000

