LIGPARGEN GENERATED GRO FILE
   36
    1UNK    C00    1   0.100   0.100   0.000
    1UNK    C01    2  -0.052   0.100   0.000
    1UNK    C02    3  -0.117   0.100   0.140
    1UNK    C03    4  -0.072   0.223   0.222
    1UNK    C04    5  -0.121   0.222   0.366
    1UNK    O05    6  -0.260   0.106   0.129
    1UNK    C06    7  -0.324   0.001   0.057
    1UNK    C07    8  -0.312  -0.134   0.127
    1UNK    C08    9  -0.444  -0.198   0.096
    1UNK    O09   10  -0.463  -0.319   0.100
    1UNK    C0A   11  -0.551  -0.098   0.066
    1UNK    C0B   12  -0.475   0.034   0.046
    1UNK    C0C   13  -0.511   0.096  -0.090
    1UNK    C0D   14  -0.438   0.227  -0.119
    1UNK    H0E   15   0.137   0.076  -0.100
    1UNK    H0F   16   0.140   0.025   0.070
    1UNK    H0G   17   0.140   0.198   0.026
    1UNK    H0H   18  -0.083   0.010  -0.055
    1UNK    H0I   19  -0.089   0.185  -0.058
    1UNK    H0J   20  -0.089   0.009   0.194
    1UNK    H0K   21  -0.109   0.314   0.173
    1UNK    H0M   22   0.038   0.229   0.225
    1UNK    H0N   23  -0.229   0.212   0.372
    1UNK    H0O   24  -0.093   0.317   0.414
    1UNK    H0P   25  -0.074   0.141   0.423
    1UNK    H0Q   26  -0.284  -0.007  -0.045
    1UNK    H0R   27  -0.301  -0.124   0.235
    1UNK    H0S   28  -0.230  -0.193   0.085
    1UNK    H0T   29  -0.618  -0.091   0.153
    1UNK    H0U   30  -0.608  -0.129  -0.022
    1UNK    H0V   31  -0.504   0.104   0.125
    1UNK    H0W   32  -0.619   0.116  -0.093
    1UNK    H0X   33  -0.490   0.025  -0.171
    1UNK    H0Y   34  -0.453   0.299  -0.039
    1UNK    H0Z   35  -0.476   0.270  -0.212
    1UNK    H10   36  -0.331   0.210  -0.132
   1.00000   1.00000   1.00000

