LIGPARGEN GENERATED GRO FILE
   39
    1UNK    C00    1   0.100   0.100   0.000
    1UNK    C01    2  -0.052   0.100   0.000
    1UNK    C02    3  -0.108   0.100   0.143
    1UNK    C03    4  -0.263   0.100   0.147
    1UNK    C04    5  -0.315  -0.025   0.077
    1UNK    N05    6  -0.358  -0.128   0.020
    1UNK    C06    7  -0.319   0.100   0.289
    1UNK    C07    8  -0.279   0.216   0.381
    1UNK    C08    9  -0.323   0.352   0.324
    1UNK    C09   10  -0.340   0.196   0.522
    1UNK    C0A   11  -0.287   0.070   0.590
    1UNK    C0B   12  -0.343   0.043   0.731
    1UNK    C0C   13  -0.495   0.026   0.730
    1UNK    C0D   14  -0.278  -0.085   0.786
    1UNK    H0E   15   0.138   0.100  -0.103
    1UNK    H0F   16   0.139   0.011   0.051
    1UNK    H0G   17   0.139   0.189   0.051
    1UNK    H0H   18  -0.086   0.012  -0.055
    1UNK    H0I   19  -0.088   0.188  -0.054
    1UNK    H0J   20  -0.070   0.189   0.194
    1UNK    H0K   21  -0.070   0.012   0.197
    1UNK    H0M   22  -0.300   0.187   0.091
    1UNK    H0N   23  -0.288   0.005   0.334
    1UNK    H0O   24  -0.429   0.096   0.283
    1UNK    H0P   25  -0.170   0.218   0.392
    1UNK    H0Q   26  -0.430   0.352   0.300
    1UNK    H0R   27  -0.267   0.376   0.233
    1UNK    H0S   28  -0.305   0.432   0.396
    1UNK    H0T   29  -0.449   0.193   0.513
    1UNK    H0U   30  -0.316   0.283   0.585
    1UNK    H0V   31  -0.178   0.077   0.596
    1UNK    H0W   32  -0.310  -0.018   0.529
    1UNK    H0X   33  -0.317   0.127   0.796
    1UNK    H0Y   34  -0.526  -0.050   0.658
    1UNK    H0Z   35  -0.545   0.120   0.704
    1UNK    H10   36  -0.532  -0.004   0.829
    1UNK    H11   37  -0.301  -0.171   0.722
    1UNK    H12   38  -0.313  -0.106   0.887
    1UNK    H13   39  -0.169  -0.074   0.789
   1.00000   1.00000   1.00000

