
;
; GENERATED BY LigParGen Server
; Jorgensen Lab @ Yale University 
;
[ atomtypes ]
  opls_818  H818     1.0080     0.000    A    2.50000E-01   1.25520E-01
  opls_824  H824     1.0080     0.000    A    2.50000E-01   1.25520E-01
  opls_805  C805    12.0110     0.000    A    3.50000E-01   2.76144E-01
  opls_828  H828     1.0080     0.000    A    2.50000E-01   1.25520E-01
  opls_802  C802    12.0110     0.000    A    3.50000E-01   2.76144E-01
  opls_815  H815     1.0080     0.000    A    2.50000E-01   1.25520E-01
  opls_801  C801    12.0110     0.000    A    3.50000E-01   2.76144E-01
  opls_830  H830     1.0080     0.000    A    2.50000E-01   1.25520E-01
  opls_822  H822     1.0080     0.000    A    2.50000E-01   1.25520E-01
  opls_803  C803    12.0110     0.000    A    3.50000E-01   2.76144E-01
  opls_825  H825     1.0080     0.000    A    2.50000E-01   1.25520E-01
  opls_814  H814     1.0080     0.000    A    2.50000E-01   1.25520E-01
  opls_809  O809    15.9990     0.000    A    2.96000E-01   8.78640E-01
  opls_821  H821     1.0080     0.000    A    2.50000E-01   1.25520E-01
  opls_811  N811    14.0070     0.000    A    3.20000E-01   7.11280E-01
  opls_820  H820     1.0080     0.000    A    2.50000E-01   1.25520E-01
  opls_829  H829     1.0080     0.000    A    2.50000E-01   1.25520E-01
  opls_816  H816     1.0080     0.000    A    2.50000E-01   1.25520E-01
  opls_800  C800    12.0110     0.000    A    3.50000E-01   2.76144E-01
  opls_810  C810    12.0110     0.000    A    3.30000E-01   2.76144E-01
  opls_806  C806    12.0110     0.000    A    3.50000E-01   2.76144E-01
  opls_823  H823     1.0080     0.000    A    2.50000E-01   1.25520E-01
  opls_813  C813    12.0110     0.000    A    3.50000E-01   2.76144E-01
  opls_826  H826     1.0080     0.000    A    2.50000E-01   1.25520E-01
  opls_819  H819     1.0080     0.000    A    2.50000E-01   1.25520E-01
  opls_804  C804    12.0110     0.000    A    3.50000E-01   2.76144E-01
  opls_827  H827     1.0080     0.000    A    2.50000E-01   1.25520E-01
  opls_812  C812    12.0110     0.000    A    3.50000E-01   2.76144E-01
  opls_817  H817     1.0080     0.000    A    2.50000E-01   1.25520E-01
  opls_808  C808    12.0110     0.000    A    3.55000E-01   2.92880E-01
  opls_807  C807    12.0110     0.000    A    3.50000E-01   2.76144E-01
[ moleculetype ]
; Name               nrexcl
UNK                   3
[ atoms ]
;   nr       type  resnr residue  atom   cgnr     charge       mass  
     1   opls_800      1    UNK   C00      1     -0.225    12.0110 
     2   opls_801      1    UNK   C01      1    -0.0494    12.0110 
     3   opls_802      1    UNK   C02      1    -0.1724    12.0110 
     4   opls_803      1    UNK   C03      1    -0.1856    12.0110 
     5   opls_804      1    UNK   C04      1    -0.1749    12.0110 
     6   opls_805      1    UNK   C05      1    -0.0276    12.0110 
     7   opls_806      1    UNK   C06      1    -0.2319    12.0110 
     8   opls_807      1    UNK   C07      1    -0.1419    12.0110 
     9   opls_808      1    UNK   C08      1      0.495    12.0110 
    10   opls_809      1    UNK   O09      1     -0.383    15.9990 
    11   opls_810      1    UNK   C0A      1     0.0858    12.0110 
    12   opls_811      1    UNK   N0B      1       -0.3    14.0070 
    13   opls_812      1    UNK   C0C      1    -0.1739    12.0110 
    14   opls_813      1    UNK   C0D      1    -0.1762    12.0110 
    15   opls_814      1    UNK   H0E      1     0.0876     1.0080 
    16   opls_815      1    UNK   H0F      1     0.0876     1.0080 
    17   opls_816      1    UNK   H0G      1     0.0876     1.0080 
    18   opls_817      1    UNK   H0H      1     0.0974     1.0080 
    19   opls_818      1    UNK   H0I      1     0.0974     1.0080 
    20   opls_819      1    UNK   H0J      1     0.0947     1.0080 
    21   opls_820      1    UNK   H0K      1     0.0947     1.0080 
    22   opls_821      1    UNK   H0M      1     0.0958     1.0080 
    23   opls_822      1    UNK   H0N      1     0.0958     1.0080 
    24   opls_823      1    UNK   H0O      1     0.0909     1.0080 
    25   opls_824      1    UNK   H0P      1     0.0909     1.0080 
    26   opls_825      1    UNK   H0Q      1     0.0909     1.0080 
    27   opls_826      1    UNK   H0R      1     0.1284     1.0080 
    28   opls_827      1    UNK   H0S      1     0.1051     1.0080 
    29   opls_828      1    UNK   H0T      1     0.1051     1.0080 
    30   opls_829      1    UNK   H0U      1     0.1054     1.0080 
    31   opls_830      1    UNK   H0V      1     0.1054     1.0080 
[ bonds ]
    2     1     1      0.1529 224262.400
    3     2     1      0.1529 224262.400
    4     3     1      0.1529 224262.400
    5     4     1      0.1529 224262.400
    6     2     1      0.1529 224262.400
    7     6     1      0.1529 224262.400
    8     6     1      0.1529 224262.400
    9     8     1      0.1522 265265.600
   10     9     1      0.1229 476976.000
   11     9     1      0.1444 334720.000
   12    11     1      0.1157 543920.000
   13     8     1      0.1529 224262.400
   14     2     1      0.1529 224262.400
   15     1     1      0.1090 284512.000
   16     1     1      0.1090 284512.000
   17     1     1      0.1090 284512.000
   18     3     1      0.1090 284512.000
   19     3     1      0.1090 284512.000
   20     4     1      0.1090 284512.000
   21     4     1      0.1090 284512.000
   22     5     1      0.1090 284512.000
   23     5     1      0.1090 284512.000
   24     7     1      0.1090 284512.000
   25     7     1      0.1090 284512.000
   26     7     1      0.1090 284512.000
   27     8     1      0.1090 284512.000
   28    13     1      0.1090 284512.000
   29    13     1      0.1090 284512.000
   30    14     1      0.1090 284512.000
   31    14     1      0.1090 284512.000
    6     5     1      0.1529 224262.400
   14    13     1      0.1529 224262.400

[ angles ]
;  ai    aj    ak funct            c0            c1            c2            c3 
    1     2     3     1    112.700    488.273
    2     3     4     1    112.700    488.273
    3     4     5     1    112.700    488.273
    1     2     6     1    112.700    488.273
    2     6     7     1    112.700    488.273
    2     6     8     1    112.700    488.273
    6     8     9     1    111.100    527.184
    8     9    10     1    120.400    669.440
    8     9    11     1    118.180    584.923
    9    11    12     1    156.000    924.413
    6     8    13     1    112.700    488.273
    1     2    14     1    112.700    488.273
    2     1    15     1    110.700    313.800
    2     1    16     1    110.700    313.800
    2     1    17     1    110.700    313.800
    2     3    18     1    110.700    313.800
    2     3    19     1    110.700    313.800
    3     4    20     1    110.700    313.800
    3     4    21     1    110.700    313.800
    4     5    22     1    110.700    313.800
    4     5    23     1    110.700    313.800
    6     7    24     1    110.700    313.800
    6     7    25     1    110.700    313.800
    6     7    26     1    110.700    313.800
    6     8    27     1    110.700    313.800
    8    13    28     1    110.700    313.800
    8    13    29     1    110.700    313.800
    2    14    30     1    110.700    313.800
    2    14    31     1    110.700    313.800
   14    13    29     1    110.700    313.800
   25     7    26     1    107.800    276.144
    3     2    14     1    112.700    488.273
   30    14    31     1    107.800    276.144
    4     5     6     1    112.700    488.273
    6     5    22     1    110.700    313.800
    4     3    19     1    110.700    313.800
   16     1    17     1    107.800    276.144
    9     8    13     1    111.100    527.184
    4     3    18     1    110.700    313.800
    9     8    27     1    109.500    292.880
   13     8    27     1    110.700    313.800
   13    14    30     1    110.700    313.800
   15     1    16     1    107.800    276.144
   18     3    19     1    107.800    276.144
    8    13    14     1    112.700    488.273
    7     6     8     1    112.700    488.273
    3     2     6     1    112.700    488.273
   28    13    29     1    107.800    276.144
    2    14    13     1    112.700    488.273
   15     1    17     1    107.800    276.144
    5     4    20     1    110.700    313.800
   10     9    11     1    118.180    584.923
   13    14    31     1    110.700    313.800
   22     5    23     1    107.800    276.144
    2     6     5     1    112.700    488.273
    6     5    23     1    110.700    313.800
    5     6     8     1    112.700    488.273
    5     4    21     1    110.700    313.800
   24     7    26     1    107.800    276.144
   24     7    25     1    107.800    276.144
    6     2    14     1    112.700    488.273
    5     6     7     1    112.700    488.273
   20     4    21     1    107.800    276.144
   14    13    28     1    110.700    313.800

[ dihedrals ]
; IMPROPER DIHEDRAL ANGLES 
;  ai    aj    ak    al funct            c0            c1            c2            c3            c4            c5
    11     9     8    10    4        180.000     43.932     2  

[ dihedrals ]
; PROPER DIHEDRAL ANGLES
;  ai    aj    ak    al funct            c0            c1            c2            c3            c4            c5
    9    8    6    2        3      -4.960   6.286   1.310  -2.636  -0.000   0.000
    9    8    6    7        3      -4.960   6.286   1.310  -2.636  -0.000   0.000
    9    8    6    5        3      -4.960   6.286   1.310  -2.636  -0.000   0.000
   13    8    9   11        3       0.000   0.000   0.000  -0.000  -0.000   0.000
   13    8    9   10        3       0.000   0.000   0.000  -0.000  -0.000   0.000
   14   13    8    9        3      -4.960   6.286   1.310  -2.636  -0.000   0.000
    4    3    2    1        3       2.301  -1.464   0.837  -1.674  -0.000   0.000
   13   14    2    1        3       2.301  -1.464   0.837  -1.674  -0.000   0.000
   14    2    6    5        3       2.301  -1.464   0.837  -1.674  -0.000   0.000
    5    6    2    1        3       2.301  -1.464   0.837  -1.674  -0.000   0.000
    6    2    3    4        3       2.301  -1.464   0.837  -1.674  -0.000   0.000
   13    8    6    2        3       2.301  -1.464   0.837  -1.674  -0.000   0.000
    4    5    6    2        3       2.301  -1.464   0.837  -1.674  -0.000   0.000
    5    6    2    3        3       2.301  -1.464   0.837  -1.674  -0.000   0.000
    8   13   14    2        3       2.301  -1.464   0.837  -1.674  -0.000   0.000
    6    5    4    3        3       2.301  -1.464   0.837  -1.674  -0.000   0.000
    8    6    5    4        3       2.301  -1.464   0.837  -1.674  -0.000   0.000
   13   14    2    3        3       2.301  -1.464   0.837  -1.674  -0.000   0.000
    8    6    2    3        3       2.301  -1.464   0.837  -1.674  -0.000   0.000
   14    2    6    7        3       2.301  -1.464   0.837  -1.674  -0.000   0.000
   13   14    2    6        3       2.301  -1.464   0.837  -1.674  -0.000   0.000
   14   13    8    6        3       2.301  -1.464   0.837  -1.674  -0.000   0.000
   14    2    3    4        3       2.301  -1.464   0.837  -1.674  -0.000   0.000
   13    8    6    7        3       2.301  -1.464   0.837  -1.674  -0.000   0.000
   14    2    6    8        3       2.301  -1.464   0.837  -1.674  -0.000   0.000
    7    6    5    4        3       2.301  -1.464   0.837  -1.674  -0.000   0.000
   13    8    6    5        3       2.301  -1.464   0.837  -1.674  -0.000   0.000
    7    6    2    1        3       2.301  -1.464   0.837  -1.674  -0.000   0.000
    7    6    2    3        3       2.301  -1.464   0.837  -1.674  -0.000   0.000
    8    6    2    1        3       2.301  -1.464   0.837  -1.674  -0.000   0.000
    5    4    3    2        3       2.301  -1.464   0.837  -1.674  -0.000   0.000
   11    9    8    6        3       0.000   0.000   0.000  -0.000  -0.000   0.000
   27    8    9   11        3       0.575   1.726   0.000  -2.301  -0.000   0.000
   27    8    9   10        3       0.000   0.000   0.000  -0.000  -0.000   0.000
   29   13    8    9        3      -0.209  -0.628   0.000   0.837  -0.000   0.000
   28   13    8    9        3      -0.209  -0.628   0.000   0.837  -0.000   0.000
   31   14    2    3        3       0.628   1.883   0.000  -2.510  -0.000   0.000
   31   14   13    8        3       0.628   1.883   0.000  -2.510  -0.000   0.000
   18    3    4    5        3       0.628   1.883   0.000  -2.510  -0.000   0.000
   28   13    8    6        3       0.628   1.883   0.000  -2.510  -0.000   0.000
   21    4    3    2        3       0.628   1.883   0.000  -2.510  -0.000   0.000
   22    5    6    2        3       0.628   1.883   0.000  -2.510  -0.000   0.000
   23    5    4    3        3       0.628   1.883   0.000  -2.510  -0.000   0.000
   25    7    6    5        3       0.628   1.883   0.000  -2.510  -0.000   0.000
   19    3    2    6        3       0.628   1.883   0.000  -2.510  -0.000   0.000
   20    4    5    6        3       0.628   1.883   0.000  -2.510  -0.000   0.000
   22    5    6    7        3       0.628   1.883   0.000  -2.510  -0.000   0.000
   28   13   14    2        3       0.628   1.883   0.000  -2.510  -0.000   0.000
   15    1    2    3        3       0.628   1.883   0.000  -2.510  -0.000   0.000
   17    1    2   14        3       0.628   1.883   0.000  -2.510  -0.000   0.000
   16    1    2    3        3       0.628   1.883   0.000  -2.510  -0.000   0.000
   27    8    6    7        3       0.628   1.883   0.000  -2.510  -0.000   0.000
   26    7    6    5        3       0.628   1.883   0.000  -2.510  -0.000   0.000
   19    3    4    5        3       0.628   1.883   0.000  -2.510  -0.000   0.000
   21    4    5    6        3       0.628   1.883   0.000  -2.510  -0.000   0.000
   20    4    3    2        3       0.628   1.883   0.000  -2.510  -0.000   0.000
   30   14   13    8        3       0.628   1.883   0.000  -2.510  -0.000   0.000
   27    8   13   14        3       0.628   1.883   0.000  -2.510  -0.000   0.000
   26    7    6    8        3       0.628   1.883   0.000  -2.510  -0.000   0.000
   17    1    2    6        3       0.628   1.883   0.000  -2.510  -0.000   0.000
   23    5    6    2        3       0.628   1.883   0.000  -2.510  -0.000   0.000
   24    7    6    8        3       0.628   1.883   0.000  -2.510  -0.000   0.000
   17    1    2    3        3       0.628   1.883   0.000  -2.510  -0.000   0.000
   31   14    2    1        3       0.628   1.883   0.000  -2.510  -0.000   0.000
   30   14    2    3        3       0.628   1.883   0.000  -2.510  -0.000   0.000
   15    1    2    6        3       0.628   1.883   0.000  -2.510  -0.000   0.000
   31   14    2    6        3       0.628   1.883   0.000  -2.510  -0.000   0.000
   16    1    2    6        3       0.628   1.883   0.000  -2.510  -0.000   0.000
   24    7    6    5        3       0.628   1.883   0.000  -2.510  -0.000   0.000
   23    5    6    8        3       0.628   1.883   0.000  -2.510  -0.000   0.000
   23    5    6    7        3       0.628   1.883   0.000  -2.510  -0.000   0.000
   30   14    2    6        3       0.628   1.883   0.000  -2.510  -0.000   0.000
   22    5    6    8        3       0.628   1.883   0.000  -2.510  -0.000   0.000
   30   14    2    1        3       0.628   1.883   0.000  -2.510  -0.000   0.000
   25    7    6    8        3       0.628   1.883   0.000  -2.510  -0.000   0.000
   15    1    2   14        3       0.628   1.883   0.000  -2.510  -0.000   0.000
   29   13    8    6        3       0.628   1.883   0.000  -2.510  -0.000   0.000
   18    3    2    6        3       0.628   1.883   0.000  -2.510  -0.000   0.000
   19    3    2   14        3       0.628   1.883   0.000  -2.510  -0.000   0.000
   27    8    6    5        3       0.628   1.883   0.000  -2.510  -0.000   0.000
   18    3    2    1        3       0.628   1.883   0.000  -2.510  -0.000   0.000
   27    8    6    2        3       0.628   1.883   0.000  -2.510  -0.000   0.000
   25    7    6    2        3       0.628   1.883   0.000  -2.510  -0.000   0.000
   22    5    4    3        3       0.628   1.883   0.000  -2.510  -0.000   0.000
   26    7    6    2        3       0.628   1.883   0.000  -2.510  -0.000   0.000
   29   13   14    2        3       0.628   1.883   0.000  -2.510  -0.000   0.000
   24    7    6    2        3       0.628   1.883   0.000  -2.510  -0.000   0.000
   18    3    2   14        3       0.628   1.883   0.000  -2.510  -0.000   0.000
   19    3    2    1        3       0.628   1.883   0.000  -2.510  -0.000   0.000
   16    1    2   14        3       0.628   1.883   0.000  -2.510  -0.000   0.000
   23    5    4   21        3       0.628   1.883   0.000  -2.510  -0.000   0.000
   31   14   13   29        3       0.628   1.883   0.000  -2.510  -0.000   0.000
   28   13    8   27        3       0.628   1.883   0.000  -2.510  -0.000   0.000
   29   13    8   27        3       0.628   1.883   0.000  -2.510  -0.000   0.000
   30   14   13   28        3       0.628   1.883   0.000  -2.510  -0.000   0.000
   20    4    3   19        3       0.628   1.883   0.000  -2.510  -0.000   0.000
   31   14   13   28        3       0.628   1.883   0.000  -2.510  -0.000   0.000
   22    5    4   21        3       0.628   1.883   0.000  -2.510  -0.000   0.000
   21    4    3   19        3       0.628   1.883   0.000  -2.510  -0.000   0.000
   22    5    4   20        3       0.628   1.883   0.000  -2.510  -0.000   0.000
   30   14   13   29        3       0.628   1.883   0.000  -2.510  -0.000   0.000
   20    4    3   18        3       0.628   1.883   0.000  -2.510  -0.000   0.000
   23    5    4   20        3       0.628   1.883   0.000  -2.510  -0.000   0.000
   21    4    3   18        3       0.628   1.883   0.000  -2.510  -0.000   0.000
   12   11    9    8        3      -0.209   1.046  -0.837  -0.000  -0.000   0.000
   12   11    9   10        3       0.000   0.000   0.000  -0.000  -0.000   0.000
   10    9    8    6        3       0.000   0.000   0.000  -0.000  -0.000   0.000

[ pairs ]
     1     4    1
     1     5    1
     1     7    1
     1     8    1
     3     7    1
     4     7    1
     3     8    1
     2     9    1
     4     8    1
     5     9    1
     1    13    1
     7     9    1
     6    10    1
     3    13    1
     6    11    1
     5    13    1
     4    14    1
     3    15    1
     5    14    1
     3    16    1
     1    18    1
     8    12    1
     7    13    1
     3    17    1
     1    19    1
     7    14    1
     6    15    1
    10    12    1
     6    16    1
     2    20    1
    10    13    1
     9    14    1
     6    17    1
     5    18    1
     2    21    1
    11    13    1
     6    18    1
     5    19    1
     2    22    1
     6    19    1
     3    22    1
     2    23    1
     6    20    1
     3    23    1
     2    24    1
     6    21    1
     2    25    1
     2    26    1
    14    15    1
     7    22    1
     5    24    1
     2    27    1
    14    16    1
     8    22    1
     7    23    1
     5    25    1
     2    28    1
    14    17    1
     8    23    1
     5    26    1
     2    29    1
     1    30    1
    14    18    1
     8    24    1
     5    27    1
     1    31    1
    14    19    1
     8    25    1
     3    30    1
     8    26    1
     7    27    1
     6    28    1
     3    31    1
     6    29    1
     6    30    1
    10    27    1
     9    28    1
     6    31    1
    18    20    1
    11    27    1
     9    29    1
     8    30    1
    19    20    1
    18    21    1
     8    31    1
    19    21    1
    14    27    1
    20    22    1
    21    22    1
    20    23    1
    21    23    1
    27    28    1
    27    29    1
    28    30    1
    29    30    1
    28    31    1
    29    31    1

