LIGPARGEN GENERATED GRO FILE
   31
    1UNK    C00    1   0.100   0.100   0.000
    1UNK    C01    2  -0.053   0.100   0.000
    1UNK    C02    3  -0.104   0.100   0.145
    1UNK    C03    4  -0.247   0.050   0.136
    1UNK    C04    5  -0.240  -0.060   0.030
    1UNK    C05    6  -0.123  -0.024  -0.066
    1UNK    C06    7  -0.034  -0.149  -0.080
    1UNK    C07    8  -0.177   0.028  -0.202
    1UNK    C08    9  -0.080   0.021  -0.319
    1UNK    O09   10   0.001   0.109  -0.347
    1UNK    C0A   11  -0.087  -0.100  -0.399
    1UNK    N0B   12  -0.095  -0.199  -0.459
    1UNK    C0C   13  -0.215   0.173  -0.172
    1UNK    C0D   14  -0.105   0.223  -0.079
    1UNK    H0E   15   0.141   0.016   0.057
    1UNK    H0F   16   0.139   0.192   0.046
    1UNK    H0G   17   0.140   0.094  -0.102
    1UNK    H0H   18  -0.099   0.199   0.192
    1UNK    H0I   19  -0.046   0.031   0.207
    1UNK    H0J   20  -0.315   0.130   0.104
    1UNK    H0K   21  -0.283   0.012   0.232
    1UNK    H0M   22  -0.336  -0.070  -0.022
    1UNK    H0N   23  -0.222  -0.155   0.081
    1UNK    H0O   24  -0.001  -0.185   0.018
    1UNK    H0P   25   0.056  -0.130  -0.140
    1UNK    H0Q   26  -0.090  -0.231  -0.128
    1UNK    H0R   27  -0.268  -0.027  -0.232
    1UNK    H0S   28  -0.312   0.178  -0.121
    1UNK    H0T   29  -0.223   0.235  -0.262
    1UNK    H0U   30  -0.142   0.303  -0.014
    1UNK    H0V   31  -0.025   0.267  -0.139
   1.00000   1.00000   1.00000

