
;
; GENERATED BY LigParGen Server
; Jorgensen Lab @ Yale University 
;
[ atomtypes ]
  opls_818  H818     1.0080     0.000    A    2.50000E-01   1.25520E-01
  opls_824  H824     1.0080     0.000    A    2.50000E-01   1.25520E-01
  opls_810  O810    15.9990     0.000    A    2.90000E-01   5.85760E-01
  opls_813  H813     1.0080     0.000    A    2.50000E-01   1.25520E-01
  opls_802  C802    12.0110     0.000    A    3.50000E-01   2.76144E-01
  opls_815  H815     1.0080     0.000    A    2.50000E-01   1.25520E-01
  opls_801  C801    12.0110     0.000    A    3.50000E-01   2.76144E-01
  opls_806  C806    12.0110     0.000    A    3.50000E-01   2.76144E-01
  opls_822  H822     1.0080     0.000    A    2.50000E-01   1.25520E-01
  opls_803  C803    12.0110     0.000    A    3.50000E-01   2.76144E-01
  opls_825  H825     1.0080     0.000    A    2.50000E-01   1.25520E-01
  opls_814  H814     1.0080     0.000    A    2.50000E-01   1.25520E-01
  opls_809  O809    15.9990     0.000    A    2.96000E-01   8.78640E-01
  opls_821  H821     1.0080     0.000    A    2.50000E-01   1.25520E-01
  opls_820  H820     1.0080     0.000    A    2.50000E-01   1.25520E-01
  opls_816  H816     1.0080     0.000    A    2.50000E-01   1.25520E-01
  opls_800  C800    12.0110     0.000    A    3.50000E-01   2.76144E-01
  opls_805  C805    12.0110     0.000    A    3.50000E-01   2.76144E-01
  opls_811  C811    12.0110     0.000    A    3.50000E-01   2.76144E-01
  opls_823  H823     1.0080     0.000    A    2.50000E-01   1.25520E-01
  opls_826  H826     1.0080     0.000    A    2.50000E-01   1.25520E-01
  opls_819  H819     1.0080     0.000    A    2.50000E-01   1.25520E-01
  opls_804  C804    12.0110     0.000    A    3.50000E-01   2.76144E-01
  opls_827  H827     1.0080     0.000    A    2.50000E-01   1.25520E-01
  opls_807  O807    15.9990     0.000    A    2.90000E-01   5.85760E-01
  opls_817  H817     1.0080     0.000    A    2.50000E-01   1.25520E-01
  opls_812  H812     1.0080     0.000    A    2.50000E-01   1.25520E-01
  opls_808  C808    12.0110     0.000    A    3.55000E-01   2.92880E-01
[ moleculetype ]
; Name               nrexcl
UNK                   3
[ atoms ]
;   nr       type  resnr residue  atom   cgnr     charge       mass  
     1   opls_800      1    UNK   C00      1      -0.24    12.0110 
     2   opls_801      1    UNK   C01      1    -0.1787    12.0110 
     3   opls_802      1    UNK   C02      1    -0.1638    12.0110 
     4   opls_803      1    UNK   C03      1    -0.1276    12.0110 
     5   opls_804      1    UNK   C04      1    -0.1637    12.0110 
     6   opls_805      1    UNK   C05      1      -0.24    12.0110 
     7   opls_806      1    UNK   C06      1     0.0312    12.0110 
     8   opls_807      1    UNK   O07      1     -0.378    15.9990 
     9   opls_808      1    UNK   C08      1     0.6057    12.0110 
    10   opls_809      1    UNK   O09      1     -0.386    15.9990 
    11   opls_810      1    UNK   O0A      1     -0.375    15.9990 
    12   opls_811      1    UNK   C0B      1      0.031    12.0110 
    13   opls_812      1    UNK   H0C      1     0.0855     1.0080 
    14   opls_813      1    UNK   H0D      1     0.0855     1.0080 
    15   opls_814      1    UNK   H0E      1     0.0855     1.0080 
    16   opls_815      1    UNK   H0F      1     0.0906     1.0080 
    17   opls_816      1    UNK   H0G      1     0.0906     1.0080 
    18   opls_817      1    UNK   H0H      1     0.1045     1.0080 
    19   opls_818      1    UNK   H0I      1     0.1045     1.0080 
    20   opls_819      1    UNK   H0J      1     0.0964     1.0080 
    21   opls_820      1    UNK   H0K      1     0.0964     1.0080 
    22   opls_821      1    UNK   H0M      1     0.0889     1.0080 
    23   opls_822      1    UNK   H0N      1     0.0889     1.0080 
    24   opls_823      1    UNK   H0O      1     0.0889     1.0080 
    25   opls_824      1    UNK   H0P      1     0.1202     1.0080 
    26   opls_825      1    UNK   H0Q      1     0.1202     1.0080 
    27   opls_826      1    UNK   H0R      1     0.1192     1.0080 
    28   opls_827      1    UNK   H0S      1     0.1192     1.0080 
[ bonds ]
    2     1     1      0.1529 224262.400
    3     2     1      0.1529 224262.400
    4     3     1      0.1529 224262.400
    5     4     1      0.1529 224262.400
    6     5     1      0.1529 224262.400
    7     4     1      0.1529 224262.400
    8     7     1      0.1410 267776.000
    9     8     1      0.1327 179075.200
   10     9     1      0.1229 476976.000
   11     9     1      0.1327 179075.200
   12     4     1      0.1529 224262.400
   13     1     1      0.1090 284512.000
   14     1     1      0.1090 284512.000
   15     1     1      0.1090 284512.000
   16     2     1      0.1090 284512.000
   17     2     1      0.1090 284512.000
   18     3     1      0.1090 284512.000
   19     3     1      0.1090 284512.000
   20     5     1      0.1090 284512.000
   21     5     1      0.1090 284512.000
   22     6     1      0.1090 284512.000
   23     6     1      0.1090 284512.000
   24     6     1      0.1090 284512.000
   25     7     1      0.1090 284512.000
   26     7     1      0.1090 284512.000
   27    12     1      0.1090 284512.000
   28    12     1      0.1090 284512.000
   12    11     1      0.1410 267776.000

[ angles ]
;  ai    aj    ak funct            c0            c1            c2            c3 
    1     2     3     1    112.700    488.273
    2     3     4     1    112.700    488.273
    3     4     5     1    112.700    488.273
    4     5     6     1    112.700    488.273
    3     4     7     1    112.700    488.273
    4     7     8     1    109.500    418.400
    7     8     9     1    116.900    694.544
    8     9    10     1    123.400    694.544
    8     9    11     1    118.180    584.923
    3     4    12     1    112.700    488.273
    2     1    13     1    110.700    313.800
    2     1    14     1    110.700    313.800
    2     1    15     1    110.700    313.800
    1     2    16     1    110.700    313.800
    1     2    17     1    110.700    313.800
    2     3    18     1    110.700    313.800
    2     3    19     1    110.700    313.800
    4     5    20     1    110.700    313.800
    4     5    21     1    110.700    313.800
    5     6    22     1    110.700    313.800
    5     6    23     1    110.700    313.800
    5     6    24     1    110.700    313.800
    4     7    25     1    110.700    313.800
    4     7    26     1    110.700    313.800
    4    12    27     1    110.700    313.800
    4    12    28     1    110.700    313.800
   18     3    19     1    107.800    276.144
   11    12    28     1    109.500    292.880
    5     4    12     1    112.700    488.273
   13     1    14     1    107.800    276.144
   22     6    24     1    107.800    276.144
    5     4     7     1    112.700    488.273
    3     2    17     1    110.700    313.800
    9    11    12     1    116.900    694.544
   16     2    17     1    107.800    276.144
    4     3    19     1    110.700    313.800
    8     7    26     1    109.500    292.880
   14     1    15     1    107.800    276.144
   27    12    28     1    107.800    276.144
    3     2    16     1    110.700    313.800
    6     5    20     1    110.700    313.800
    4     3    18     1    110.700    313.800
    4    12    11     1    109.500    418.400
    8     7    25     1    109.500    292.880
   22     6    23     1    107.800    276.144
   25     7    26     1    107.800    276.144
   11    12    27     1    109.500    292.880
   23     6    24     1    107.800    276.144
    6     5    21     1    110.700    313.800
   10     9    11     1    123.400    694.544
    7     4    12     1    112.700    488.273
   13     1    15     1    107.800    276.144
   20     5    21     1    107.800    276.144

[ dihedrals ]
; IMPROPER DIHEDRAL ANGLES 
;  ai    aj    ak    al funct            c0            c1            c2            c3            c4            c5
    11     9     8    10    4        180.000     43.932     2  

[ dihedrals ]
; PROPER DIHEDRAL ANGLES
;  ai    aj    ak    al funct            c0            c1            c2            c3            c4            c5
    9    8    7    4        3      -2.197   5.201   0.527  -3.531  -0.000   0.000
    9   11   12    4        3      -2.197   5.201   0.527  -3.531  -0.000   0.000
    4    3    2    1        3       2.301  -1.464   0.837  -1.674  -0.000   0.000
    5    4    3    2        3       2.301  -1.464   0.837  -1.674  -0.000   0.000
    6    5    4    3        3       2.301  -1.464   0.837  -1.674  -0.000   0.000
   12    4    3    2        3       2.301  -1.464   0.837  -1.674  -0.000   0.000
    7    4    5    6        3       2.301  -1.464   0.837  -1.674  -0.000   0.000
    7    4    3    2        3       2.301  -1.464   0.837  -1.674  -0.000   0.000
   12    4    5    6        3       2.301  -1.464   0.837  -1.674  -0.000   0.000
   12    4    7    8        3       2.874   0.582   2.092  -5.548  -0.000   0.000
   12   11    9   10        3      21.439   0.000  -21.439  -0.000  -0.000   0.000
   12   11    9    8        3      31.206  -9.768  -21.439  -0.000  -0.000   0.000
   20    5    4    7        3       0.628   1.883   0.000  -2.510  -0.000   0.000
   26    7    4    5        3       0.628   1.883   0.000  -2.510  -0.000   0.000
   24    6    5    4        3       0.628   1.883   0.000  -2.510  -0.000   0.000
   19    3    4    7        3       0.628   1.883   0.000  -2.510  -0.000   0.000
   27   12    4    3        3       0.628   1.883   0.000  -2.510  -0.000   0.000
   18    3    4    5        3       0.628   1.883   0.000  -2.510  -0.000   0.000
   23    6    5    4        3       0.628   1.883   0.000  -2.510  -0.000   0.000
   20    5    4   12        3       0.628   1.883   0.000  -2.510  -0.000   0.000
   26    7    4   12        3       0.628   1.883   0.000  -2.510  -0.000   0.000
   21    5    4   12        3       0.628   1.883   0.000  -2.510  -0.000   0.000
   21    5    4    3        3       0.628   1.883   0.000  -2.510  -0.000   0.000
   21    5    4    7        3       0.628   1.883   0.000  -2.510  -0.000   0.000
   26    7    4    3        3       0.628   1.883   0.000  -2.510  -0.000   0.000
   25    7    4   12        3       0.628   1.883   0.000  -2.510  -0.000   0.000
   27   12    4    7        3       0.628   1.883   0.000  -2.510  -0.000   0.000
   27   12    4    5        3       0.628   1.883   0.000  -2.510  -0.000   0.000
   19    3    4   12        3       0.628   1.883   0.000  -2.510  -0.000   0.000
   15    1    2    3        3       0.628   1.883   0.000  -2.510  -0.000   0.000
   17    2    3    4        3       0.628   1.883   0.000  -2.510  -0.000   0.000
   18    3    4   12        3       0.628   1.883   0.000  -2.510  -0.000   0.000
   20    5    4    3        3       0.628   1.883   0.000  -2.510  -0.000   0.000
   28   12    4    3        3       0.628   1.883   0.000  -2.510  -0.000   0.000
   25    7    4    3        3       0.628   1.883   0.000  -2.510  -0.000   0.000
   16    2    3    4        3       0.628   1.883   0.000  -2.510  -0.000   0.000
   25    7    4    5        3       0.628   1.883   0.000  -2.510  -0.000   0.000
   18    3    4    7        3       0.628   1.883   0.000  -2.510  -0.000   0.000
   18    3    2    1        3       0.628   1.883   0.000  -2.510  -0.000   0.000
   19    3    2    1        3       0.628   1.883   0.000  -2.510  -0.000   0.000
   28   12    4    7        3       0.628   1.883   0.000  -2.510  -0.000   0.000
   22    6    5    4        3       0.628   1.883   0.000  -2.510  -0.000   0.000
   13    1    2    3        3       0.628   1.883   0.000  -2.510  -0.000   0.000
   19    3    4    5        3       0.628   1.883   0.000  -2.510  -0.000   0.000
   28   12    4    5        3       0.628   1.883   0.000  -2.510  -0.000   0.000
   14    1    2    3        3       0.628   1.883   0.000  -2.510  -0.000   0.000
   17    2    1   15        3       0.628   1.883   0.000  -2.510  -0.000   0.000
   18    3    2   16        3       0.628   1.883   0.000  -2.510  -0.000   0.000
   16    2    1   15        3       0.628   1.883   0.000  -2.510  -0.000   0.000
   18    3    2   17        3       0.628   1.883   0.000  -2.510  -0.000   0.000
   19    3    2   17        3       0.628   1.883   0.000  -2.510  -0.000   0.000
   17    2    1   13        3       0.628   1.883   0.000  -2.510  -0.000   0.000
   23    6    5   20        3       0.628   1.883   0.000  -2.510  -0.000   0.000
   16    2    1   14        3       0.628   1.883   0.000  -2.510  -0.000   0.000
   22    6    5   20        3       0.628   1.883   0.000  -2.510  -0.000   0.000
   16    2    1   13        3       0.628   1.883   0.000  -2.510  -0.000   0.000
   17    2    1   14        3       0.628   1.883   0.000  -2.510  -0.000   0.000
   24    6    5   20        3       0.628   1.883   0.000  -2.510  -0.000   0.000
   23    6    5   21        3       0.628   1.883   0.000  -2.510  -0.000   0.000
   24    6    5   21        3       0.628   1.883   0.000  -2.510  -0.000   0.000
   22    6    5   21        3       0.628   1.883   0.000  -2.510  -0.000   0.000
   19    3    2   16        3       0.628   1.883   0.000  -2.510  -0.000   0.000
   28   12   11    9        3       0.414   1.243   0.000  -1.657  -0.000   0.000
   25    7    8    9        3       0.414   1.243   0.000  -1.657  -0.000   0.000
   27   12   11    9        3       0.414   1.243   0.000  -1.657  -0.000   0.000
   26    7    8    9        3       0.414   1.243   0.000  -1.657  -0.000   0.000
   10    9    8    7        3      21.439   0.000  -21.439  -0.000  -0.000   0.000
   11    9    8    7        3      31.206  -9.768  -21.439  -0.000  -0.000   0.000
   11   12    4    3        3       2.874   0.582   2.092  -5.548  -0.000   0.000
   11   12    4    7        3       2.874   0.582   2.092  -5.548  -0.000   0.000
    8    7    4    3        3       2.874   0.582   2.092  -5.548  -0.000   0.000
    8    7    4    5        3       2.874   0.582   2.092  -5.548  -0.000   0.000
   11   12    4    5        3       2.874   0.582   2.092  -5.548  -0.000   0.000

[ pairs ]
     1     4    1
     2     5    1
     3     6    1
     2     7    1
     3     8    1
     6     7    1
     5     8    1
     4     9    1
     3    11    1
     2    12    1
     5    11    1
     3    13    1
     7    10    1
     3    14    1
     7    11    1
     6    12    1
     3    15    1
     1    18    1
     8    12    1
     4    16    1
     1    19    1
     4    17    1
    10    12    1
     5    18    1
     3    20    1
     5    19    1
     3    21    1
     7    18    1
     7    19    1
     4    22    1
     7    20    1
     4    23    1
     7    21    1
     4    24    1
     3    25    1
    13    16    1
     3    26    1
    14    16    1
    13    17    1
    12    18    1
     5    25    1
     3    27    1
    15    16    1
    14    17    1
    12    19    1
     5    26    1
     3    28    1
    15    17    1
    12    20    1
     5    27    1
    12    21    1
     5    28    1
    16    18    1
     9    25    1
     7    27    1
    17    18    1
    16    19    1
     9    26    1
     7    28    1
    17    19    1
     9    27    1
    12    25    1
     9    28    1
    12    26    1
    20    22    1
    21    22    1
    20    23    1
    21    23    1
    20    24    1
    21    24    1

