LIGPARGEN GENERATED GRO FILE
   37
    1UNK    C00    1   0.100   0.100   0.000
    1UNK    C01    2  -0.053   0.100   0.000
    1UNK    C02    3  -0.116   0.100   0.139
    1UNK    C03    4  -0.078   0.225   0.219
    1UNK    C04    5  -0.270   0.086   0.124
    1UNK    C05    6  -0.345   0.084   0.257
    1UNK    C06    7  -0.496   0.061   0.242
    1UNK    C07    8  -0.535  -0.073   0.182
    1UNK    C08    9  -0.495  -0.196   0.257
    1UNK    C09   10  -0.521  -0.330   0.202
    1UNK    C0A   11  -0.667  -0.307   0.242
    1UNK    C0B   12  -0.643  -0.158   0.244
    1UNK    C0C   13  -0.739  -0.086   0.334
    1UNK    H0D   14   0.140   0.089  -0.101
    1UNK    H0E   15   0.140   0.022   0.063
    1UNK    H0F   16   0.139   0.198   0.037
    1UNK    H0G   17  -0.086   0.009  -0.053
    1UNK    H0H   18  -0.090   0.185  -0.058
    1UNK    H0I   19  -0.080   0.012   0.195
    1UNK    H0J   20  -0.118   0.316   0.172
    1UNK    H0K   21   0.030   0.236   0.228
    1UNK    H0M   22  -0.117   0.221   0.322
    1UNK    H0N   23  -0.290  -0.008   0.070
    1UNK    H0O   24  -0.309   0.168   0.062
    1UNK    H0P   25  -0.332   0.181   0.307
    1UNK    H0Q   26  -0.301   0.009   0.323
    1UNK    H0R   27  -0.540   0.141   0.180
    1UNK    H0S   28  -0.538   0.072   0.342
    1UNK    H0T   29  -0.522  -0.075   0.074
    1UNK    H0U   30  -0.393  -0.180   0.284
    1UNK    H0V   31  -0.473  -0.414   0.253
    1UNK    H0W   32  -0.503  -0.339   0.095
    1UNK    H0X   33  -0.691  -0.346   0.342
    1UNK    H0Y   34  -0.742  -0.345   0.172
    1UNK    H0Z   35  -0.839  -0.128   0.320
    1UNK    H10   36  -0.750   0.020   0.306
    1UNK    H11   37  -0.711  -0.095   0.440
   1.00000   1.00000   1.00000

