
;
; GENERATED BY LigParGen Server
; Jorgensen Lab @ Yale University 
;
[ atomtypes ]
  opls_818  H818     1.0080     0.000    A    2.50000E-01   1.25520E-01
  opls_810  F810    18.9984     0.000    A    2.90000E-01   2.51040E-01
  opls_805  O805    15.9990     0.000    A    2.96000E-01   7.11280E-01
  opls_813  H813     1.0080     0.000    A    2.50000E-01   1.25520E-01
  opls_802  C802    12.0110     0.000    A    3.50000E-01   2.76144E-01
  opls_815  H815     1.0080     0.000    A    2.50000E-01   1.25520E-01
  opls_809  C809    12.0110     0.000    A    3.50000E-01   2.76144E-01
  opls_822  H822     1.0080     0.000    A    2.50000E-01   1.25520E-01
  opls_807  C807    12.0110     0.000    A    3.50000E-01   2.76144E-01
  opls_814  H814     1.0080     0.000    A    2.50000E-01   1.25520E-01
  opls_821  H821     1.0080     0.000    A    2.50000E-01   1.25520E-01
  opls_820  H820     1.0080     0.000    A    2.50000E-01   1.25520E-01
  opls_811  H811     1.0080     0.000    A    2.50000E-01   1.25520E-01
  opls_816  H816     1.0080     0.000    A    2.50000E-01   1.25520E-01
  opls_800  C800    12.0110     0.000    A    3.50000E-01   2.76144E-01
  opls_808  F808    18.9984     0.000    A    2.90000E-01   2.51040E-01
  opls_819  H819     1.0080     0.000    A    2.50000E-01   1.25520E-01
  opls_804  C804    12.0110     0.000    A    3.50000E-01   2.76144E-01
  opls_801  C801    12.0110     0.000    A    3.50000E-01   2.76144E-01
  opls_817  H817     1.0080     0.000    A    2.50000E-01   1.25520E-01
  opls_806  O806    15.9990     0.000    A    2.96000E-01   7.11280E-01
  opls_803  S803    32.0600     0.000    A    3.55000E-01   1.04600E+00
  opls_812  H812     1.0080     0.000    A    2.50000E-01   1.25520E-01
[ moleculetype ]
; Name               nrexcl
UNK                   3
[ atoms ]
;   nr       type  resnr residue  atom   cgnr     charge       mass  
     1   opls_800      1    UNK   C00      1     -0.258    12.0110 
     2   opls_801      1    UNK   C01      1     -0.101    12.0110 
     3   opls_802      1    UNK   C02      1    -0.5089    12.0110 
     4   opls_803      1    UNK   S03      1     1.3032    32.0600 
     5   opls_804      1    UNK   C04      1     -0.583    12.0110 
     6   opls_805      1    UNK   O05      1    -0.5632    15.9990 
     7   opls_806      1    UNK   O06      1    -0.5632    15.9990 
     8   opls_807      1    UNK   C07      1     0.0334    12.0110 
     9   opls_808      1    UNK   F08      1    -0.1687    18.9984 
    10   opls_809      1    UNK   C09      1    -0.0243    12.0110 
    11   opls_810      1    UNK   F0A      1    -0.1714    18.9984 
    12   opls_811      1    UNK   H0B      1     0.1055     1.0080 
    13   opls_812      1    UNK   H0C      1     0.1055     1.0080 
    14   opls_813      1    UNK   H0D      1     0.1055     1.0080 
    15   opls_814      1    UNK   H0E      1     0.1284     1.0080 
    16   opls_815      1    UNK   H0F      1     0.1629     1.0080 
    17   opls_816      1    UNK   H0G      1     0.1629     1.0080 
    18   opls_817      1    UNK   H0H      1     0.1679     1.0080 
    19   opls_818      1    UNK   H0I      1     0.1679     1.0080 
    20   opls_819      1    UNK   H0J      1     0.1679     1.0080 
    21   opls_820      1    UNK   H0K      1     0.1153     1.0080 
    22   opls_821      1    UNK   H0M      1     0.1076     1.0080 
    23   opls_822      1    UNK   H0N      1     0.1076     1.0080 
[ bonds ]
    2     1     1      0.1529 224262.400
    3     2     1      0.1529 224262.400
    4     3     1      0.1770 284512.000
    5     4     1      0.1770 284512.000
    6     4     1      0.1440 585760.000
    7     4     1      0.1440 585760.000
    8     2     1      0.1529 224262.400
    9     8     1      0.1360 307105.600
   10     8     1      0.1529 224262.400
   11    10     1      0.1360 307105.600
   12     1     1      0.1090 284512.000
   13     1     1      0.1090 284512.000
   14     1     1      0.1090 284512.000
   15     2     1      0.1090 284512.000
   16     3     1      0.1090 284512.000
   17     3     1      0.1090 284512.000
   18     5     1      0.1090 284512.000
   19     5     1      0.1090 284512.000
   20     5     1      0.1090 284512.000
   21     8     1      0.1090 284512.000
   22    10     1      0.1090 284512.000
   23    10     1      0.1090 284512.000

[ angles ]
;  ai    aj    ak funct            c0            c1            c2            c3 
    1     2     3     1    112.700    488.273
    2     3     4     1    108.600    418.400
    3     4     5     1    102.000    518.816
    3     4     6     1    108.900    619.232
    3     4     7     1    108.900    619.232
    1     2     8     1    112.700    488.273
    2     8     9     1    109.500    418.400
    2     8    10     1    112.700    488.273
    8    10    11     1    109.500    418.400
    2     1    12     1    110.700    313.800
    2     1    13     1    110.700    313.800
    2     1    14     1    110.700    313.800
    1     2    15     1    110.700    313.800
    2     3    16     1    110.700    313.800
    2     3    17     1    110.700    313.800
    4     5    18     1    109.500    292.880
    4     5    19     1    109.500    292.880
    4     5    20     1    109.500    292.880
    2     8    21     1    110.700    313.800
    8    10    22     1    110.700    313.800
    8    10    23     1    110.700    313.800
    5     4     6     1    108.900    619.232
   10     8    21     1    110.700    313.800
   13     1    14     1    107.800    276.144
    5     4     7     1    108.900    619.232
    3     2    15     1    110.700    313.800
   18     5    20     1    107.800    276.144
    6     4     7     1    119.000    870.272
   22    10    23     1    107.800    276.144
    9     8    10     1    109.500    418.400
   12     1    14     1    107.800    276.144
    3     2     8     1    112.700    488.273
   19     5    20     1    107.800    276.144
   12     1    13     1    107.800    276.144
   11    10    22     1    107.000    334.720
    8     2    15     1    110.700    313.800
   18     5    19     1    107.800    276.144
    4     3    16     1    109.500    292.880
    4     3    17     1    109.500    292.880
   16     3    17     1    107.800    276.144
    9     8    21     1    107.000    334.720
   11    10    23     1    107.000    334.720

[ dihedrals ]
; IMPROPER DIHEDRAL ANGLES 
;  ai    aj    ak    al funct            c0            c1            c2            c3            c4            c5

[ dihedrals ]
; PROPER DIHEDRAL ANGLES
;  ai    aj    ak    al funct            c0            c1            c2            c3            c4            c5
   10    8    2    1        3       2.301  -1.464   0.837  -1.674  -0.000   0.000
   10    8    2    3        3       2.301  -1.464   0.837  -1.674  -0.000   0.000
    8    2    3    4        3       2.784   0.278   0.828  -3.891  -0.000   0.000
    5    4    3    2        3       0.000   0.000   0.000  -0.000  -0.000   0.000
    9    8    2    3        3      -0.209   1.883   1.674  -3.347  -0.000   0.000
    9    8    2    1        3      -0.209   1.883   1.674  -3.347  -0.000   0.000
   11   10    8    2        3      -0.209   1.883   1.674  -3.347  -0.000   0.000
   11   10    8    9        3      -4.707   6.799   0.000  -2.092  -0.000   0.000
   14    1    2    3        3       0.628   1.883   0.000  -2.510  -0.000   0.000
   21    8    2    1        3       0.628   1.883   0.000  -2.510  -0.000   0.000
   21    8    2    3        3       0.628   1.883   0.000  -2.510  -0.000   0.000
   13    1    2    3        3       0.628   1.883   0.000  -2.510  -0.000   0.000
   12    1    2    8        3       0.628   1.883   0.000  -2.510  -0.000   0.000
   17    3    2    8        3       0.628   1.883   0.000  -2.510  -0.000   0.000
   17    3    2    1        3       0.628   1.883   0.000  -2.510  -0.000   0.000
   16    3    2    1        3       0.628   1.883   0.000  -2.510  -0.000   0.000
   23   10    8    2        3       0.628   1.883   0.000  -2.510  -0.000   0.000
   16    3    2    8        3       0.628   1.883   0.000  -2.510  -0.000   0.000
   22   10    8    2        3       0.628   1.883   0.000  -2.510  -0.000   0.000
   13    1    2    8        3       0.628   1.883   0.000  -2.510  -0.000   0.000
   12    1    2    3        3       0.628   1.883   0.000  -2.510  -0.000   0.000
   15    2    8   10        3       0.628   1.883   0.000  -2.510  -0.000   0.000
   14    1    2    8        3       0.628   1.883   0.000  -2.510  -0.000   0.000
   15    2    8    9        3       0.837   2.510   0.000  -3.347  -0.000   0.000
   21    8   10   11        3       0.837   2.510   0.000  -3.347  -0.000   0.000
   22   10    8    9        3       0.837   2.510   0.000  -3.347  -0.000   0.000
   23   10    8    9        3       0.837   2.510   0.000  -3.347  -0.000   0.000
   15    2    1   13        3       0.628   1.883   0.000  -2.510  -0.000   0.000
   17    3    2   15        3       0.628   1.883   0.000  -2.510  -0.000   0.000
   15    2    1   14        3       0.628   1.883   0.000  -2.510  -0.000   0.000
   22   10    8   21        3       0.628   1.883   0.000  -2.510  -0.000   0.000
   23   10    8   21        3       0.628   1.883   0.000  -2.510  -0.000   0.000
   21    8    2   15        3       0.628   1.883   0.000  -2.510  -0.000   0.000
   15    2    1   12        3       0.628   1.883   0.000  -2.510  -0.000   0.000
   16    3    2   15        3       0.628   1.883   0.000  -2.510  -0.000   0.000
   15    2    3    4        3       0.946   2.837   0.000  -3.782  -0.000   0.000
   20    5    4    3        3       0.732   2.197   0.000  -2.929  -0.000   0.000
   18    5    4    3        3       0.732   2.197   0.000  -2.929  -0.000   0.000
   19    5    4    3        3       0.732   2.197   0.000  -2.929  -0.000   0.000
   16    3    4    5        3       0.732   2.197   0.000  -2.929  -0.000   0.000
   17    3    4    5        3       0.732   2.197   0.000  -2.929  -0.000   0.000
   17    3    4    6        3       0.732   2.197   0.000  -2.929  -0.000   0.000
   18    5    4    6        3       0.732   2.197   0.000  -2.929  -0.000   0.000
   18    5    4    7        3       0.732   2.197   0.000  -2.929  -0.000   0.000
   17    3    4    7        3       0.732   2.197   0.000  -2.929  -0.000   0.000
   20    5    4    7        3       0.732   2.197   0.000  -2.929  -0.000   0.000
   20    5    4    6        3       0.732   2.197   0.000  -2.929  -0.000   0.000
   16    3    4    7        3       0.732   2.197   0.000  -2.929  -0.000   0.000
   19    5    4    7        3       0.732   2.197   0.000  -2.929  -0.000   0.000
   16    3    4    6        3       0.732   2.197   0.000  -2.929  -0.000   0.000
   19    5    4    6        3       0.732   2.197   0.000  -2.929  -0.000   0.000
    7    4    3    2        3       0.000   0.000   0.000  -0.000  -0.000   0.000
    6    4    3    2        3       0.000   0.000   0.000  -0.000  -0.000   0.000
    4    3    2    1        3       2.784   0.278   0.828  -3.891  -0.000   0.000

[ pairs ]
     1     4    1
     2     5    1
     2     6    1
     2     7    1
     1     9    1
     1    10    1
     4     8    1
     3     9    1
     3    10    1
     2    11    1
     3    12    1
     3    13    1
     3    14    1
     1    16    1
     1    17    1
     4    15    1
     9    11    1
     8    12    1
     8    13    1
     5    16    1
     3    18    1
     8    14    1
     6    16    1
     5    17    1
     3    19    1
     1    21    1
     7    16    1
     6    17    1
     3    20    1
     9    15    1
     8    16    1
     7    17    1
     6    18    1
     3    21    1
     2    22    1
    10    15    1
     8    17    1
     7    18    1
     6    19    1
     2    23    1
     7    19    1
     6    20    1
    12    15    1
     7    20    1
    13    15    1
    14    15    1
    15    16    1
     9    22    1
    15    17    1
    11    21    1
     9    23    1
    15    21    1
    21    22    1
    21    23    1

