LIGPARGEN GENERATED GRO FILE
   23
    1UNK    C00    1   0.100   0.100   0.000
    1UNK    C01    2  -0.053   0.100   0.000
    1UNK    C02    3  -0.110   0.100   0.143
    1UNK    S03    4  -0.068  -0.045   0.239
    1UNK    C04    5  -0.158  -0.021   0.390
    1UNK    O05    6  -0.123  -0.160   0.172
    1UNK    O06    7   0.073  -0.038   0.273
    1UNK    C07    8  -0.109   0.223  -0.074
    1UNK    F08    9  -0.066   0.334  -0.007
    1UNK    C09   10  -0.066   0.235  -0.220
    1UNK    F0A   11  -0.136   0.336  -0.278
    1UNK    H0B   12   0.140   0.006   0.039
    1UNK    H0C   13   0.140   0.182   0.061
    1UNK    H0D   14   0.141   0.110  -0.101
    1UNK    H0E   15  -0.087   0.010  -0.052
    1UNK    H0F   16  -0.220   0.102   0.139
    1UNK    H0G   17  -0.076   0.188   0.200
    1UNK    H0H   18  -0.264  -0.018   0.368
    1UNK    H0I   19  -0.125   0.073   0.436
    1UNK    H0J   20  -0.135  -0.104   0.457
    1UNK    H0K   21  -0.218   0.224  -0.069
    1UNK    H0M   22  -0.089   0.143  -0.275
    1UNK    H0N   23   0.040   0.259  -0.230
   1.00000   1.00000   1.00000

