
;
; GENERATED BY LigParGen Server
; Jorgensen Lab @ Yale University 
;
[ atomtypes ]
  opls_818  H818     1.0080     0.000    A    2.50000E-01   1.25520E-01
  opls_808  C808    12.0110     0.000    A    3.50000E-01   2.76144E-01
  opls_824  H824     1.0080     0.000    A    2.50000E-01   1.25520E-01
  opls_805  C805    12.0110     0.000    A    3.50000E-01   2.76144E-01
  opls_836  H836     1.0080     0.000    A    2.50000E-01   1.25520E-01
  opls_834  H834     1.0080     0.000    A    2.50000E-01   1.25520E-01
  opls_828  H828     1.0080     0.000    A    2.50000E-01   1.25520E-01
  opls_835  H835     1.0080     0.000    A    2.50000E-01   1.25520E-01
  opls_802  C802    12.0110     0.000    A    3.50000E-01   2.76144E-01
  opls_827  H827     1.0080     0.000    A    2.50000E-01   1.25520E-01
  opls_801  C801    12.0110     0.000    A    3.50000E-01   2.76144E-01
  opls_838  H838     1.0080     0.000    A    2.50000E-01   1.25520E-01
  opls_822  H822     1.0080     0.000    A    2.50000E-01   1.25520E-01
  opls_803  C803    12.0110     0.000    A    3.50000E-01   2.76144E-01
  opls_825  H825     1.0080     0.000    A    2.50000E-01   1.25520E-01
  opls_830  H830     1.0080     0.000    A    2.50000E-01   1.25520E-01
  opls_821  H821     1.0080     0.000    A    2.50000E-01   1.25520E-01
  opls_842  H842     1.0080     0.000    A    2.50000E-01   1.25520E-01
  opls_820  H820     1.0080     0.000    A    2.50000E-01   1.25520E-01
  opls_837  H837     1.0080     0.000    A    2.50000E-01   1.25520E-01
  opls_809  S809    32.0600     0.000    A    3.55000E-01   1.04600E+00
  opls_831  H831     1.0080     0.000    A    2.50000E-01   1.25520E-01
  opls_832  H832     1.0080     0.000    A    2.50000E-01   1.25520E-01
  opls_800  C800    12.0110     0.000    A    3.50000E-01   2.76144E-01
  opls_807  C807    12.0110     0.000    A    3.50000E-01   2.76144E-01
  opls_806  C806    12.0110     0.000    A    3.50000E-01   2.76144E-01
  opls_823  H823     1.0080     0.000    A    2.50000E-01   1.25520E-01
  opls_813  C813    12.0110     0.000    A    3.50000E-01   2.76144E-01
  opls_814  C814    12.0110     0.000    A    3.30000E-01   2.76144E-01
  opls_826  H826     1.0080     0.000    A    2.50000E-01   1.25520E-01
  opls_815  N815    14.0070     0.000    A    3.20000E-01   7.11280E-01
  opls_841  H841     1.0080     0.000    A    2.50000E-01   1.25520E-01
  opls_819  H819     1.0080     0.000    A    2.50000E-01   1.25520E-01
  opls_804  C804    12.0110     0.000    A    3.50000E-01   2.76144E-01
  opls_833  H833     1.0080     0.000    A    2.50000E-01   1.25520E-01
  opls_839  H839     1.0080     0.000    A    2.50000E-01   1.25520E-01
  opls_817  C817    12.0110     0.000    A    3.50000E-01   2.76144E-01
  opls_812  C812    12.0110     0.000    A    3.50000E-01   2.76144E-01
  opls_810  O810    15.9990     0.000    A    2.96000E-01   7.11280E-01
  opls_840  H840     1.0080     0.000    A    2.50000E-01   1.25520E-01
  opls_829  H829     1.0080     0.000    A    2.50000E-01   1.25520E-01
  opls_816  O816    15.9990     0.000    A    2.90000E-01   5.85760E-01
  opls_811  O811    15.9990     0.000    A    2.96000E-01   7.11280E-01
[ moleculetype ]
; Name               nrexcl
UNK                   3
[ atoms ]
;   nr       type  resnr residue  atom   cgnr     charge       mass  
     1   opls_800      1    UNK   C00      1    -0.2413    12.0110 
     2   opls_801      1    UNK   C01      1    -0.1759    12.0110 
     3   opls_802      1    UNK   C02      1    -0.1808    12.0110 
     4   opls_803      1    UNK   C03      1    -0.1644    12.0110 
     5   opls_804      1    UNK   C04      1     0.1551    12.0110 
     6   opls_805      1    UNK   C05      1    -0.2678    12.0110 
     7   opls_806      1    UNK   C06      1    -0.2203    12.0110 
     8   opls_807      1    UNK   C07      1    -0.1437    12.0110 
     9   opls_808      1    UNK   C08      1    -0.4822    12.0110 
    10   opls_809      1    UNK   S09      1     1.3116    32.0600 
    11   opls_810      1    UNK   O0A      1    -0.5392    15.9990 
    12   opls_811      1    UNK   O0B      1    -0.5392    15.9990 
    13   opls_812      1    UNK   C0C      1    -0.3434    12.0110 
    14   opls_813      1    UNK   C0D      1    -0.2143    12.0110 
    15   opls_814      1    UNK   C0E      1     0.1181    12.0110 
    16   opls_815      1    UNK   N0F      1    -0.3214    14.0070 
    17   opls_816      1    UNK   O0G      1    -0.3921    15.9990 
    18   opls_817      1    UNK   C0H      1    -0.0483    12.0110 
    19   opls_818      1    UNK   H0I      1     0.0811     1.0080 
    20   opls_819      1    UNK   H0J      1     0.0811     1.0080 
    21   opls_820      1    UNK   H0K      1     0.0811     1.0080 
    22   opls_821      1    UNK   H0M      1     0.0946     1.0080 
    23   opls_822      1    UNK   H0N      1     0.0946     1.0080 
    24   opls_823      1    UNK   H0O      1     0.0867     1.0080 
    25   opls_824      1    UNK   H0P      1     0.0867     1.0080 
    26   opls_825      1    UNK   H0Q      1     0.1062     1.0080 
    27   opls_826      1    UNK   H0R      1     0.1062     1.0080 
    28   opls_827      1    UNK   H0S      1     0.0923     1.0080 
    29   opls_828      1    UNK   H0T      1     0.0923     1.0080 
    30   opls_829      1    UNK   H0U      1     0.0923     1.0080 
    31   opls_830      1    UNK   H0V      1     0.1091     1.0080 
    32   opls_831      1    UNK   H0W      1     0.1091     1.0080 
    33   opls_832      1    UNK   H0X      2     0.1198     1.0080 
    34   opls_833      1    UNK   H0Y      2     0.1198     1.0080 
    35   opls_834      1    UNK   H0Z      2     0.1644     1.0080 
    36   opls_835      1    UNK   H10      2     0.1644     1.0080 
    37   opls_836      1    UNK   H11      2     0.1955     1.0080 
    38   opls_837      1    UNK   H12      2     0.1219     1.0080 
    39   opls_838      1    UNK   H13      2     0.1219     1.0080 
    40   opls_839      1    UNK   H14      2     0.1219     1.0080 
    41   opls_840      1    UNK   H15      2     0.0823     1.0080 
    42   opls_841      1    UNK   H16      2     0.0823     1.0080 
    43   opls_842      1    UNK   H17      2     0.0823     1.0080 
[ bonds ]
    2     1     1      0.1529 224262.400
    3     2     1      0.1529 224262.400
    4     3     1      0.1529 224262.400
    5     4     1      0.1529 224262.400
    6     5     1      0.1529 224262.400
    7     5     1      0.1529 224262.400
    8     7     1      0.1529 224262.400
    9     8     1      0.1529 224262.400
   10     9     1      0.1770 284512.000
   11    10     1      0.1440 585760.000
   12    10     1      0.1440 585760.000
   13    10     1      0.1770 284512.000
   14    13     1      0.1529 224262.400
   15    13     1      0.1470 326352.000
   16    15     1      0.1157 543920.000
   17     5     1      0.1410 267776.000
   18    17     1      0.1410 267776.000
   19     1     1      0.1090 284512.000
   20     1     1      0.1090 284512.000
   21     1     1      0.1090 284512.000
   22     2     1      0.1090 284512.000
   23     2     1      0.1090 284512.000
   24     3     1      0.1090 284512.000
   25     3     1      0.1090 284512.000
   26     4     1      0.1090 284512.000
   27     4     1      0.1090 284512.000
   28     6     1      0.1090 284512.000
   29     6     1      0.1090 284512.000
   30     6     1      0.1090 284512.000
   31     7     1      0.1090 284512.000
   32     7     1      0.1090 284512.000
   33     8     1      0.1090 284512.000
   34     8     1      0.1090 284512.000
   35     9     1      0.1090 284512.000
   36     9     1      0.1090 284512.000
   37    13     1      0.1090 284512.000
   38    14     1      0.1090 284512.000
   39    14     1      0.1090 284512.000
   40    14     1      0.1090 284512.000
   41    18     1      0.1090 284512.000
   42    18     1      0.1090 284512.000
   43    18     1      0.1090 284512.000

[ angles ]
;  ai    aj    ak funct            c0            c1            c2            c3 
    1     2     3     1    112.700    488.273
    2     3     4     1    112.700    488.273
    3     4     5     1    112.700    488.273
    4     5     6     1    112.700    488.273
    4     5     7     1    112.700    488.273
    5     7     8     1    112.700    488.273
    7     8     9     1    112.700    488.273
    8     9    10     1    108.600    418.400
    9    10    11     1    108.900    619.232
    9    10    12     1    108.900    619.232
    9    10    13     1    102.000    518.816
   10    13    14     1    108.600    418.400
   10    13    15     1    110.580    432.207
   13    15    16     1    180.000   1255.200
    4     5    17     1    109.500    418.400
    5    17    18     1    109.500    502.080
    2     1    19     1    110.700    313.800
    2     1    20     1    110.700    313.800
    2     1    21     1    110.700    313.800
    1     2    22     1    110.700    313.800
    1     2    23     1    110.700    313.800
    2     3    24     1    110.700    313.800
    2     3    25     1    110.700    313.800
    3     4    26     1    110.700    313.800
    3     4    27     1    110.700    313.800
    5     6    28     1    110.700    313.800
    5     6    29     1    110.700    313.800
    5     6    30     1    110.700    313.800
    5     7    31     1    110.700    313.800
    5     7    32     1    110.700    313.800
    7     8    33     1    110.700    313.800
    7     8    34     1    110.700    313.800
    8     9    35     1    110.700    313.800
    8     9    36     1    110.700    313.800
   10    13    37     1    109.500    292.880
   13    14    38     1    110.700    313.800
   13    14    39     1    110.700    313.800
   13    14    40     1    110.700    313.800
   17    18    41     1    109.500    292.880
   17    18    42     1    109.500    292.880
   17    18    43     1    109.500    292.880
   28     6    29     1    107.800    276.144
    9     8    33     1    110.700    313.800
   11    10    12     1    119.000    870.272
   14    13    37     1    110.700    313.800
   33     8    34     1    107.800    276.144
   29     6    30     1    107.800    276.144
    5     4    26     1    110.700    313.800
   41    18    42     1    107.800    276.144
   12    10    13     1    108.900    619.232
   42    18    43     1    107.800    276.144
    6     5    17     1    109.500    418.400
   20     1    21     1    107.800    276.144
   14    13    15     1    112.700    488.273
    3     2    22     1    110.700    313.800
    3     2    23     1    110.700    313.800
   19     1    21     1    107.800    276.144
   35     9    36     1    107.800    276.144
   22     2    23     1    107.800    276.144
   28     6    30     1    107.800    276.144
    4     3    25     1    110.700    313.800
    6     5     7     1    112.700    488.273
    8     7    32     1    110.700    313.800
    9     8    34     1    110.700    313.800
    4     3    24     1    110.700    313.800
    8     7    31     1    110.700    313.800
   15    13    37     1    108.500    292.880
   10     9    36     1    109.500    292.880
   31     7    32     1    107.800    276.144
   10     9    35     1    109.500    292.880
   41    18    43     1    107.800    276.144
   24     3    25     1    107.800    276.144
   38    14    40     1    107.800    276.144
   11    10    13     1    108.900    619.232
   39    14    40     1    107.800    276.144
    7     5    17     1    109.500    418.400
   19     1    20     1    107.800    276.144
    5     4    27     1    110.700    313.800
   26     4    27     1    107.800    276.144
   38    14    39     1    107.800    276.144

[ dihedrals ]
; IMPROPER DIHEDRAL ANGLES 
;  ai    aj    ak    al funct            c0            c1            c2            c3            c4            c5

[ dihedrals ]
; PROPER DIHEDRAL ANGLES
;  ai    aj    ak    al funct            c0            c1            c2            c3            c4            c5
    4    3    2    1        3       2.301  -1.464   0.837  -1.674  -0.000   0.000
    5    4    3    2        3       2.301  -1.464   0.837  -1.674  -0.000   0.000
    6    5    4    3        3       2.301  -1.464   0.837  -1.674  -0.000   0.000
    8    7    5    4        3       2.301  -1.464   0.837  -1.674  -0.000   0.000
    9    8    7    5        3       2.301  -1.464   0.837  -1.674  -0.000   0.000
    8    7    5    6        3       2.301  -1.464   0.837  -1.674  -0.000   0.000
    7    5    4    3        3       2.301  -1.464   0.837  -1.674  -0.000   0.000
   14   13   10    9        3       0.000   0.000   0.000  -0.000  -0.000   0.000
   14   13   10   12        3       0.000   0.000   0.000  -0.000  -0.000   0.000
   14   13   10   11        3       0.000   0.000   0.000  -0.000  -0.000   0.000
   18   17    5    7        3       1.715   2.845   1.046  -5.607  -0.000   0.000
   18   17    5    4        3       1.715   2.845   1.046  -5.607  -0.000   0.000
   18   17    5    6        3       1.715   2.845   1.046  -5.607  -0.000   0.000
   13   10    9    8        3       0.000   0.000   0.000  -0.000  -0.000   0.000
   15   13   10    9        3       0.000   0.000   0.000  -0.000  -0.000   0.000
   15   13   10   11        3       0.000   0.000   0.000  -0.000  -0.000   0.000
   15   13   10   12        3       0.000   0.000   0.000  -0.000  -0.000   0.000
   34    8    7    5        3       0.628   1.883   0.000  -2.510  -0.000   0.000
   29    6    5    7        3       0.628   1.883   0.000  -2.510  -0.000   0.000
   32    7    8    9        3       0.628   1.883   0.000  -2.510  -0.000   0.000
   23    2    3    4        3       0.628   1.883   0.000  -2.510  -0.000   0.000
   25    3    4    5        3       0.628   1.883   0.000  -2.510  -0.000   0.000
   29    6    5    4        3       0.628   1.883   0.000  -2.510  -0.000   0.000
   31    7    5    6        3       0.628   1.883   0.000  -2.510  -0.000   0.000
   27    4    3    2        3       0.628   1.883   0.000  -2.510  -0.000   0.000
   35    9    8    7        3       0.628   1.883   0.000  -2.510  -0.000   0.000
   30    6    5    7        3       0.628   1.883   0.000  -2.510  -0.000   0.000
   36    9    8    7        3       0.628   1.883   0.000  -2.510  -0.000   0.000
   26    4    3    2        3       0.628   1.883   0.000  -2.510  -0.000   0.000
   31    7    8    9        3       0.628   1.883   0.000  -2.510  -0.000   0.000
   27    4    5    7        3       0.628   1.883   0.000  -2.510  -0.000   0.000
   24    3    4    5        3       0.628   1.883   0.000  -2.510  -0.000   0.000
   30    6    5    4        3       0.628   1.883   0.000  -2.510  -0.000   0.000
   33    8    7    5        3       0.628   1.883   0.000  -2.510  -0.000   0.000
   32    7    5    6        3       0.628   1.883   0.000  -2.510  -0.000   0.000
   31    7    5    4        3       0.628   1.883   0.000  -2.510  -0.000   0.000
   26    4    5    7        3       0.628   1.883   0.000  -2.510  -0.000   0.000
   28    6    5    7        3       0.628   1.883   0.000  -2.510  -0.000   0.000
   27    4    5    6        3       0.628   1.883   0.000  -2.510  -0.000   0.000
   19    1    2    3        3       0.628   1.883   0.000  -2.510  -0.000   0.000
   21    1    2    3        3       0.628   1.883   0.000  -2.510  -0.000   0.000
   28    6    5    4        3       0.628   1.883   0.000  -2.510  -0.000   0.000
   32    7    5    4        3       0.628   1.883   0.000  -2.510  -0.000   0.000
   26    4    5    6        3       0.628   1.883   0.000  -2.510  -0.000   0.000
   22    2    3    4        3       0.628   1.883   0.000  -2.510  -0.000   0.000
   20    1    2    3        3       0.628   1.883   0.000  -2.510  -0.000   0.000
   24    3    2    1        3       0.628   1.883   0.000  -2.510  -0.000   0.000
   25    3    2    1        3       0.628   1.883   0.000  -2.510  -0.000   0.000
   39   14   13   15        3       0.766   2.297   0.000  -3.063  -0.000   0.000
   38   14   13   15        3       0.766   2.297   0.000  -3.063  -0.000   0.000
   40   14   13   15        3       0.766   2.297   0.000  -3.063  -0.000   0.000
   36    9    8   34        3       0.628   1.883   0.000  -2.510  -0.000   0.000
   22    2    1   21        3       0.628   1.883   0.000  -2.510  -0.000   0.000
   23    2    1   20        3       0.628   1.883   0.000  -2.510  -0.000   0.000
   24    3    2   23        3       0.628   1.883   0.000  -2.510  -0.000   0.000
   27    4    3   24        3       0.628   1.883   0.000  -2.510  -0.000   0.000
   22    2    1   19        3       0.628   1.883   0.000  -2.510  -0.000   0.000
   36    9    8   33        3       0.628   1.883   0.000  -2.510  -0.000   0.000
   26    4    3   25        3       0.628   1.883   0.000  -2.510  -0.000   0.000
   33    8    7   31        3       0.628   1.883   0.000  -2.510  -0.000   0.000
   39   14   13   37        3       0.628   1.883   0.000  -2.510  -0.000   0.000
   34    8    7   32        3       0.628   1.883   0.000  -2.510  -0.000   0.000
   38   14   13   37        3       0.628   1.883   0.000  -2.510  -0.000   0.000
   25    3    2   22        3       0.628   1.883   0.000  -2.510  -0.000   0.000
   40   14   13   37        3       0.628   1.883   0.000  -2.510  -0.000   0.000
   35    9    8   34        3       0.628   1.883   0.000  -2.510  -0.000   0.000
   34    8    7   31        3       0.628   1.883   0.000  -2.510  -0.000   0.000
   23    2    1   21        3       0.628   1.883   0.000  -2.510  -0.000   0.000
   27    4    3   25        3       0.628   1.883   0.000  -2.510  -0.000   0.000
   35    9    8   33        3       0.628   1.883   0.000  -2.510  -0.000   0.000
   23    2    1   19        3       0.628   1.883   0.000  -2.510  -0.000   0.000
   33    8    7   32        3       0.628   1.883   0.000  -2.510  -0.000   0.000
   26    4    3   24        3       0.628   1.883   0.000  -2.510  -0.000   0.000
   22    2    1   20        3       0.628   1.883   0.000  -2.510  -0.000   0.000
   25    3    2   23        3       0.628   1.883   0.000  -2.510  -0.000   0.000
   24    3    2   22        3       0.628   1.883   0.000  -2.510  -0.000   0.000
   29    6    5   17        3       0.979   2.937   0.000  -3.916  -0.000   0.000
   26    4    5   17        3       0.979   2.937   0.000  -3.916  -0.000   0.000
   30    6    5   17        3       0.979   2.937   0.000  -3.916  -0.000   0.000
   32    7    5   17        3       0.979   2.937   0.000  -3.916  -0.000   0.000
   28    6    5   17        3       0.979   2.937   0.000  -3.916  -0.000   0.000
   27    4    5   17        3       0.979   2.937   0.000  -3.916  -0.000   0.000
   31    7    5   17        3       0.979   2.937   0.000  -3.916  -0.000   0.000
   33    8    9   10        3       0.946   2.837   0.000  -3.782  -0.000   0.000
   39   14   13   10        3       0.946   2.837   0.000  -3.782  -0.000   0.000
   34    8    9   10        3       0.946   2.837   0.000  -3.782  -0.000   0.000
   38   14   13   10        3       0.946   2.837   0.000  -3.782  -0.000   0.000
   40   14   13   10        3       0.946   2.837   0.000  -3.782  -0.000   0.000
   37   13   15   16        3       0.000   0.000   0.000  -0.000  -0.000   0.000
   43   18   17    5        3       1.590   4.770   0.000  -6.360  -0.000   0.000
   41   18   17    5        3       1.590   4.770   0.000  -6.360  -0.000   0.000
   42   18   17    5        3       1.590   4.770   0.000  -6.360  -0.000   0.000
   37   13   10    9        3       0.732   2.197   0.000  -2.929  -0.000   0.000
   36    9   10   13        3       0.732   2.197   0.000  -2.929  -0.000   0.000
   35    9   10   13        3       0.732   2.197   0.000  -2.929  -0.000   0.000
   37   13   10   12        3       0.732   2.197   0.000  -2.929  -0.000   0.000
   36    9   10   11        3       0.732   2.197   0.000  -2.929  -0.000   0.000
   37   13   10   11        3       0.732   2.197   0.000  -2.929  -0.000   0.000
   35    9   10   12        3       0.732   2.197   0.000  -2.929  -0.000   0.000
   35    9   10   11        3       0.732   2.197   0.000  -2.929  -0.000   0.000
   36    9   10   12        3       0.732   2.197   0.000  -2.929  -0.000   0.000
   16   15   13   14        3       0.000   0.000   0.000  -0.000  -0.000   0.000
   16   15   13   10        3       0.000   0.000   0.000  -0.000  -0.000   0.000
   17    5    7    8        3       2.874   0.582   2.092  -5.548  -0.000   0.000
   17    5    4    3        3       2.874   0.582   2.092  -5.548  -0.000   0.000
   11   10    9    8        3       0.000   0.000   0.000  -0.000  -0.000   0.000
   12   10    9    8        3       0.000   0.000   0.000  -0.000  -0.000   0.000
   10    9    8    7        3       2.784   0.278   0.828  -3.891  -0.000   0.000

[ pairs ]
     1     4    1
     2     5    1
     3     6    1
     3     7    1
     4     8    1
     6     8    1
     5     9    1
     7    10    1
     8    11    1
     8    12    1
     3    17    1
     8    13    1
     4    18    1
     3    19    1
     9    14    1
     3    20    1
     9    15    1
     6    18    1
     3    21    1
    11    14    1
     8    17    1
     7    18    1
     1    24    1
    12    14    1
    11    15    1
    10    16    1
     4    22    1
     1    25    1
    12    15    1
     4    23    1
     2    26    1
     5    24    1
     2    27    1
    14    16    1
     5    25    1
     6    26    1
     4    28    1
     7    26    1
     6    27    1
     4    29    1
     7    27    1
     4    30    1
     7    28    1
     4    31    1
     7    29    1
     4    32    1
     7    30    1
     6    31    1
     6    32    1
     5    33    1
     5    34    1
     9    31    1
    19    22    1
     9    32    1
    20    22    1
    19    23    1
     7    35    1
    21    22    1
    20    23    1
    17    26    1
    10    33    1
     7    36    1
    21    23    1
    17    27    1
    10    34    1
    17    28    1
    22    24    1
    17    29    1
    11    35    1
     9    37    1
     5    41    1
    23    24    1
    22    25    1
    17    30    1
    12    35    1
    11    36    1
     5    42    1
    23    25    1
    17    31    1
    13    35    1
    12    36    1
    11    37    1
    10    38    1
     5    43    1
    17    32    1
    13    36    1
    12    37    1
    10    39    1
    24    26    1
    10    40    1
    25    26    1
    24    27    1
    25    27    1
    16    37    1
    15    38    1
    15    39    1
    15    40    1
    31    33    1
    32    33    1
    31    34    1
    32    34    1
    33    35    1
    34    35    1
    33    36    1
    34    36    1
    37    38    1
    37    39    1
    37    40    1

