LIGPARGEN GENERATED GRO FILE
   43
    1UNK    C00    1   0.100   0.100   0.000
    1UNK    C01    2  -0.053   0.100   0.000
    1UNK    C02    3  -0.100   0.100   0.145
    1UNK    C03    4  -0.251   0.114   0.168
    1UNK    C04    5  -0.301   0.114   0.316
    1UNK    C05    6  -0.255  -0.012   0.390
    1UNK    C06    7  -0.262   0.242   0.394
    1UNK    C07    8  -0.114   0.272   0.416
    1UNK    C08    9  -0.090   0.400   0.493
    1UNK    S09   10  -0.148   0.542   0.399
    1UNK    O0A   11  -0.090   0.536   0.266
    1UNK    O0B   12  -0.291   0.556   0.417
    1UNK    C0C   13  -0.069   0.675   0.480
    1UNK    C0D   14  -0.110   0.811   0.424
    1UNK    C0E   15  -0.112   0.665   0.626
    1UNK    N0F   16  -0.148   0.657   0.746
    1UNK    O0G   17  -0.446   0.110   0.302
    1UNK    C0H   18  -0.525   0.117   0.420
    1UNK    H0I   19   0.140   0.100  -0.102
    1UNK    H0J   20   0.139   0.012   0.052
    1UNK    H0K   21   0.139   0.189   0.051
    1UNK    H0M   22  -0.091   0.012  -0.053
    1UNK    H0N   23  -0.089   0.190  -0.052
    1UNK    H0O   24  -0.049   0.185   0.186
    1UNK    H0P   25  -0.062   0.011   0.195
    1UNK    H0Q   26  -0.302   0.032   0.115
    1UNK    H0R   27  -0.287   0.206   0.119
    1UNK    H0S   28  -0.146  -0.021   0.394
    1UNK    H0T   29  -0.296  -0.102   0.343
    1UNK    H0U   30  -0.290  -0.013   0.494
    1UNK    H0V   31  -0.308   0.240   0.494
    1UNK    H0W   32  -0.311   0.326   0.343
    1UNK    H0X   33  -0.063   0.289   0.322
    1UNK    H0Y   34  -0.065   0.189   0.467
    1UNK    H0Z   35   0.018   0.413   0.506
    1UNK    H10   36  -0.138   0.398   0.590
    1UNK    H11   37   0.039   0.662   0.472
    1UNK    H12   38  -0.219   0.824   0.426
    1UNK    H13   39  -0.078   0.821   0.319
    1UNK    H14   40  -0.066   0.892   0.481
    1UNK    H15   41  -0.630   0.108   0.391
    1UNK    H16   42  -0.514   0.214   0.470
    1UNK    H17   43  -0.503   0.035   0.489
   1.00000   1.00000   1.00000

