LIGPARGEN GENERATED GRO FILE
   45
    1UNK    C00    1   0.100   0.100   0.000
    1UNK    C01    2  -0.053   0.100   0.000
    1UNK    C02    3  -0.113   0.100   0.143
    1UNK    C03    4  -0.071   0.228   0.218
    1UNK    C04    5  -0.268   0.076   0.141
    1UNK    O05    6  -0.305  -0.047   0.069
    1UNK    C06    7  -0.262  -0.168   0.114
    1UNK    O07    8  -0.174  -0.186   0.198
    1UNK    C08    9  -0.347  -0.280   0.061
    1UNK    C09   10  -0.354  -0.290  -0.091
    1UNK    C0A   11  -0.220  -0.315  -0.161
    1UNK    C0B   12  -0.154  -0.446  -0.117
    1UNK    C0C   13  -0.241  -0.317  -0.313
    1UNK    C0D   14  -0.335   0.070   0.279
    1UNK    C0E   15  -0.481   0.104   0.251
    1UNK    C0F   16  -0.474   0.212   0.145
    1UNK    C0G   17  -0.345   0.189   0.067
    1UNK    H0H   18   0.138   0.091  -0.102
    1UNK    H0I   19   0.139   0.016   0.058
    1UNK    H0J   20   0.140   0.193   0.041
    1UNK    H0K   21  -0.086   0.011  -0.055
    1UNK    H0M   22  -0.088   0.187  -0.056
    1UNK    H0N   23  -0.066   0.017   0.197
    1UNK    H0O   24  -0.093   0.318   0.160
    1UNK    H0P   25   0.037   0.226   0.238
    1UNK    H0Q   26  -0.119   0.237   0.315
    1UNK    H0R   27  -0.448  -0.266   0.102
    1UNK    H0S   28  -0.310  -0.375   0.103
    1UNK    H0T   29  -0.399  -0.198  -0.130
    1UNK    H0U   30  -0.424  -0.371  -0.116
    1UNK    H0V   31  -0.151  -0.233  -0.138
    1UNK    H0W   32  -0.220  -0.532  -0.134
    1UNK    H0X   33  -0.127  -0.444  -0.011
    1UNK    H0Y   34  -0.062  -0.464  -0.174
    1UNK    H0Z   35  -0.308  -0.398  -0.343
    1UNK    H10   36  -0.146  -0.330  -0.365
    1UNK    H11   37  -0.285  -0.222  -0.347
    1UNK    H12   38  -0.296   0.145   0.349
    1UNK    H13   39  -0.328  -0.028   0.328
    1UNK    H14   40  -0.533   0.138   0.341
    1UNK    H15   41  -0.534   0.016   0.213
    1UNK    H16   42  -0.471   0.311   0.193
    1UNK    H17   43  -0.562   0.211   0.080
    1UNK    H18   44  -0.289   0.283   0.064
    1UNK    H19   45  -0.368   0.161  -0.036
   1.00000   1.00000   1.00000

