
;
; GENERATED BY LigParGen Server
; Jorgensen Lab @ Yale University 
;
[ atomtypes ]
  opls_818  H818     1.0080     0.000    A    2.50000E-01   1.25520E-01
  opls_801  C801    12.0110     0.000    A    3.45000E-01   3.47272E-01
  opls_824  H824     1.0080     0.000    A    2.50000E-01   1.25520E-01
  opls_800  C800    12.0110     0.000    A    3.45000E-01   3.47272E-01
  opls_810  C810    12.0110     0.000    A    3.45000E-01   3.47272E-01
  opls_813  H813     1.0080     0.000    A    2.50000E-01   1.25520E-01
  opls_807  C807    12.0110     0.000    A    3.45000E-01   3.47272E-01
  opls_815  H815     1.0080     0.000    A    2.50000E-01   1.25520E-01
  opls_802  C802    12.0110     0.000    A    3.45000E-01   3.47272E-01
  opls_822  H822     1.0080     0.000    A    2.50000E-01   1.25520E-01
  opls_808  C808    12.0110     0.000    A    3.45000E-01   3.47272E-01
  opls_825  H825     1.0080     0.000    A    2.50000E-01   1.25520E-01
  opls_826  H826     1.0080     0.000    A    2.50000E-01   1.25520E-01
  opls_814  H814     1.0080     0.000    A    2.50000E-01   1.25520E-01
  opls_821  H821     1.0080     0.000    A    2.50000E-01   1.25520E-01
  opls_820  H820     1.0080     0.000    A    2.50000E-01   1.25520E-01
  opls_803  C803    12.0110     0.000    A    3.45000E-01   3.47272E-01
  opls_804  C804    12.0110     0.000    A    3.45000E-01   3.47272E-01
  opls_816  H816     1.0080     0.000    A    2.50000E-01   1.25520E-01
  opls_823  H823     1.0080     0.000    A    2.50000E-01   1.25520E-01
  opls_811  C811    12.0110     0.000    A    3.45000E-01   3.47272E-01
  opls_819  H819     1.0080     0.000    A    2.50000E-01   1.25520E-01
  opls_805  C805    12.0110     0.000    A    3.50000E-01   2.76144E-01
  opls_827  H827     1.0080     0.000    A    2.50000E-01   1.25520E-01
  opls_817  H817     1.0080     0.000    A    2.50000E-01   1.25520E-01
  opls_809  C809    12.0110     0.000    A    3.45000E-01   3.47272E-01
  opls_812  H812     1.0080     0.000    A    2.50000E-01   1.25520E-01
  opls_806  C806    12.0110     0.000    A    3.45000E-01   3.47272E-01
[ moleculetype ]
; Name               nrexcl
UNK                   3
[ atoms ]
;   nr       type  resnr residue  atom   cgnr     charge       mass  
     1   opls_800      1    UNK   C00      1    -0.1262    12.0110 
     2   opls_801      1    UNK   C01      1    -0.4046    12.0110 
     3   opls_802      1    UNK   C02      1    -0.0326    12.0110 
     4   opls_803      1    UNK   C03      1     -0.051    12.0110 
     5   opls_804      1    UNK   C04      1    -0.1335    12.0110 
     6   opls_805      1    UNK   C05      1    -0.1215    12.0110 
     7   opls_806      1    UNK   C06      1    -0.1858    12.0110 
     8   opls_807      1    UNK   C07      1    -0.1865    12.0110 
     9   opls_808      1    UNK   C08      1    -0.1155    12.0110 
    10   opls_809      1    UNK   C09      1    -0.1358    12.0110 
    11   opls_810      1    UNK   C0A      1    -0.2325    12.0110 
    12   opls_811      1    UNK   C0B      1    -0.2414    12.0110 
    13   opls_812      1    UNK   H0C      1     0.1148     1.0080 
    14   opls_813      1    UNK   H0D      1     0.1148     1.0080 
    15   opls_814      1    UNK   H0E      1     0.2007     1.0080 
    16   opls_815      1    UNK   H0F      1     0.0496     1.0080 
    17   opls_816      1    UNK   H0G      1     0.1494     1.0080 
    18   opls_817      1    UNK   H0H      1      0.111     1.0080 
    19   opls_818      1    UNK   H0I      1      0.101     1.0080 
    20   opls_819      1    UNK   H0J      1      0.101     1.0080 
    21   opls_820      1    UNK   H0K      1     0.1423     1.0080 
    22   opls_821      1    UNK   H0M      1     0.1273     1.0080 
    23   opls_822      1    UNK   H0N      1     0.1273     1.0080 
    24   opls_823      1    UNK   H0O      1     0.1284     1.0080 
    25   opls_824      1    UNK   H0P      1     0.1253     1.0080 
    26   opls_825      1    UNK   H0Q      1     0.1253     1.0080 
    27   opls_826      1    UNK   H0R      1     0.1244     1.0080 
    28   opls_827      1    UNK   H0S      1     0.1244     1.0080 
[ bonds ]
    2     1     1      0.1520 217568.000
    3     1     1      0.1520 217568.000
    4     3     1      0.1520 217568.000
    5     2     1      0.1520 217568.000
    6     5     1      0.1510 234304.000
    7     6     1      0.1510 234304.000
    8     7     1      0.1520 217568.000
    9     4     1      0.1520 217568.000
   10     9     1      0.1520 217568.000
   11    10     1      0.1520 217568.000
   12    10     1      0.1520 217568.000
   13     1     1      0.1088 284512.000
   14     1     1      0.1088 284512.000
   15     2     1      0.1088 284512.000
   16     3     1      0.1088 284512.000
   17     4     1      0.1088 284512.000
   18     5     1      0.1088 284512.000
   19     6     1      0.1090 284512.000
   20     6     1      0.1090 284512.000
   21     7     1      0.1088 284512.000
   22     8     1      0.1088 284512.000
   23     8     1      0.1088 284512.000
   24    10     1      0.1088 284512.000
   25    11     1      0.1088 284512.000
   26    11     1      0.1088 284512.000
   27    12     1      0.1088 284512.000
   28    12     1      0.1088 284512.000
    3     2     1      0.1520 217568.000
    5     4     1      0.1520 217568.000
    9     7     1      0.1520 217568.000
    9     8     1      0.1520 217568.000
   12    11     1      0.1520 217568.000

[ angles ]
;  ai    aj    ak funct            c0            c1            c2            c3 
    2     1     3     1     83.000    251.040
    1     3     4     1     83.000    251.040
    1     2     5     1     83.000    251.040
    2     5     6     1    117.200    313.800
    5     6     7     1    112.700    488.273
    6     7     8     1    117.200    313.800
    3     4     9     1     83.000    251.040
    4     9    10     1     83.000    251.040
    9    10    11     1     83.000    251.040
    9    10    12     1     83.000    251.040
    2     1    13     1    117.200    313.800
    2     1    14     1    117.200    313.800
    1     2    15     1    117.200    313.800
    1     3    16     1    117.200    313.800
    3     4    17     1    117.200    313.800
    2     5    18     1    117.200    313.800
    5     6    19     1    110.700    313.800
    5     6    20     1    110.700    313.800
    6     7    21     1    114.300    292.880
    7     8    22     1    117.200    313.800
    7     8    23     1    117.200    313.800
    9    10    24     1    117.200    313.800
   10    11    25     1    117.200    313.800
   10    11    26     1    117.200    313.800
   10    12    27     1    117.200    313.800
   10    12    28     1    117.200    313.800
    1     3     2     1     83.000    251.040
    3     1    14     1    117.200    313.800
   11    12    28     1    117.200    313.800
   11    10    24     1    117.200    313.800
    3     2    15     1    117.200    313.800
   13     1    14     1    114.300    292.880
   12    10    24     1    117.200    313.800
   12    11    25     1    117.200    313.800
   11    10    12     1     83.000    251.040
    9     4    17     1    117.200    313.800
    4     5     6     1    117.200    313.800
    2     3     4     1     83.000    251.040
   22     8    23     1    114.300    292.880
    5     4     9     1     83.000    251.040
   11    12    27     1    117.200    313.800
    8     7     9     1     83.000    251.040
   27    12    28     1    114.300    292.880
   10    12    11     1     83.000    251.040
    3     1    13     1    117.200    313.800
    2     3    16     1    117.200    313.800
    7     8     9     1     83.000    251.040
   10    11    12     1     83.000    251.040
    7     6    19     1    110.700    313.800
    4     9     7     1     83.000    251.040
    4     9     8     1     83.000    251.040
    3     2     5     1     83.000    251.040
    2     5     4     1     83.000    251.040
    9     7    21     1    117.200    313.800
    9     8    22     1    117.200    313.800
   19     6    20     1    107.800    276.144
    9     8    23     1    117.200    313.800
    8     7    21     1    117.200    313.800
    6     7     9     1    117.200    313.800
    7     9     8     1     83.000    251.040
    4     3    16     1    117.200    313.800
   25    11    26     1    114.300    292.880
    7     9    10     1     83.000    251.040
   12    11    26     1    117.200    313.800
    8     9    10     1     83.000    251.040
    1     2     3     1     83.000    251.040
    4     5    18     1    117.200    313.800
    5     2    15     1    117.200    313.800
    7     6    20     1    110.700    313.800
    6     5    18     1    114.300    292.880
    3     4     5     1     83.000    251.040
    5     4    17     1    117.200    313.800

[ dihedrals ]
; IMPROPER DIHEDRAL ANGLES 
;  ai    aj    ak    al funct            c0            c1            c2            c3            c4            c5

[ dihedrals ]
; PROPER DIHEDRAL ANGLES
;  ai    aj    ak    al funct            c0            c1            c2            c3            c4            c5
    6    5    4    3        3       0.000   0.000   0.000  -0.000  -0.000   0.000
    6    5    2    1        3       0.000   0.000   0.000  -0.000  -0.000   0.000
    6    7    9    4        3       0.000   0.000   0.000  -0.000  -0.000   0.000
    6    5    2    3        3       0.000   0.000   0.000  -0.000  -0.000   0.000
    7    6    5    2        3       0.000   0.000   0.000  -0.000  -0.000   0.000
    7    6    5    4        3       0.000   0.000   0.000  -0.000  -0.000   0.000
    9    7    6    5        3       0.000   0.000   0.000  -0.000  -0.000   0.000
    8    7    6    5        3       0.000   0.000   0.000  -0.000  -0.000   0.000
   10    9    7    6        3       0.000   0.000   0.000  -0.000  -0.000   0.000
    9    4    5    6        3       0.000   0.000   0.000  -0.000  -0.000   0.000
    4    5    2    1        3       0.000   0.000   0.000  -0.000  -0.000   0.000
   10    9    7    8        3       0.000   0.000   0.000  -0.000  -0.000   0.000
    7    9    4    5        3       0.000   0.000   0.000  -0.000  -0.000   0.000
   11   10    9    8        3       0.000   0.000   0.000  -0.000  -0.000   0.000
    8    9    4    5        3       0.000   0.000   0.000  -0.000  -0.000   0.000
    4    3    1    2        3       0.000   0.000   0.000  -0.000  -0.000   0.000
    7    9    4    3        3       0.000   0.000   0.000  -0.000  -0.000   0.000
   10    9    4    3        3       0.000   0.000   0.000  -0.000  -0.000   0.000
    9    4    3    1        3       0.000   0.000   0.000  -0.000  -0.000   0.000
   12   10    9    4        3       0.000   0.000   0.000  -0.000  -0.000   0.000
   10    9    4    5        3       0.000   0.000   0.000  -0.000  -0.000   0.000
    4    3    2    1        3       0.000   0.000   0.000  -0.000  -0.000   0.000
    9    4    3    2        3       0.000   0.000   0.000  -0.000  -0.000   0.000
    8    9    4    3        3       0.000   0.000   0.000  -0.000  -0.000   0.000
    5    2    3    1        3       0.000   0.000   0.000  -0.000  -0.000   0.000
   12   10    9    8        3       0.000   0.000   0.000  -0.000  -0.000   0.000
   11   10    9    7        3       0.000   0.000   0.000  -0.000  -0.000   0.000
   12   10    9    7        3       0.000   0.000   0.000  -0.000  -0.000   0.000
    9    4    5    2        3       0.000   0.000   0.000  -0.000  -0.000   0.000
    5    4    3    1        3       0.000   0.000   0.000  -0.000  -0.000   0.000
    5    2    1    3        3       0.000   0.000   0.000  -0.000  -0.000   0.000
   10    9    8    7        3       0.000   0.000   0.000  -0.000  -0.000   0.000
   12   10    9   11        3       0.000   0.000   0.000  -0.000  -0.000   0.000
   11   10    9    4        3       0.000   0.000   0.000  -0.000  -0.000   0.000
   19    6    5    4        3       0.628   1.883   0.000  -2.510  -0.000   0.000
   20    6    7    9        3       0.628   1.883   0.000  -2.510  -0.000   0.000
   19    6    7    8        3       0.628   1.883   0.000  -2.510  -0.000   0.000
   20    6    7    8        3       0.628   1.883   0.000  -2.510  -0.000   0.000
   20    6    5    4        3       0.628   1.883   0.000  -2.510  -0.000   0.000
   19    6    7    9        3       0.628   1.883   0.000  -2.510  -0.000   0.000
   20    6    5    2        3       0.628   1.883   0.000  -2.510  -0.000   0.000
   19    6    5    2        3       0.628   1.883   0.000  -2.510  -0.000   0.000
   19    6    5   18        3       0.628   1.883   0.000  -2.510  -0.000   0.000
   20    6    5   18        3       0.628   1.883   0.000  -2.510  -0.000   0.000
   21    7    6    5        3       0.000   0.000   0.000  -0.000  -0.000   0.000
   18    5    6    7        3       0.000   0.000   0.000  -0.000  -0.000   0.000
   21    7    6   19        3       0.628   1.883   0.000  -2.510  -0.000   0.000
   21    7    6   20        3       0.628   1.883   0.000  -2.510  -0.000   0.000
   15    2    5    6        3       0.000   0.000   0.000  -0.000  -0.000   0.000
   17    4    5    6        3       0.000   0.000   0.000  -0.000  -0.000   0.000
   23    8    7    6        3       0.000   0.000   0.000  -0.000  -0.000   0.000
   22    8    7    6        3       0.000   0.000   0.000  -0.000  -0.000   0.000
   27   12   10    9        3       0.000   0.000   0.000  -0.000  -0.000   0.000
   13    1    3    2        3       0.000   0.000   0.000  -0.000  -0.000   0.000
   28   12   10    9        3       0.000   0.000   0.000  -0.000  -0.000   0.000
   16    3    1    2        3       0.000   0.000   0.000  -0.000  -0.000   0.000
   27   12   11   10        3       0.000   0.000   0.000  -0.000  -0.000   0.000
   13    1    2    5        3       0.000   0.000   0.000  -0.000  -0.000   0.000
   24   10    9    8        3       0.000   0.000   0.000  -0.000  -0.000   0.000
   15    2    1    3        3       0.000   0.000   0.000  -0.000  -0.000   0.000
   16    3    4    5        3       0.000   0.000   0.000  -0.000  -0.000   0.000
   17    4    9    7        3       0.000   0.000   0.000  -0.000  -0.000   0.000
   14    1    2    5        3       0.000   0.000   0.000  -0.000  -0.000   0.000
   17    4    9   10        3       0.000   0.000   0.000  -0.000  -0.000   0.000
   24   10   11   12        3       0.000   0.000   0.000  -0.000  -0.000   0.000
   25   11   12   10        3       0.000   0.000   0.000  -0.000  -0.000   0.000
   18    5    2    1        3       0.000   0.000   0.000  -0.000  -0.000   0.000
   21    7    9    4        3       0.000   0.000   0.000  -0.000  -0.000   0.000
   18    5    4    9        3       0.000   0.000   0.000  -0.000  -0.000   0.000
   14    1    3    4        3       0.000   0.000   0.000  -0.000  -0.000   0.000
   22    8    9    4        3       0.000   0.000   0.000  -0.000  -0.000   0.000
   13    1    2    3        3       0.000   0.000   0.000  -0.000  -0.000   0.000
   17    4    3    1        3       0.000   0.000   0.000  -0.000  -0.000   0.000
   14    1    2    3        3       0.000   0.000   0.000  -0.000  -0.000   0.000
   25   11   10    9        3       0.000   0.000   0.000  -0.000  -0.000   0.000
   18    5    4    3        3       0.000   0.000   0.000  -0.000  -0.000   0.000
   18    5    2    3        3       0.000   0.000   0.000  -0.000  -0.000   0.000
   16    3    2    1        3       0.000   0.000   0.000  -0.000  -0.000   0.000
   22    8    7    9        3       0.000   0.000   0.000  -0.000  -0.000   0.000
   14    1    3    2        3       0.000   0.000   0.000  -0.000  -0.000   0.000
   24   10    9    7        3       0.000   0.000   0.000  -0.000  -0.000   0.000
   23    8    9    7        3       0.000   0.000   0.000  -0.000  -0.000   0.000
   15    2    3    1        3       0.000   0.000   0.000  -0.000  -0.000   0.000
   17    4    3    2        3       0.000   0.000   0.000  -0.000  -0.000   0.000
   21    7    9   10        3       0.000   0.000   0.000  -0.000  -0.000   0.000
   28   12   10   11        3       0.000   0.000   0.000  -0.000  -0.000   0.000
   28   12   11   10        3       0.000   0.000   0.000  -0.000  -0.000   0.000
   16    3    2    5        3       0.000   0.000   0.000  -0.000  -0.000   0.000
   24   10   12   11        3       0.000   0.000   0.000  -0.000  -0.000   0.000
   13    1    3    4        3       0.000   0.000   0.000  -0.000  -0.000   0.000
   17    4    5    2        3       0.000   0.000   0.000  -0.000  -0.000   0.000
   15    2    5    4        3       0.000   0.000   0.000  -0.000  -0.000   0.000
   23    8    9   10        3       0.000   0.000   0.000  -0.000  -0.000   0.000
   21    7    8    9        3       0.000   0.000   0.000  -0.000  -0.000   0.000
   26   11   10    9        3       0.000   0.000   0.000  -0.000  -0.000   0.000
   24   10    9    4        3       0.000   0.000   0.000  -0.000  -0.000   0.000
   21    7    9    8        3       0.000   0.000   0.000  -0.000  -0.000   0.000
   26   11   12   10        3       0.000   0.000   0.000  -0.000  -0.000   0.000
   22    8    9    7        3       0.000   0.000   0.000  -0.000  -0.000   0.000
   22    8    9   10        3       0.000   0.000   0.000  -0.000  -0.000   0.000
   25   11   10   12        3       0.000   0.000   0.000  -0.000  -0.000   0.000
   17    4    9    8        3       0.000   0.000   0.000  -0.000  -0.000   0.000
   23    8    9    4        3       0.000   0.000   0.000  -0.000  -0.000   0.000
   26   11   10   12        3       0.000   0.000   0.000  -0.000  -0.000   0.000
   15    2    3    4        3       0.000   0.000   0.000  -0.000  -0.000   0.000
   16    3    4    9        3       0.000   0.000   0.000  -0.000  -0.000   0.000
   23    8    7    9        3       0.000   0.000   0.000  -0.000  -0.000   0.000
   27   12   10   11        3       0.000   0.000   0.000  -0.000  -0.000   0.000
   16    3    2   15        3       0.000   0.000   0.000  -0.000  -0.000   0.000
   17    4    3   16        3       0.000   0.000   0.000  -0.000  -0.000   0.000
   25   11   10   24        3       0.000   0.000   0.000  -0.000  -0.000   0.000
   23    8    7   21        3       0.000   0.000   0.000  -0.000  -0.000   0.000
   26   11   10   24        3       0.000   0.000   0.000  -0.000  -0.000   0.000
   28   12   11   26        3       0.000   0.000   0.000  -0.000  -0.000   0.000
   18    5    2   15        3       0.000   0.000   0.000  -0.000  -0.000   0.000
   16    3    1   14        3       0.000   0.000   0.000  -0.000  -0.000   0.000
   28   12   10   24        3       0.000   0.000   0.000  -0.000  -0.000   0.000
   27   12   10   24        3       0.000   0.000   0.000  -0.000  -0.000   0.000
   22    8    7   21        3       0.000   0.000   0.000  -0.000  -0.000   0.000
   27   12   11   25        3       0.000   0.000   0.000  -0.000  -0.000   0.000
   27   12   11   26        3       0.000   0.000   0.000  -0.000  -0.000   0.000
   28   12   11   25        3       0.000   0.000   0.000  -0.000  -0.000   0.000
   15    2    1   13        3       0.000   0.000   0.000  -0.000  -0.000   0.000
   18    5    4   17        3       0.000   0.000   0.000  -0.000  -0.000   0.000
   16    3    1   13        3       0.000   0.000   0.000  -0.000  -0.000   0.000
   15    2    1   14        3       0.000   0.000   0.000  -0.000  -0.000   0.000

[ pairs ]
     1     6    1
     3     6    1
     2     7    1
     3     7    1
     1     9    1
     3     8    1
     2     9    1
     5     8    1
     3    10    1
     5    10    1
     4    11    1
     6    10    1
     4    12    1
     4    13    1
     7    11    1
     5    13    1
     4    14    1
     1    17    1
     8    11    1
     7    12    1
     5    14    1
     4    15    1
     2    17    1
     1    18    1
     8    12    1
     6    15    1
     5    16    1
     3    18    1
     2    19    1
     2    20    1
     6    17    1
     4    19    1
     7    17    1
     4    20    1
     9    16    1
     8    17    1
     7    18    1
     4    21    1
     5    21    1
     4    22    1
    10    17    1
     9    18    1
     8    19    1
     4    23    1
    13    15    1
     9    19    1
     8    20    1
     6    22    1
     4    24    1
    14    15    1
    13    16    1
     9    20    1
     6    23    1
    14    16    1
    15    16    1
    10    21    1
     7    24    1
    10    22    1
     8    24    1
    16    17    1
    15    18    1
    10    23    1
     9    25    1
    17    18    1
     9    26    1
     9    27    1
    18    19    1
     9    28    1
    18    20    1
    19    21    1
    20    21    1
    21    22    1
    21    23    1
    24    25    1
    24    26    1
    24    27    1
    25    27    1
    24    28    1
    26    27    1
    25    28    1
    26    28    1

