LIGPARGEN GENERATED GRO FILE
   45
    1UNK    C00    1   0.100   0.100   0.000
    1UNK    C01    2  -0.052   0.100   0.000
    1UNK    C02    3  -0.113   0.100   0.141
    1UNK    C03    4  -0.268   0.094   0.147
    1UNK    C04    5  -0.331   0.228   0.099
    1UNK    O05    6  -0.309   0.266  -0.016
    1UNK    C06    7  -0.423   0.306   0.194
    1UNK    C07    8  -0.350   0.346   0.325
    1UNK    C08    9  -0.231   0.439   0.308
    1UNK    C09   10  -0.484   0.434   0.131
    1UNK    C0A   11  -0.574   0.422   0.006
    1UNK    C0B   12  -0.696   0.332   0.026
    1UNK    C0C   13  -0.621   0.563  -0.034
    1UNK    C0D   14  -0.326  -0.024   0.063
    1UNK    C0E   15  -0.275  -0.161   0.110
    1UNK    C0F   16  -0.477  -0.029   0.067
    1UNK    O0G   17  -0.544   0.003   0.164
    1UNK    H0H   18   0.137   0.095  -0.103
    1UNK    H0I   19   0.140   0.013   0.054
    1UNK    H0J   20   0.140   0.191   0.045
    1UNK    H0K   21  -0.085   0.012  -0.056
    1UNK    H0M   22  -0.086   0.188  -0.056
    1UNK    H0N   23  -0.078   0.189   0.195
    1UNK    H0O   24  -0.072   0.014   0.197
    1UNK    H0P   25  -0.297   0.079   0.252
    1UNK    H0Q   26  -0.506   0.240   0.221
    1UNK    H0R   27  -0.317   0.256   0.379
    1UNK    H0S   28  -0.423   0.395   0.392
    1UNK    H0T   29  -0.150   0.390   0.253
    1UNK    H0U   30  -0.192   0.468   0.406
    1UNK    H0V   31  -0.257   0.531   0.255
    1UNK    H0W   32  -0.403   0.502   0.103
    1UNK    H0X   33  -0.542   0.485   0.209
    1UNK    H0Y   34  -0.516   0.383  -0.078
    1UNK    H0Z   35  -0.745   0.351   0.122
    1UNK    H10   36  -0.666   0.227   0.022
    1UNK    H11   37  -0.770   0.348  -0.054
    1UNK    H12   38  -0.685   0.607   0.044
    1UNK    H13   39  -0.678   0.561  -0.127
    1UNK    H14   40  -0.535   0.630  -0.049
    1UNK    H15   41  -0.300  -0.010  -0.042
    1UNK    H16   42  -0.298  -0.177   0.216
    1UNK    H17   43  -0.167  -0.171   0.097
    1UNK    H18   44  -0.324  -0.241   0.054
    1UNK    H19   45  -0.525  -0.071  -0.023
   1.00000   1.00000   1.00000

