LIGPARGEN GENERATED GRO FILE
   28
    1UNK    C00    1   0.100   0.100   0.000
    1UNK    C01    2  -0.048   0.100   0.000
    1UNK    C02    3   0.044   0.100  -0.136
    1UNK    C03    4  -0.091   0.128  -0.196
    1UNK    C04    5  -0.139   0.024  -0.091
    1UNK    C05    6  -0.289   0.032  -0.118
    1UNK    C06    7  -0.293   0.022  -0.271
    1UNK    C07    8  -0.303   0.146  -0.354
    1UNK    C08    9  -0.163   0.087  -0.325
    1UNK    C09   10  -0.084   0.041  -0.449
    1UNK    C0A   11   0.062   0.001  -0.451
    1UNK    C0B   12  -0.044  -0.102  -0.472
    1UNK    H0C   13   0.152   0.010   0.031
    1UNK    H0D   14   0.149   0.190   0.036
    1UNK    H0E   15  -0.066   0.041   0.090
    1UNK    H0F   16   0.100   0.179  -0.186
    1UNK    H0G   17  -0.119   0.234  -0.177
    1UNK    H0H   18  -0.106  -0.081  -0.106
    1UNK    H0I   19  -0.332   0.127  -0.083
    1UNK    H0J   20  -0.344  -0.051  -0.071
    1UNK    H0K   21  -0.321  -0.075  -0.309
    1UNK    H0M   22  -0.330   0.239  -0.307
    1UNK    H0N   23  -0.344   0.134  -0.454
    1UNK    H0O   24  -0.114   0.096  -0.539
    1UNK    H0P   25   0.118  -0.005  -0.359
    1UNK    H0Q   26   0.121   0.032  -0.536
    1UNK    H0R   27  -0.062  -0.174  -0.393
    1UNK    H0S   28  -0.057  -0.143  -0.572
   1.00000   1.00000   1.00000

