LIGPARGEN GENERATED GRO FILE
   32
    1UNK    C00    1   0.100   0.100   0.000
    1UNK    C01    2  -0.051   0.100   0.000
    1UNK    O02    3  -0.113   0.100   0.106
    1UNK    C03    4  -0.121   0.109  -0.136
    1UNK    C04    5  -0.083  -0.009  -0.221
    1UNK    O05    6   0.014  -0.007  -0.297
    1UNK    O06    7  -0.151  -0.124  -0.200
    1UNK    C07    8  -0.292  -0.121  -0.171
    1UNK    C08    9  -0.333  -0.007  -0.080
    1UNK    C09   10  -0.275   0.127  -0.128
    1UNK    C0A   11  -0.343   0.175  -0.262
    1UNK    C0B   12  -0.495   0.190  -0.243
    1UNK    S0C   13  -0.276   0.333  -0.324
    1UNK    C0D   14  -0.366   0.368  -0.473
    1UNK    O0E   15  -0.306   0.436  -0.227
    1UNK    O0F   16  -0.139   0.309  -0.366
    1UNK    H0G   17   0.137   0.085   0.102
    1UNK    H0H   18   0.136   0.196  -0.037
    1UNK    H0I   19   0.139   0.019  -0.062
    1UNK    H0J   20  -0.077   0.198  -0.179
    1UNK    H0K   21  -0.318  -0.216  -0.125
    1UNK    H0M   22  -0.345  -0.117  -0.267
    1UNK    H0N   23  -0.297  -0.029   0.021
    1UNK    H0O   24  -0.442  -0.004  -0.071
    1UNK    H0P   25  -0.296   0.202  -0.051
    1UNK    H0Q   26  -0.324   0.103  -0.342
    1UNK    H0R   27  -0.518   0.262  -0.164
    1UNK    H0S   28  -0.543   0.095  -0.218
    1UNK    H0T   29  -0.544   0.225  -0.334
    1UNK    H0U   30  -0.470   0.388  -0.450
    1UNK    H0V   31  -0.356   0.282  -0.540
    1UNK    H0W   32  -0.322   0.456  -0.518
   1.00000   1.00000   1.00000

