LIGPARGEN GENERATED GRO FILE
   38
    1UNK    C00    1   0.100   0.100   0.000
    1UNK    C01    2  -0.052   0.100   0.000
    1UNK    C02    3  -0.120   0.100   0.139
    1UNK    C03    4  -0.116   0.238   0.219
    1UNK    C04    5   0.030   0.276   0.253
    1UNK    C05    6  -0.186   0.353   0.139
    1UNK    C06    7  -0.333   0.332   0.164
    1UNK    C07    8  -0.418   0.392   0.274
    1UNK    C08    9  -0.391   0.510   0.359
    1UNK    C09   10  -0.343   0.264   0.299
    1UNK    C0A   11  -0.202   0.247   0.349
    1UNK    C0B   12  -0.244   0.011   0.139
    1UNK    C0C   13  -0.121  -0.038   0.210
    1UNK    C0D   14  -0.135  -0.069   0.355
    1UNK    H0E   15   0.137   0.044  -0.087
    1UNK    H0F   16   0.142   0.054   0.090
    1UNK    H0G   17   0.139   0.202  -0.011
    1UNK    H0H   18  -0.081   0.008  -0.053
    1UNK    H0I   19  -0.090   0.181  -0.063
    1UNK    H0J   20   0.084   0.308   0.164
    1UNK    H0K   21   0.084   0.191   0.297
    1UNK    H0M   22   0.035   0.360   0.323
    1UNK    H0N   23  -0.162   0.352   0.032
    1UNK    H0O   24  -0.155   0.452   0.177
    1UNK    H0P   25  -0.382   0.284   0.080
    1UNK    H0Q   26  -0.525   0.382   0.259
    1UNK    H0R   27  -0.285   0.528   0.378
    1UNK    H0S   28  -0.441   0.496   0.456
    1UNK    H0T   29  -0.434   0.599   0.313
    1UNK    H0U   30  -0.405   0.177   0.315
    1UNK    H0V   31  -0.190   0.164   0.417
    1UNK    H0W   32  -0.173   0.336   0.406
    1UNK    H0X   33  -0.273  -0.040   0.047
    1UNK    H0Y   34  -0.331   0.032   0.198
    1UNK    H0Z   35  -0.063  -0.116   0.162
    1UNK    H10   36  -0.227  -0.030   0.399
    1UNK    H11   37  -0.049  -0.031   0.411
    1UNK    H12   38  -0.139  -0.177   0.369
   1.00000   1.00000   1.00000

