LIGPARGEN GENERATED GRO FILE
   28
    1UNK    C00    1   0.100   0.100   0.000
    1UNK    C01    2  -0.052   0.100   0.000
    1UNK    C02    3  -0.112   0.100   0.141
    1UNK    C03    4  -0.265   0.100   0.137
    1UNK    C04    5  -0.303   0.058   0.278
    1UNK    C05    6  -0.198  -0.046   0.317
    1UNK    S06    7  -0.151  -0.037   0.490
    1UNK    O07    8  -0.059  -0.144   0.519
    1UNK    O08    9  -0.122   0.101   0.525
    1UNK    O09   10  -0.296  -0.077   0.552
    1UNK    C0A   11  -0.306  -0.083   0.693
    1UNK    C0B   12  -0.079  -0.025   0.223
    1UNK    H0C   13   0.137   0.100  -0.103
    1UNK    H0D   14   0.140   0.011   0.050
    1UNK    H0E   15   0.139   0.189   0.050
    1UNK    H0F   16  -0.088   0.013  -0.056
    1UNK    H0G   17  -0.087   0.189  -0.054
    1UNK    H0H   18  -0.078   0.189   0.195
    1UNK    H0I   19  -0.303   0.027   0.065
    1UNK    H0J   20  -0.306   0.199   0.112
    1UNK    H0K   21  -0.404   0.017   0.282
    1UNK    H0M   22  -0.301   0.146   0.344
    1UNK    H0N   23  -0.237  -0.147   0.302
    1UNK    H0O   24  -0.407  -0.117   0.719
    1UNK    H0P   25  -0.291   0.017   0.736
    1UNK    H0Q   26  -0.234  -0.153   0.735
    1UNK    H0R   27  -0.069  -0.112   0.158
    1UNK    H0S   28   0.017  -0.013   0.276
   1.00000   1.00000   1.00000

