
;
; GENERATED BY LigParGen Server
; Jorgensen Lab @ Yale University 
;
[ atomtypes ]
  opls_818  H818     1.0080     0.000    A    2.50000E-01   1.25520E-01
  opls_806  S806    32.0600     0.000    A    3.55000E-01   1.04600E+00
  opls_824  H824     1.0080     0.000    A    2.50000E-01   1.25520E-01
  opls_809  O809    15.9990     0.000    A    2.90000E-01   5.85760E-01
  opls_808  O808    15.9990     0.000    A    2.96000E-01   7.11280E-01
  opls_807  O807    15.9990     0.000    A    2.96000E-01   7.11280E-01
  opls_813  H813     1.0080     0.000    A    2.50000E-01   1.25520E-01
  opls_802  C802    12.0110     0.000    A    3.50000E-01   2.76144E-01
  opls_815  H815     1.0080     0.000    A    2.50000E-01   1.25520E-01
  opls_801  C801    12.0110     0.000    A    3.50000E-01   2.76144E-01
  opls_822  H822     1.0080     0.000    A    2.50000E-01   1.25520E-01
  opls_803  C803    12.0110     0.000    A    3.50000E-01   2.76144E-01
  opls_825  H825     1.0080     0.000    A    2.50000E-01   1.25520E-01
  opls_814  H814     1.0080     0.000    A    2.50000E-01   1.25520E-01
  opls_810  C810    12.0110     0.000    A    3.50000E-01   2.76144E-01
  opls_820  H820     1.0080     0.000    A    2.50000E-01   1.25520E-01
  opls_821  H821     1.0080     0.000    A    2.50000E-01   1.25520E-01
  opls_816  H816     1.0080     0.000    A    2.50000E-01   1.25520E-01
  opls_800  C800    12.0110     0.000    A    3.50000E-01   2.76144E-01
  opls_805  C805    12.0110     0.000    A    3.50000E-01   2.76144E-01
  opls_811  C811    12.0110     0.000    A    3.50000E-01   2.76144E-01
  opls_823  H823     1.0080     0.000    A    2.50000E-01   1.25520E-01
  opls_826  H826     1.0080     0.000    A    2.50000E-01   1.25520E-01
  opls_819  H819     1.0080     0.000    A    2.50000E-01   1.25520E-01
  opls_804  C804    12.0110     0.000    A    3.50000E-01   2.76144E-01
  opls_827  H827     1.0080     0.000    A    2.50000E-01   1.25520E-01
  opls_817  H817     1.0080     0.000    A    2.50000E-01   1.25520E-01
  opls_812  H812     1.0080     0.000    A    2.50000E-01   1.25520E-01
[ moleculetype ]
; Name               nrexcl
UNK                   3
[ atoms ]
;   nr       type  resnr residue  atom   cgnr     charge       mass  
     1   opls_800      1    UNK   C00      1    -0.2404    12.0110 
     2   opls_801      1    UNK   C01      1    -0.1696    12.0110 
     3   opls_802      1    UNK   C02      1    -0.1201    12.0110 
     4   opls_803      1    UNK   C03      1    -0.1732    12.0110 
     5   opls_804      1    UNK   C04      1    -0.1447    12.0110 
     6   opls_805      1    UNK   C05      1    -0.4184    12.0110 
     7   opls_806      1    UNK   S06      1     1.3729    32.0600 
     8   opls_807      1    UNK   O07      1    -0.5685    15.9990 
     9   opls_808      1    UNK   O08      1    -0.5685    15.9990 
    10   opls_809      1    UNK   O09      1    -0.5557    15.9990 
    11   opls_810      1    UNK   C0A      1     0.0223    12.0110 
    12   opls_811      1    UNK   C0B      1    -0.1358    12.0110 
    13   opls_812      1    UNK   H0C      1     0.0837     1.0080 
    14   opls_813      1    UNK   H0D      1     0.0837     1.0080 
    15   opls_814      1    UNK   H0E      1     0.0837     1.0080 
    16   opls_815      1    UNK   H0F      1      0.091     1.0080 
    17   opls_816      1    UNK   H0G      1      0.091     1.0080 
    18   opls_817      1    UNK   H0H      1     0.1159     1.0080 
    19   opls_818      1    UNK   H0I      1     0.1006     1.0080 
    20   opls_819      1    UNK   H0J      1     0.1006     1.0080 
    21   opls_820      1    UNK   H0K      1     0.1129     1.0080 
    22   opls_821      1    UNK   H0M      1     0.1129     1.0080 
    23   opls_822      1    UNK   H0N      1     0.1711     1.0080 
    24   opls_823      1    UNK   H0O      1     0.1109     1.0080 
    25   opls_824      1    UNK   H0P      1     0.1109     1.0080 
    26   opls_825      1    UNK   H0Q      1     0.1109     1.0080 
    27   opls_826      1    UNK   H0R      1     0.1099     1.0080 
    28   opls_827      1    UNK   H0S      1     0.1099     1.0080 
[ bonds ]
    2     1     1      0.1529 224262.400
    3     2     1      0.1529 224262.400
    4     3     1      0.1529 224262.400
    5     4     1      0.1529 224262.400
    6     5     1      0.1529 224262.400
    7     6     1      0.1770 284512.000
    8     7     1      0.1440 585760.000
    9     7     1      0.1440 585760.000
   10     7     1      0.1660 245994.096
   11    10     1      0.1410 267776.000
   12     3     1      0.1529 224262.400
   13     1     1      0.1090 284512.000
   14     1     1      0.1090 284512.000
   15     1     1      0.1090 284512.000
   16     2     1      0.1090 284512.000
   17     2     1      0.1090 284512.000
   18     3     1      0.1090 284512.000
   19     4     1      0.1090 284512.000
   20     4     1      0.1090 284512.000
   21     5     1      0.1090 284512.000
   22     5     1      0.1090 284512.000
   23     6     1      0.1090 284512.000
   24    11     1      0.1090 284512.000
   25    11     1      0.1090 284512.000
   26    11     1      0.1090 284512.000
   27    12     1      0.1090 284512.000
   28    12     1      0.1090 284512.000
   12     6     1      0.1529 224262.400

[ angles ]
;  ai    aj    ak funct            c0            c1            c2            c3 
    1     2     3     1    112.700    488.273
    2     3     4     1    112.700    488.273
    3     4     5     1    112.700    488.273
    4     5     6     1    112.700    488.273
    5     6     7     1    108.600    418.400
    6     7     8     1    108.900    619.232
    6     7     9     1    108.900    619.232
    6     7    10     1    104.360    658.311
    7    10    11     1    114.540    581.660
    2     3    12     1    112.700    488.273
    2     1    13     1    110.700    313.800
    2     1    14     1    110.700    313.800
    2     1    15     1    110.700    313.800
    1     2    16     1    110.700    313.800
    1     2    17     1    110.700    313.800
    2     3    18     1    110.700    313.800
    3     4    19     1    110.700    313.800
    3     4    20     1    110.700    313.800
    4     5    21     1    110.700    313.800
    4     5    22     1    110.700    313.800
    5     6    23     1    110.700    313.800
   10    11    24     1    109.500    292.880
   10    11    25     1    109.500    292.880
   10    11    26     1    109.500    292.880
    3    12    27     1    110.700    313.800
    3    12    28     1    110.700    313.800
    9     7    10     1    104.360    658.311
    6    12    28     1    110.700    313.800
   12     6    23     1    110.700    313.800
   13     1    14     1    107.800    276.144
   24    11    25     1    107.800    276.144
   21     5    22     1    107.800    276.144
    6     5    22     1    110.700    313.800
    3     2    17     1    110.700    313.800
    3    12     6     1    112.700    488.273
    7     6    23     1    109.500    292.880
    8     7     9     1    119.000    870.272
   19     4    20     1    107.800    276.144
   27    12    28     1    107.800    276.144
    3     2    16     1    110.700    313.800
   12     3    18     1    110.700    313.800
    4     3    18     1    110.700    313.800
   24    11    26     1    107.800    276.144
   16     2    17     1    107.800    276.144
   14     1    15     1    107.800    276.144
    5     6    12     1    112.700    488.273
    5     4    19     1    110.700    313.800
   13     1    15     1    107.800    276.144
    6    12    27     1    110.700    313.800
    6     5    21     1    110.700    313.800
    5     4    20     1    110.700    313.800
    4     3    12     1    112.700    488.273
   25    11    26     1    107.800    276.144
    8     7    10     1    104.360    658.311
    7     6    12     1    108.600    418.400

[ dihedrals ]
; IMPROPER DIHEDRAL ANGLES 
;  ai    aj    ak    al funct            c0            c1            c2            c3            c4            c5

[ dihedrals ]
; PROPER DIHEDRAL ANGLES
;  ai    aj    ak    al funct            c0            c1            c2            c3            c4            c5
    4    3    2    1        3       2.301  -1.464   0.837  -1.674  -0.000   0.000
    5    4    3    2        3       2.301  -1.464   0.837  -1.674  -0.000   0.000
    6    5    4    3        3       2.301  -1.464   0.837  -1.674  -0.000   0.000
    6   12    3    2        3       2.301  -1.464   0.837  -1.674  -0.000   0.000
   12    6    5    4        3       2.301  -1.464   0.837  -1.674  -0.000   0.000
    5    6   12    3        3       2.301  -1.464   0.837  -1.674  -0.000   0.000
   12    3    2    1        3       2.301  -1.464   0.837  -1.674  -0.000   0.000
    6   12    3    4        3       2.301  -1.464   0.837  -1.674  -0.000   0.000
   12    3    4    5        3       2.301  -1.464   0.837  -1.674  -0.000   0.000
   12    6    7   10        3       0.000   0.000   0.000  -0.000  -0.000   0.000
   12    6    7    8        3       0.000   0.000   0.000  -0.000  -0.000   0.000
   12    6    7    9        3       0.000   0.000   0.000  -0.000  -0.000   0.000
   11   10    7    6        3       1.715   2.845   1.046  -5.607  -0.000   0.000
   11   10    7    8        3       0.000   0.000   0.000  -0.000  -0.000   0.000
   11   10    7    9        3       0.000   0.000   0.000  -0.000  -0.000   0.000
   18    3    4    5        3       0.628   1.883   0.000  -2.510  -0.000   0.000
   17    2    3    4        3       0.628   1.883   0.000  -2.510  -0.000   0.000
   23    6   12    3        3       0.628   1.883   0.000  -2.510  -0.000   0.000
   19    4    3    2        3       0.628   1.883   0.000  -2.510  -0.000   0.000
   20    4    5    6        3       0.628   1.883   0.000  -2.510  -0.000   0.000
   27   12    3    2        3       0.628   1.883   0.000  -2.510  -0.000   0.000
   22    5    6   12        3       0.628   1.883   0.000  -2.510  -0.000   0.000
   22    5    4    3        3       0.628   1.883   0.000  -2.510  -0.000   0.000
   20    4    3    2        3       0.628   1.883   0.000  -2.510  -0.000   0.000
   20    4    3   12        3       0.628   1.883   0.000  -2.510  -0.000   0.000
   27   12    6    5        3       0.628   1.883   0.000  -2.510  -0.000   0.000
   16    2    3   12        3       0.628   1.883   0.000  -2.510  -0.000   0.000
   19    4    5    6        3       0.628   1.883   0.000  -2.510  -0.000   0.000
   18    3   12    6        3       0.628   1.883   0.000  -2.510  -0.000   0.000
   28   12    6    5        3       0.628   1.883   0.000  -2.510  -0.000   0.000
   15    1    2    3        3       0.628   1.883   0.000  -2.510  -0.000   0.000
   28   12    3    2        3       0.628   1.883   0.000  -2.510  -0.000   0.000
   17    2    3   12        3       0.628   1.883   0.000  -2.510  -0.000   0.000
   28   12    3    4        3       0.628   1.883   0.000  -2.510  -0.000   0.000
   23    6    5    4        3       0.628   1.883   0.000  -2.510  -0.000   0.000
   14    1    2    3        3       0.628   1.883   0.000  -2.510  -0.000   0.000
   27   12    3    4        3       0.628   1.883   0.000  -2.510  -0.000   0.000
   19    4    3   12        3       0.628   1.883   0.000  -2.510  -0.000   0.000
   13    1    2    3        3       0.628   1.883   0.000  -2.510  -0.000   0.000
   16    2    3    4        3       0.628   1.883   0.000  -2.510  -0.000   0.000
   21    5    6   12        3       0.628   1.883   0.000  -2.510  -0.000   0.000
   21    5    4    3        3       0.628   1.883   0.000  -2.510  -0.000   0.000
   18    3    2    1        3       0.628   1.883   0.000  -2.510  -0.000   0.000
   21    5    4   20        3       0.628   1.883   0.000  -2.510  -0.000   0.000
   18    3    2   17        3       0.628   1.883   0.000  -2.510  -0.000   0.000
   23    6    5   21        3       0.628   1.883   0.000  -2.510  -0.000   0.000
   27   12    6   23        3       0.628   1.883   0.000  -2.510  -0.000   0.000
   17    2    1   15        3       0.628   1.883   0.000  -2.510  -0.000   0.000
   22    5    4   20        3       0.628   1.883   0.000  -2.510  -0.000   0.000
   21    5    4   19        3       0.628   1.883   0.000  -2.510  -0.000   0.000
   27   12    3   18        3       0.628   1.883   0.000  -2.510  -0.000   0.000
   16    2    1   13        3       0.628   1.883   0.000  -2.510  -0.000   0.000
   17    2    1   14        3       0.628   1.883   0.000  -2.510  -0.000   0.000
   17    2    1   13        3       0.628   1.883   0.000  -2.510  -0.000   0.000
   18    3    2   16        3       0.628   1.883   0.000  -2.510  -0.000   0.000
   16    2    1   15        3       0.628   1.883   0.000  -2.510  -0.000   0.000
   22    5    4   19        3       0.628   1.883   0.000  -2.510  -0.000   0.000
   19    4    3   18        3       0.628   1.883   0.000  -2.510  -0.000   0.000
   20    4    3   18        3       0.628   1.883   0.000  -2.510  -0.000   0.000
   16    2    1   14        3       0.628   1.883   0.000  -2.510  -0.000   0.000
   23    6    5   22        3       0.628   1.883   0.000  -2.510  -0.000   0.000
   28   12    6   23        3       0.628   1.883   0.000  -2.510  -0.000   0.000
   28   12    3   18        3       0.628   1.883   0.000  -2.510  -0.000   0.000
   21    5    6    7        3       0.946   2.837   0.000  -3.782  -0.000   0.000
   28   12    6    7        3       0.946   2.837   0.000  -3.782  -0.000   0.000
   22    5    6    7        3       0.946   2.837   0.000  -3.782  -0.000   0.000
   27   12    6    7        3       0.946   2.837   0.000  -3.782  -0.000   0.000
   25   11   10    7        3       1.590   4.770   0.000  -6.360  -0.000   0.000
   26   11   10    7        3       1.590   4.770   0.000  -6.360  -0.000   0.000
   24   11   10    7        3       1.590   4.770   0.000  -6.360  -0.000   0.000
   23    6    7   10        3       0.732   2.197   0.000  -2.929  -0.000   0.000
   23    6    7    9        3       0.732   2.197   0.000  -2.929  -0.000   0.000
   23    6    7    8        3       0.732   2.197   0.000  -2.929  -0.000   0.000
   10    7    6    5        3       0.000   0.000   0.000  -0.000  -0.000   0.000
    9    7    6    5        3       0.000   0.000   0.000  -0.000  -0.000   0.000
    8    7    6    5        3       0.000   0.000   0.000  -0.000  -0.000   0.000
    7    6    5    4        3       2.784   0.278   0.828  -3.891  -0.000   0.000
    7    6   12    3        3       2.784   0.278   0.828  -3.891  -0.000   0.000

[ pairs ]
     1     4    1
     2     5    1
     2     6    1
     3     7    1
     4     7    1
     5     8    1
     1    12    1
     5     9    1
     5    10    1
     3    13    1
     6    11    1
     3    14    1
     3    15    1
     8    11    1
     1    18    1
     9    11    1
     8    12    1
     4    16    1
     9    12    1
     4    17    1
     2    19    1
    10    12    1
     2    20    1
     5    18    1
     6    18    1
     3    21    1
     6    19    1
     3    22    1
     6    20    1
     3    23    1
     4    23    1
    12    16    1
     7    21    1
    13    16    1
    12    17    1
     7    22    1
     2    27    1
    14    16    1
    13    17    1
     2    28    1
    15    16    1
    14    17    1
    12    19    1
     8    23    1
     7    24    1
     4    27    1
    15    17    1
    12    20    1
     9    23    1
     7    25    1
     5    27    1
     4    28    1
    12    21    1
    10    23    1
     7    26    1
     5    28    1
    16    18    1
    12    22    1
     7    27    1
    17    18    1
     7    28    1
    18    19    1
    18    20    1
    19    21    1
    20    21    1
    19    22    1
    20    22    1
    21    23    1
    22    23    1
    18    27    1
    18    28    1
    23    27    1
    23    28    1

