LIGPARGEN GENERATED GRO FILE
   41
    1UNK    C00    1   0.100   0.100   0.000
    1UNK    C01    2  -0.052   0.100   0.000
    1UNK    C02    3  -0.118   0.100   0.141
    1UNK    C03    4  -0.076   0.219   0.230
    1UNK    C04    5  -0.119   0.348   0.162
    1UNK    N05    6  -0.155   0.455   0.106
    1UNK    C06    7  -0.271   0.094   0.118
    1UNK    C07    8  -0.352   0.099   0.248
    1UNK    C08    9  -0.504   0.110   0.224
    1UNK    C09   10  -0.557  -0.012   0.148
    1UNK    C0A   11  -0.579   0.123   0.358
    1UNK    C0B   12  -0.544   0.246   0.445
    1UNK    C0C   13  -0.574   0.377   0.371
    1UNK    C0D   14  -0.622   0.241   0.577
    1UNK    C0E   15  -0.580   0.127   0.667
    1UNK    O0F   16  -0.470   0.072   0.662
    1UNK    H0G   17   0.137   0.079  -0.101
    1UNK    H0H   18   0.140   0.024   0.067
    1UNK    H0I   19   0.140   0.198   0.029
    1UNK    H0J   20  -0.085   0.011  -0.054
    1UNK    H0K   21  -0.087   0.185  -0.059
    1UNK    H0M   22  -0.087   0.008   0.192
    1UNK    H0N   23   0.033   0.221   0.242
    1UNK    H0O   24  -0.119   0.213   0.331
    1UNK    H0P   25  -0.293   0.001   0.065
    1UNK    H0Q   26  -0.303   0.176   0.053
    1UNK    H0R   27  -0.322   0.188   0.304
    1UNK    H0S   28  -0.329   0.012   0.310
    1UNK    H0T   29  -0.524   0.198   0.162
    1UNK    H0U   30  -0.547  -0.104   0.207
    1UNK    H0V   31  -0.506  -0.027   0.053
    1UNK    H0W   32  -0.664   0.001   0.125
    1UNK    H0X   33  -0.561   0.032   0.416
    1UNK    H0Y   34  -0.687   0.124   0.337
    1UNK    H0Z   35  -0.437   0.245   0.470
    1UNK    H10   36  -0.671   0.374   0.322
    1UNK    H11   37  -0.498   0.396   0.294
    1UNK    H12   38  -0.573   0.462   0.439
    1UNK    H13   39  -0.730   0.231   0.557
    1UNK    H14   40  -0.609   0.334   0.635
    1UNK    H15   41  -0.654   0.099   0.744
   1.00000   1.00000   1.00000

