
;
; GENERATED BY LigParGen Server
; Jorgensen Lab @ Yale University 
;
[ atomtypes ]
  opls_818  H818     1.0080     0.000    A    2.50000E-01   1.25520E-01
  opls_802  S802    32.0600     0.000    A    3.55000E-01   1.04600E+00
  opls_824  H824     1.0080     0.000    A    2.50000E-01   1.25520E-01
  opls_805  C805    12.0110     0.000    A    3.50000E-01   2.76144E-01
  opls_828  H828     1.0080     0.000    A    2.50000E-01   1.25520E-01
  opls_813  H813     1.0080     0.000    A    2.50000E-01   1.25520E-01
  opls_806  C806    12.0110     0.000    A    3.50000E-01   2.76144E-01
  opls_800  C800    12.0110     0.000    A    3.50000E-01   2.76144E-01
  opls_801  C801    12.0110     0.000    A    3.50000E-01   2.76144E-01
  opls_822  H822     1.0080     0.000    A    2.50000E-01   1.25520E-01
  opls_807  C807    12.0110     0.000    A    3.50000E-01   2.76144E-01
  opls_825  H825     1.0080     0.000    A    2.50000E-01   1.25520E-01
  opls_814  H814     1.0080     0.000    A    2.50000E-01   1.25520E-01
  opls_803  O803    15.9990     0.000    A    2.96000E-01   7.11280E-01
  opls_821  H821     1.0080     0.000    A    2.50000E-01   1.25520E-01
  opls_827  H827     1.0080     0.000    A    2.50000E-01   1.25520E-01
  opls_820  H820     1.0080     0.000    A    2.50000E-01   1.25520E-01
  opls_816  H816     1.0080     0.000    A    2.50000E-01   1.25520E-01
  opls_804  O804    15.9990     0.000    A    2.96000E-01   7.11280E-01
  opls_811  F811    18.9984     0.000    A    2.90000E-01   2.51040E-01
  opls_823  H823     1.0080     0.000    A    2.50000E-01   1.25520E-01
  opls_826  H826     1.0080     0.000    A    2.50000E-01   1.25520E-01
  opls_819  H819     1.0080     0.000    A    2.50000E-01   1.25520E-01
  opls_810  C810    12.0110     0.000    A    3.50000E-01   2.76144E-01
  opls_815  H815     1.0080     0.000    A    2.50000E-01   1.25520E-01
  opls_809  C809    12.0110     0.000    A    3.50000E-01   2.76144E-01
  opls_808  C808    12.0110     0.000    A    3.50000E-01   2.76144E-01
  opls_817  H817     1.0080     0.000    A    2.50000E-01   1.25520E-01
  opls_812  H812     1.0080     0.000    A    2.50000E-01   1.25520E-01
[ moleculetype ]
; Name               nrexcl
UNK                   3
[ atoms ]
;   nr       type  resnr residue  atom   cgnr     charge       mass  
     1   opls_800      1    UNK   C00      1    -0.2112    12.0110 
     2   opls_801      1    UNK   C01      1    -0.5047    12.0110 
     3   opls_802      1    UNK   S02      1     1.2913    32.0600 
     4   opls_803      1    UNK   O03      1    -0.5701    15.9990 
     5   opls_804      1    UNK   O04      1    -0.5701    15.9990 
     6   opls_805      1    UNK   C05      1    -0.4954    12.0110 
     7   opls_806      1    UNK   C06      1    -0.1417    12.0110 
     8   opls_807      1    UNK   C07      1     -0.224    12.0110 
     9   opls_808      1    UNK   C08      1     0.1323    12.0110 
    10   opls_809      1    UNK   C09      1    -0.2737    12.0110 
    11   opls_810      1    UNK   C0A      1    -0.2735    12.0110 
    12   opls_811      1    UNK   F0B      1    -0.1825    18.9984 
    13   opls_812      1    UNK   H0C      1      0.108     1.0080 
    14   opls_813      1    UNK   H0D      1      0.108     1.0080 
    15   opls_814      1    UNK   H0E      1      0.108     1.0080 
    16   opls_815      1    UNK   H0F      1     0.1561     1.0080 
    17   opls_816      1    UNK   H0G      1     0.1561     1.0080 
    18   opls_817      1    UNK   H0H      1     0.1564     1.0080 
    19   opls_818      1    UNK   H0I      1     0.1564     1.0080 
    20   opls_819      1    UNK   H0J      1     0.1199     1.0080 
    21   opls_820      1    UNK   H0K      1     0.1199     1.0080 
    22   opls_821      1    UNK   H0M      1     0.1175     1.0080 
    23   opls_822      1    UNK   H0N      1     0.1175     1.0080 
    24   opls_823      1    UNK   H0O      1     0.1001     1.0080 
    25   opls_824      1    UNK   H0P      1     0.1001     1.0080 
    26   opls_825      1    UNK   H0Q      1     0.1001     1.0080 
    27   opls_826      1    UNK   H0R      1     0.0997     1.0080 
    28   opls_827      1    UNK   H0S      1     0.0997     1.0080 
    29   opls_828      1    UNK   H0T      1     0.0997     1.0080 
[ bonds ]
    2     1     1      0.1529 224262.400
    3     2     1      0.1770 284512.000
    4     3     1      0.1440 585760.000
    5     3     1      0.1440 585760.000
    6     3     1      0.1770 284512.000
    7     6     1      0.1529 224262.400
    8     7     1      0.1529 224262.400
    9     8     1      0.1529 224262.400
   10     9     1      0.1529 224262.400
   11     9     1      0.1529 224262.400
   12     9     1      0.1360 307105.600
   13     1     1      0.1090 284512.000
   14     1     1      0.1090 284512.000
   15     1     1      0.1090 284512.000
   16     2     1      0.1090 284512.000
   17     2     1      0.1090 284512.000
   18     6     1      0.1090 284512.000
   19     6     1      0.1090 284512.000
   20     7     1      0.1090 284512.000
   21     7     1      0.1090 284512.000
   22     8     1      0.1090 284512.000
   23     8     1      0.1090 284512.000
   24    10     1      0.1090 284512.000
   25    10     1      0.1090 284512.000
   26    10     1      0.1090 284512.000
   27    11     1      0.1090 284512.000
   28    11     1      0.1090 284512.000
   29    11     1      0.1090 284512.000

[ angles ]
;  ai    aj    ak funct            c0            c1            c2            c3 
    1     2     3     1    108.600    418.400
    2     3     4     1    108.900    619.232
    2     3     5     1    108.900    619.232
    2     3     6     1    102.000    518.816
    3     6     7     1    108.600    418.400
    6     7     8     1    112.700    488.273
    7     8     9     1    112.700    488.273
    8     9    10     1    112.700    488.273
    8     9    11     1    112.700    488.273
    8     9    12     1    109.500    418.400
    2     1    13     1    110.700    313.800
    2     1    14     1    110.700    313.800
    2     1    15     1    110.700    313.800
    1     2    16     1    110.700    313.800
    1     2    17     1    110.700    313.800
    3     6    18     1    109.500    292.880
    3     6    19     1    109.500    292.880
    6     7    20     1    110.700    313.800
    6     7    21     1    110.700    313.800
    7     8    22     1    110.700    313.800
    7     8    23     1    110.700    313.800
    9    10    24     1    110.700    313.800
    9    10    25     1    110.700    313.800
    9    10    26     1    110.700    313.800
    9    11    27     1    110.700    313.800
    9    11    28     1    110.700    313.800
    9    11    29     1    110.700    313.800
   13     1    14     1    107.800    276.144
    7     6    18     1    110.700    313.800
   18     6    19     1    107.800    276.144
   24    10    25     1    107.800    276.144
    3     2    17     1    109.500    292.880
    9     8    23     1    110.700    313.800
   28    11    29     1    107.800    276.144
   27    11    28     1    107.800    276.144
    7     6    19     1    110.700    313.800
    4     3     5     1    119.000    870.272
   27    11    29     1    107.800    276.144
   22     8    23     1    107.800    276.144
   20     7    21     1    107.800    276.144
    3     2    16     1    109.500    292.880
   16     2    17     1    107.800    276.144
   14     1    15     1    107.800    276.144
    4     3     6     1    108.900    619.232
    9     8    22     1    110.700    313.800
   24    10    26     1    107.800    276.144
   11     9    12     1    109.500    418.400
   10     9    11     1    112.700    488.273
    8     7    21     1    110.700    313.800
   25    10    26     1    107.800    276.144
    5     3     6     1    108.900    619.232
   13     1    15     1    107.800    276.144
   10     9    12     1    109.500    418.400
    8     7    20     1    110.700    313.800

[ dihedrals ]
; IMPROPER DIHEDRAL ANGLES 
;  ai    aj    ak    al funct            c0            c1            c2            c3            c4            c5

[ dihedrals ]
; PROPER DIHEDRAL ANGLES
;  ai    aj    ak    al funct            c0            c1            c2            c3            c4            c5
   11    9    8    7        3       2.301  -1.464   0.837  -1.674  -0.000   0.000
    9    8    7    6        3       2.301  -1.464   0.837  -1.674  -0.000   0.000
   10    9    8    7        3       2.301  -1.464   0.837  -1.674  -0.000   0.000
    8    7    6    3        3       2.784   0.278   0.828  -3.891  -0.000   0.000
    7    6    3    2        3       0.000   0.000   0.000  -0.000  -0.000   0.000
    7    6    3    5        3       0.000   0.000   0.000  -0.000  -0.000   0.000
    7    6    3    4        3       0.000   0.000   0.000  -0.000  -0.000   0.000
    6    3    2    1        3       0.000   0.000   0.000  -0.000  -0.000   0.000
   12    9    8    7        3      -0.209   1.883   1.674  -3.347  -0.000   0.000
   26   10    9   11        3       0.628   1.883   0.000  -2.510  -0.000   0.000
   22    8    9   11        3       0.628   1.883   0.000  -2.510  -0.000   0.000
   19    6    7    8        3       0.628   1.883   0.000  -2.510  -0.000   0.000
   23    8    9   10        3       0.628   1.883   0.000  -2.510  -0.000   0.000
   21    7    8    9        3       0.628   1.883   0.000  -2.510  -0.000   0.000
   24   10    9   11        3       0.628   1.883   0.000  -2.510  -0.000   0.000
   26   10    9    8        3       0.628   1.883   0.000  -2.510  -0.000   0.000
   29   11    9    8        3       0.628   1.883   0.000  -2.510  -0.000   0.000
   25   10    9   11        3       0.628   1.883   0.000  -2.510  -0.000   0.000
   28   11    9   10        3       0.628   1.883   0.000  -2.510  -0.000   0.000
   20    7    8    9        3       0.628   1.883   0.000  -2.510  -0.000   0.000
   24   10    9    8        3       0.628   1.883   0.000  -2.510  -0.000   0.000
   27   11    9   10        3       0.628   1.883   0.000  -2.510  -0.000   0.000
   23    8    9   11        3       0.628   1.883   0.000  -2.510  -0.000   0.000
   29   11    9   10        3       0.628   1.883   0.000  -2.510  -0.000   0.000
   18    6    7    8        3       0.628   1.883   0.000  -2.510  -0.000   0.000
   22    8    7    6        3       0.628   1.883   0.000  -2.510  -0.000   0.000
   28   11    9    8        3       0.628   1.883   0.000  -2.510  -0.000   0.000
   27   11    9    8        3       0.628   1.883   0.000  -2.510  -0.000   0.000
   23    8    7    6        3       0.628   1.883   0.000  -2.510  -0.000   0.000
   25   10    9    8        3       0.628   1.883   0.000  -2.510  -0.000   0.000
   22    8    9   10        3       0.628   1.883   0.000  -2.510  -0.000   0.000
   27   11    9   12        3       0.837   2.510   0.000  -3.347  -0.000   0.000
   29   11    9   12        3       0.837   2.510   0.000  -3.347  -0.000   0.000
   22    8    9   12        3       0.837   2.510   0.000  -3.347  -0.000   0.000
   24   10    9   12        3       0.837   2.510   0.000  -3.347  -0.000   0.000
   28   11    9   12        3       0.837   2.510   0.000  -3.347  -0.000   0.000
   23    8    9   12        3       0.837   2.510   0.000  -3.347  -0.000   0.000
   25   10    9   12        3       0.837   2.510   0.000  -3.347  -0.000   0.000
   26   10    9   12        3       0.837   2.510   0.000  -3.347  -0.000   0.000
   22    8    7   21        3       0.628   1.883   0.000  -2.510  -0.000   0.000
   20    7    6   19        3       0.628   1.883   0.000  -2.510  -0.000   0.000
   21    7    6   19        3       0.628   1.883   0.000  -2.510  -0.000   0.000
   17    2    1   14        3       0.628   1.883   0.000  -2.510  -0.000   0.000
   17    2    1   13        3       0.628   1.883   0.000  -2.510  -0.000   0.000
   21    7    6   18        3       0.628   1.883   0.000  -2.510  -0.000   0.000
   20    7    6   18        3       0.628   1.883   0.000  -2.510  -0.000   0.000
   16    2    1   14        3       0.628   1.883   0.000  -2.510  -0.000   0.000
   17    2    1   15        3       0.628   1.883   0.000  -2.510  -0.000   0.000
   23    8    7   21        3       0.628   1.883   0.000  -2.510  -0.000   0.000
   16    2    1   13        3       0.628   1.883   0.000  -2.510  -0.000   0.000
   16    2    1   15        3       0.628   1.883   0.000  -2.510  -0.000   0.000
   22    8    7   20        3       0.628   1.883   0.000  -2.510  -0.000   0.000
   23    8    7   20        3       0.628   1.883   0.000  -2.510  -0.000   0.000
   13    1    2    3        3       0.946   2.837   0.000  -3.782  -0.000   0.000
   14    1    2    3        3       0.946   2.837   0.000  -3.782  -0.000   0.000
   20    7    6    3        3       0.946   2.837   0.000  -3.782  -0.000   0.000
   15    1    2    3        3       0.946   2.837   0.000  -3.782  -0.000   0.000
   21    7    6    3        3       0.946   2.837   0.000  -3.782  -0.000   0.000
   18    6    3    2        3       0.732   2.197   0.000  -2.929  -0.000   0.000
   17    2    3    6        3       0.732   2.197   0.000  -2.929  -0.000   0.000
   19    6    3    2        3       0.732   2.197   0.000  -2.929  -0.000   0.000
   16    2    3    6        3       0.732   2.197   0.000  -2.929  -0.000   0.000
   16    2    3    5        3       0.732   2.197   0.000  -2.929  -0.000   0.000
   17    2    3    4        3       0.732   2.197   0.000  -2.929  -0.000   0.000
   18    6    3    4        3       0.732   2.197   0.000  -2.929  -0.000   0.000
   19    6    3    4        3       0.732   2.197   0.000  -2.929  -0.000   0.000
   17    2    3    5        3       0.732   2.197   0.000  -2.929  -0.000   0.000
   18    6    3    5        3       0.732   2.197   0.000  -2.929  -0.000   0.000
   19    6    3    5        3       0.732   2.197   0.000  -2.929  -0.000   0.000
   16    2    3    4        3       0.732   2.197   0.000  -2.929  -0.000   0.000
    5    3    2    1        3       0.000   0.000   0.000  -0.000  -0.000   0.000
    4    3    2    1        3       0.000   0.000   0.000  -0.000  -0.000   0.000

[ pairs ]
     1     4    1
     1     5    1
     1     6    1
     2     7    1
     4     7    1
     3     8    1
     5     7    1
     6     9    1
     3    13    1
     7    10    1
     3    14    1
     7    11    1
     3    15    1
     7    12    1
     4    16    1
     2    18    1
     5    16    1
     4    17    1
     2    19    1
     6    16    1
     5    17    1
     4    18    1
     6    17    1
     5    18    1
     4    19    1
     3    20    1
     5    19    1
     3    21    1
     8    18    1
     8    19    1
     6    22    1
    13    16    1
     9    20    1
     6    23    1
    14    16    1
    13    17    1
     9    21    1
    15    16    1
    14    17    1
    15    17    1
    10    22    1
     8    24    1
    11    22    1
    10    23    1
     8    25    1
    12    22    1
    11    23    1
     8    26    1
    12    23    1
    11    24    1
     8    27    1
    12    24    1
    11    25    1
     8    28    1
    12    25    1
    11    26    1
    10    27    1
     8    29    1
    18    20    1
    12    26    1
    10    28    1
    19    20    1
    18    21    1
    12    27    1
    10    29    1
    19    21    1
    12    28    1
    12    29    1
    20    22    1
    21    22    1
    20    23    1
    21    23    1

