LIGPARGEN GENERATED GRO FILE
   29
    1UNK    C00    1   0.100   0.100   0.000
    1UNK    C01    2  -0.052   0.100   0.000
    1UNK    S02    3  -0.114   0.100   0.167
    1UNK    O03    4  -0.073  -0.024   0.230
    1UNK    O04    5  -0.078   0.228   0.225
    1UNK    C05    6  -0.292   0.095   0.147
    1UNK    C06    7  -0.366   0.079   0.280
    1UNK    C07    8  -0.347   0.199   0.374
    1UNK    C08    9  -0.420   0.186   0.509
    1UNK    C09   10  -0.372   0.067   0.591
    1UNK    C0A   11  -0.404   0.315   0.589
    1UNK    F0B   12  -0.553   0.169   0.483
    1UNK    H0C   13   0.138   0.105  -0.102
    1UNK    H0D   14   0.139   0.009   0.047
    1UNK    H0E   15   0.139   0.186   0.056
    1UNK    H0F   16  -0.091   0.011  -0.051
    1UNK    H0G   17  -0.090   0.190  -0.049
    1UNK    H0H   18  -0.314   0.009   0.083
    1UNK    H0I   19  -0.323   0.187   0.095
    1UNK    H0J   20  -0.332  -0.013   0.328
    1UNK    H0K   21  -0.473   0.067   0.259
    1UNK    H0M   22  -0.383   0.288   0.322
    1UNK    H0N   23  -0.241   0.213   0.396
    1UNK    H0O   24  -0.265   0.073   0.612
    1UNK    H0P   25  -0.392  -0.028   0.540
    1UNK    H0Q   26  -0.426   0.062   0.686
    1UNK    H0R   27  -0.298   0.334   0.613
    1UNK    H0S   28  -0.461   0.311   0.682
    1UNK    H0T   29  -0.441   0.401   0.532
   1.00000   1.00000   1.00000

