LIGPARGEN GENERATED GRO FILE
   36
    1UNK    C00    1   0.100   0.100   0.000
    1UNK    C01    2  -0.052   0.100   0.000
    1UNK    C02    3  -0.109   0.100   0.142
    1UNK    C03    4  -0.262   0.100   0.140
    1UNK    C04    5  -0.319   0.100   0.283
    1UNK    C05    6  -0.474   0.106   0.290
    1UNK    C06    7  -0.537  -0.015   0.217
    1UNK    S07    8  -0.719  -0.007   0.202
    1UNK    C08    9  -0.747  -0.168   0.124
    1UNK    C09   10  -0.526   0.121   0.437
    1UNK    C0A   11  -0.486   0.005   0.528
    1UNK    C0B   12  -0.483   0.254   0.501
    1UNK    H0C   13   0.138   0.100  -0.103
    1UNK    H0D   14   0.139   0.011   0.050
    1UNK    H0E   15   0.139   0.189   0.051
    1UNK    H0F   16  -0.088   0.012  -0.054
    1UNK    H0G   17  -0.088   0.188  -0.054
    1UNK    H0H   18  -0.072   0.188   0.196
    1UNK    H0I   19  -0.073   0.011   0.196
    1UNK    H0J   20  -0.295   0.011   0.086
    1UNK    H0K   21  -0.298   0.188   0.086
    1UNK    H0M   22  -0.277   0.186   0.335
    1UNK    H0N   23  -0.283   0.010   0.334
    1UNK    H0O   24  -0.505   0.196   0.235
    1UNK    H0P   25  -0.509  -0.109   0.266
    1UNK    H0Q   26  -0.500  -0.020   0.114
    1UNK    H0R   27  -0.848  -0.172   0.084
    1UNK    H0S   28  -0.735  -0.248   0.198
    1UNK    H0T   29  -0.677  -0.184   0.041
    1UNK    H0U   30  -0.635   0.124   0.435
    1UNK    H0V   31  -0.377  -0.004   0.538
    1UNK    H0W   32  -0.525  -0.091   0.491
    1UNK    H0X   33  -0.527   0.019   0.629
    1UNK    H0Y   34  -0.374   0.261   0.512
    1UNK    H0Z   35  -0.526   0.264   0.601
    1UNK    H10   36  -0.517   0.338   0.440
   1.00000   1.00000   1.00000

