LIGPARGEN GENERATED GRO FILE
   53
    1UNK    C00    1   0.100   0.100   0.000
    1UNK    C01    2  -0.052   0.100   0.000
    1UNK    C02    3  -0.109   0.100   0.143
    1UNK    C03    4  -0.265   0.100   0.150
    1UNK    C04    5  -0.326  -0.025   0.075
    1UNK    C05    6  -0.280  -0.159   0.132
    1UNK    C06    7  -0.387  -0.258   0.094
    1UNK    C07    8  -0.521  -0.183   0.091
    1UNK    C08    9  -0.589  -0.183   0.230
    1UNK    C09   10  -0.614  -0.267   0.002
    1UNK    C0A   11  -0.483  -0.032   0.056
    1UNK    C0B   12  -0.536   0.034  -0.079
    1UNK    C0C   13  -0.690   0.046  -0.079
    1UNK    C0D   14  -0.485   0.180  -0.093
    1UNK    C0E   15  -0.492  -0.038  -0.208
    1UNK    N0F   16  -0.318   0.129   0.287
    1UNK    C0G   17  -0.280   0.036   0.393
    1UNK    C0H   18  -0.283   0.265   0.331
    1UNK    H0I   19   0.138   0.095  -0.103
    1UNK    H0J   20   0.139   0.013   0.054
    1UNK    H0K   21   0.140   0.191   0.047
    1UNK    H0M   22  -0.085   0.011  -0.055
    1UNK    H0N   23  -0.089   0.188  -0.054
    1UNK    H0O   24  -0.069   0.189   0.192
    1UNK    H0P   25  -0.068   0.014   0.197
    1UNK    H0Q   26  -0.296   0.186   0.091
    1UNK    H0R   27  -0.286  -0.022  -0.026
    1UNK    H0S   28  -0.267  -0.161   0.239
    1UNK    H0T   29  -0.183  -0.189   0.090
    1UNK    H0U   30  -0.389  -0.343   0.163
    1UNK    H0V   31  -0.363  -0.298  -0.006
    1UNK    H0W   32  -0.615  -0.284   0.262
    1UNK    H0X   33  -0.682  -0.125   0.227
    1UNK    H0Y   34  -0.525  -0.139   0.308
    1UNK    H0Z   35  -0.625  -0.367   0.044
    1UNK    H10   36  -0.574  -0.283  -0.098
    1UNK    H11   37  -0.716  -0.227  -0.005
    1UNK    H12   38  -0.526   0.031   0.136
    1UNK    H13   39  -0.725   0.099   0.011
    1UNK    H14   40  -0.741  -0.050  -0.083
    1UNK    H15   41  -0.725   0.103  -0.166
    1UNK    H16   42  -0.511   0.240  -0.005
    1UNK    H17   43  -0.529   0.229  -0.180
    1UNK    H18   44  -0.377   0.183  -0.108
    1UNK    H19   45  -0.534  -0.138  -0.218
    1UNK    H1A   46  -0.383  -0.047  -0.215
    1UNK    H1B   47  -0.525   0.017  -0.296
    1UNK    H1C   48  -0.337  -0.057   0.386
    1UNK    H1D   49  -0.308   0.076   0.492
    1UNK    H1E   50  -0.173   0.014   0.396
    1UNK    H1F   51  -0.311   0.340   0.256
    1UNK    H1G   52  -0.176   0.276   0.355
    1UNK    H1H   53  -0.339   0.291   0.422
   1.00000   1.00000   1.00000

