
;
; GENERATED BY LigParGen Server
; Jorgensen Lab @ Yale University 
;
[ atomtypes ]
  opls_818  H818     1.0080     0.000    A    2.50000E-01   1.25520E-01
  opls_814  C814    12.0110     0.000    A    3.50000E-01   2.76144E-01
  opls_824  H824     1.0080     0.000    A    2.50000E-01   1.25520E-01
  opls_804  C804    12.0110     0.000    A    3.50000E-01   2.76144E-01
  opls_838  H838     1.0080     0.000    A    2.50000E-01   1.25520E-01
  opls_848  H848     1.0080     0.000    A    2.50000E-01   1.25520E-01
  opls_843  H843     1.0080     0.000    A    2.50000E-01   1.25520E-01
  opls_836  H836     1.0080     0.000    A    2.50000E-01   1.25520E-01
  opls_834  H834     1.0080     0.000    A    2.50000E-01   1.25520E-01
  opls_810  C810    12.0110     0.000    A    3.50000E-01   2.76144E-01
  opls_828  H828     1.0080     0.000    A    2.50000E-01   1.25520E-01
  opls_851  H851     1.0080     0.000    A    2.50000E-01   1.25520E-01
  opls_815  N815    14.0070     0.000    A    3.30000E-01   7.11280E-01
  opls_802  C802    12.0110     0.000    A    3.50000E-01   2.76144E-01
  opls_827  H827     1.0080     0.000    A    2.50000E-01   1.25520E-01
  opls_809  C809    12.0110     0.000    A    3.50000E-01   2.76144E-01
  opls_806  C806    12.0110     0.000    A    3.50000E-01   2.76144E-01
  opls_822  H822     1.0080     0.000    A    2.50000E-01   1.25520E-01
  opls_803  C803    12.0110     0.000    A    3.50000E-01   2.76144E-01
  opls_812  C812    12.0110     0.000    A    3.50000E-01   2.76144E-01
  opls_825  H825     1.0080     0.000    A    2.50000E-01   1.25520E-01
  opls_830  H830     1.0080     0.000    A    2.50000E-01   1.25520E-01
  opls_821  H821     1.0080     0.000    A    2.50000E-01   1.25520E-01
  opls_842  H842     1.0080     0.000    A    2.50000E-01   1.25520E-01
  opls_820  H820     1.0080     0.000    A    2.50000E-01   1.25520E-01
  opls_837  H837     1.0080     0.000    A    2.50000E-01   1.25520E-01
  opls_829  H829     1.0080     0.000    A    2.50000E-01   1.25520E-01
  opls_831  H831     1.0080     0.000    A    2.50000E-01   1.25520E-01
  opls_832  H832     1.0080     0.000    A    2.50000E-01   1.25520E-01
  opls_800  C800    12.0110     0.000    A    3.50000E-01   2.76144E-01
  opls_805  C805    12.0110     0.000    A    3.50000E-01   2.76144E-01
  opls_846  H846     1.0080     0.000    A    2.50000E-01   1.25520E-01
  opls_811  C811    12.0110     0.000    A    3.50000E-01   2.76144E-01
  opls_823  H823     1.0080     0.000    A    2.50000E-01   1.25520E-01
  opls_813  C813    12.0110     0.000    A    3.50000E-01   2.76144E-01
  opls_826  H826     1.0080     0.000    A    2.50000E-01   1.25520E-01
  opls_835  H835     1.0080     0.000    A    2.50000E-01   1.25520E-01
  opls_841  H841     1.0080     0.000    A    2.50000E-01   1.25520E-01
  opls_819  H819     1.0080     0.000    A    2.50000E-01   1.25520E-01
  opls_816  C816    12.0110     0.000    A    3.50000E-01   2.76144E-01
  opls_833  H833     1.0080     0.000    A    2.50000E-01   1.25520E-01
  opls_839  H839     1.0080     0.000    A    2.50000E-01   1.25520E-01
  opls_817  C817    12.0110     0.000    A    3.50000E-01   2.76144E-01
  opls_852  H852     1.0080     0.000    A    2.50000E-01   1.25520E-01
  opls_801  C801    12.0110     0.000    A    3.50000E-01   2.76144E-01
  opls_808  C808    12.0110     0.000    A    3.50000E-01   2.76144E-01
  opls_850  H850     1.0080     0.000    A    2.50000E-01   1.25520E-01
  opls_840  H840     1.0080     0.000    A    2.50000E-01   1.25520E-01
  opls_849  H849     1.0080     0.000    A    2.50000E-01   1.25520E-01
  opls_847  H847     1.0080     0.000    A    2.50000E-01   1.25520E-01
  opls_844  H844     1.0080     0.000    A    2.50000E-01   1.25520E-01
  opls_845  H845     1.0080     0.000    A    2.50000E-01   1.25520E-01
  opls_807  C807    12.0110     0.000    A    3.50000E-01   2.76144E-01
[ moleculetype ]
; Name               nrexcl
UNK                   3
[ atoms ]
;   nr       type  resnr residue  atom   cgnr     charge       mass  
     1   opls_800      1    UNK   C00      1    -0.2402    12.0110 
     2   opls_801      1    UNK   C01      1    -0.1759    12.0110 
     3   opls_802      1    UNK   C02      1      -0.21    12.0110 
     4   opls_803      1    UNK   C03      1     0.0936    12.0110 
     5   opls_804      1    UNK   C04      1    -0.0972    12.0110 
     6   opls_805      1    UNK   C05      1    -0.1825    12.0110 
     7   opls_806      1    UNK   C06      1    -0.1785    12.0110 
     8   opls_807      1    UNK   C07      1    -0.0382    12.0110 
     9   opls_808      1    UNK   C08      1     -0.231    12.0110 
    10   opls_809      1    UNK   C09      1    -0.2241    12.0110 
    11   opls_810      1    UNK   C0A      1    -0.0757    12.0110 
    12   opls_811      1    UNK   C0B      1    -0.0334    12.0110 
    13   opls_812      1    UNK   C0C      1    -0.2316    12.0110 
    14   opls_813      1    UNK   C0D      1    -0.2368    12.0110 
    15   opls_814      1    UNK   C0E      1    -0.2297    12.0110 
    16   opls_815      1    UNK   N0F      1    -0.5867    14.0070 
    17   opls_816      1    UNK   C0G      1    -0.0461    12.0110 
    18   opls_817      1    UNK   C0H      1     -0.047    12.0110 
    19   opls_818      1    UNK   H0I      1     0.0813     1.0080 
    20   opls_819      1    UNK   H0J      1     0.0813     1.0080 
    21   opls_820      1    UNK   H0K      1     0.0813     1.0080 
    22   opls_821      1    UNK   H0M      1       0.09     1.0080 
    23   opls_822      1    UNK   H0N      1       0.09     1.0080 
    24   opls_823      1    UNK   H0O      1     0.0915     1.0080 
    25   opls_824      1    UNK   H0P      1     0.0915     1.0080 
    26   opls_825      1    UNK   H0Q      1     0.1033     1.0080 
    27   opls_826      1    UNK   H0R      1     0.0981     1.0080 
    28   opls_827      1    UNK   H0S      1     0.0896     1.0080 
    29   opls_828      1    UNK   H0T      1     0.0896     1.0080 
    30   opls_829      1    UNK   H0U      1     0.0899     1.0080 
    31   opls_830      1    UNK   H0V      1     0.0899     1.0080 
    32   opls_831      1    UNK   H0W      1     0.0815     1.0080 
    33   opls_832      1    UNK   H0X      2     0.0815     1.0080 
    34   opls_833      1    UNK   H0Y      2     0.0815     1.0080 
    35   opls_834      1    UNK   H0Z      2     0.0796     1.0080 
    36   opls_835      1    UNK   H10      2     0.0796     1.0080 
    37   opls_836      1    UNK   H11      2     0.0796     1.0080 
    38   opls_837      1    UNK   H12      2     0.1176     1.0080 
    39   opls_838      1    UNK   H13      2     0.0808     1.0080 
    40   opls_839      1    UNK   H14      2     0.0808     1.0080 
    41   opls_840      1    UNK   H15      2     0.0808     1.0080 
    42   opls_841      1    UNK   H16      2     0.0807     1.0080 
    43   opls_842      1    UNK   H17      2     0.0807     1.0080 
    44   opls_843      1    UNK   H18      2     0.0807     1.0080 
    45   opls_844      1    UNK   H19      2     0.0792     1.0080 
    46   opls_845      1    UNK   H1A      2     0.0792     1.0080 
    47   opls_846      1    UNK   H1B      2     0.0792     1.0080 
    48   opls_847      1    UNK   H1C      2     0.0805     1.0080 
    49   opls_848      1    UNK   H1D      2     0.0805     1.0080 
    50   opls_849      1    UNK   H1E      2     0.0805     1.0080 
    51   opls_850      1    UNK   H1F      2     0.0798     1.0080 
    52   opls_851      1    UNK   H1G      2     0.0798     1.0080 
    53   opls_852      1    UNK   H1H      2     0.0798     1.0080 
[ bonds ]
    2     1     1      0.1529 224262.400
    3     2     1      0.1529 224262.400
    4     3     1      0.1529 224262.400
    5     4     1      0.1529 224262.400
    6     5     1      0.1529 224262.400
    7     6     1      0.1529 224262.400
    8     7     1      0.1529 224262.400
    9     8     1      0.1529 224262.400
   10     8     1      0.1529 224262.400
   11     5     1      0.1529 224262.400
   12    11     1      0.1529 224262.400
   13    12     1      0.1529 224262.400
   14    12     1      0.1529 224262.400
   15    12     1      0.1529 224262.400
   16     4     1      0.1448 319657.600
   17    16     1      0.1448 319657.600
   18    16     1      0.1448 319657.600
   19     1     1      0.1090 284512.000
   20     1     1      0.1090 284512.000
   21     1     1      0.1090 284512.000
   22     2     1      0.1090 284512.000
   23     2     1      0.1090 284512.000
   24     3     1      0.1090 284512.000
   25     3     1      0.1090 284512.000
   26     4     1      0.1090 284512.000
   27     5     1      0.1090 284512.000
   28     6     1      0.1090 284512.000
   29     6     1      0.1090 284512.000
   30     7     1      0.1090 284512.000
   31     7     1      0.1090 284512.000
   32     9     1      0.1090 284512.000
   33     9     1      0.1090 284512.000
   34     9     1      0.1090 284512.000
   35    10     1      0.1090 284512.000
   36    10     1      0.1090 284512.000
   37    10     1      0.1090 284512.000
   38    11     1      0.1090 284512.000
   39    13     1      0.1090 284512.000
   40    13     1      0.1090 284512.000
   41    13     1      0.1090 284512.000
   42    14     1      0.1090 284512.000
   43    14     1      0.1090 284512.000
   44    14     1      0.1090 284512.000
   45    15     1      0.1090 284512.000
   46    15     1      0.1090 284512.000
   47    15     1      0.1090 284512.000
   48    17     1      0.1090 284512.000
   49    17     1      0.1090 284512.000
   50    17     1      0.1090 284512.000
   51    18     1      0.1090 284512.000
   52    18     1      0.1090 284512.000
   53    18     1      0.1090 284512.000
   11     8     1      0.1529 224262.400

[ angles ]
;  ai    aj    ak funct            c0            c1            c2            c3 
    1     2     3     1    112.700    488.273
    2     3     4     1    112.700    488.273
    3     4     5     1    112.700    488.273
    4     5     6     1    112.700    488.273
    5     6     7     1    112.700    488.273
    6     7     8     1    112.700    488.273
    7     8     9     1    112.700    488.273
    7     8    10     1    112.700    488.273
    4     5    11     1    112.700    488.273
    5    11    12     1    112.700    488.273
   11    12    13     1    112.700    488.273
   11    12    14     1    112.700    488.273
   11    12    15     1    112.700    488.273
    3     4    16     1    109.470    470.282
    4    16    17     1    107.200    433.462
    4    16    18     1    107.200    433.462
    2     1    19     1    110.700    313.800
    2     1    20     1    110.700    313.800
    2     1    21     1    110.700    313.800
    1     2    22     1    110.700    313.800
    1     2    23     1    110.700    313.800
    2     3    24     1    110.700    313.800
    2     3    25     1    110.700    313.800
    3     4    26     1    110.700    313.800
    4     5    27     1    110.700    313.800
    5     6    28     1    110.700    313.800
    5     6    29     1    110.700    313.800
    6     7    30     1    110.700    313.800
    6     7    31     1    110.700    313.800
    8     9    32     1    110.700    313.800
    8     9    33     1    110.700    313.800
    8     9    34     1    110.700    313.800
    8    10    35     1    110.700    313.800
    8    10    36     1    110.700    313.800
    8    10    37     1    110.700    313.800
    5    11    38     1    110.700    313.800
   12    13    39     1    110.700    313.800
   12    13    40     1    110.700    313.800
   12    13    41     1    110.700    313.800
   12    14    42     1    110.700    313.800
   12    14    43     1    110.700    313.800
   12    14    44     1    110.700    313.800
   12    15    45     1    110.700    313.800
   12    15    46     1    110.700    313.800
   12    15    47     1    110.700    313.800
   16    17    48     1    109.500    292.880
   16    17    49     1    109.500    292.880
   16    17    50     1    109.500    292.880
   16    18    51     1    109.500    292.880
   16    18    52     1    109.500    292.880
   16    18    53     1    109.500    292.880
   11     5    27     1    110.700    313.800
   13    12    14     1    112.700    488.273
   51    18    53     1    107.800    276.144
   43    14    44     1    107.800    276.144
    5     4    16     1    109.470    470.282
   19     1    21     1    107.800    276.144
    4     3    24     1    110.700    313.800
   35    10    36     1    107.800    276.144
   12    11    38     1    110.700    313.800
   51    18    52     1    107.800    276.144
   20     1    21     1    107.800    276.144
    8     7    30     1    110.700    313.800
   48    17    49     1    107.800    276.144
   10     8    11     1    112.700    488.273
   45    15    46     1    107.800    276.144
   22     2    23     1    107.800    276.144
   24     3    25     1    107.800    276.144
    5     4    26     1    110.700    313.800
    6     5    11     1    112.700    488.273
   48    17    50     1    107.800    276.144
   42    14    44     1    107.800    276.144
   45    15    47     1    107.800    276.144
   40    13    41     1    107.800    276.144
    8     7    31     1    110.700    313.800
    7     8    11     1    112.700    488.273
    9     8    11     1    112.700    488.273
   32     9    33     1    107.800    276.144
   46    15    47     1    107.800    276.144
    9     8    10     1    112.700    488.273
   49    17    50     1    107.800    276.144
   39    13    40     1    107.800    276.144
   28     6    29     1    107.800    276.144
    8    11    12     1    112.700    488.273
   17    16    18     1    107.200    433.462
    7     6    28     1    110.700    313.800
   42    14    43     1    107.800    276.144
   14    12    15     1    112.700    488.273
   35    10    37     1    107.800    276.144
    6     5    27     1    110.700    313.800
   39    13    41     1    107.800    276.144
    4     3    25     1    110.700    313.800
    7     6    29     1    110.700    313.800
   32     9    34     1    107.800    276.144
   16     4    26     1    109.500    292.880
    8    11    38     1    110.700    313.800
   52    18    53     1    107.800    276.144
   33     9    34     1    107.800    276.144
    3     2    22     1    110.700    313.800
    3     2    23     1    110.700    313.800
   13    12    15     1    112.700    488.273
   30     7    31     1    107.800    276.144
   19     1    20     1    107.800    276.144
   36    10    37     1    107.800    276.144
    5    11     8     1    112.700    488.273

[ dihedrals ]
; IMPROPER DIHEDRAL ANGLES 
;  ai    aj    ak    al funct            c0            c1            c2            c3            c4            c5

[ dihedrals ]
; PROPER DIHEDRAL ANGLES
;  ai    aj    ak    al funct            c0            c1            c2            c3            c4            c5
    4    3    2    1        3       2.301  -1.464   0.837  -1.674  -0.000   0.000
    8   11    5    4        3       2.301  -1.464   0.837  -1.674  -0.000   0.000
   11    5    4    3        3       2.301  -1.464   0.837  -1.674  -0.000   0.000
   12   11    8    9        3       2.301  -1.464   0.837  -1.674  -0.000   0.000
   15   12   11    5        3       2.301  -1.464   0.837  -1.674  -0.000   0.000
   10    8    7    6        3       2.301  -1.464   0.837  -1.674  -0.000   0.000
   12   11    5    4        3       2.301  -1.464   0.837  -1.674  -0.000   0.000
    9    8   11    5        3       2.301  -1.464   0.837  -1.674  -0.000   0.000
   14   12   11    8        3       2.301  -1.464   0.837  -1.674  -0.000   0.000
   12   11    5    6        3       2.301  -1.464   0.837  -1.674  -0.000   0.000
   11    8    7    6        3       2.301  -1.464   0.837  -1.674  -0.000   0.000
   15   12   11    8        3       2.301  -1.464   0.837  -1.674  -0.000   0.000
   10    8   11    5        3       2.301  -1.464   0.837  -1.674  -0.000   0.000
   13   12   11    8        3       2.301  -1.464   0.837  -1.674  -0.000   0.000
   12   11    8   10        3       2.301  -1.464   0.837  -1.674  -0.000   0.000
    7    8   11    5        3       2.301  -1.464   0.837  -1.674  -0.000   0.000
   12   11    8    7        3       2.301  -1.464   0.837  -1.674  -0.000   0.000
   11    5    6    7        3       2.301  -1.464   0.837  -1.674  -0.000   0.000
   14   12   11    5        3       2.301  -1.464   0.837  -1.674  -0.000   0.000
    5    4    3    2        3       2.301  -1.464   0.837  -1.674  -0.000   0.000
    6    5    4    3        3       2.301  -1.464   0.837  -1.674  -0.000   0.000
    7    6    5    4        3       2.301  -1.464   0.837  -1.674  -0.000   0.000
    8    7    6    5        3       2.301  -1.464   0.837  -1.674  -0.000   0.000
    9    8    7    6        3       2.301  -1.464   0.837  -1.674  -0.000   0.000
    8   11    5    6        3       2.301  -1.464   0.837  -1.674  -0.000   0.000
   13   12   11    5        3       2.301  -1.464   0.837  -1.674  -0.000   0.000
   17   16    4    5        3       1.789   3.492   0.536  -5.816  -0.000   0.000
   18   16    4    5        3       1.789   3.492   0.536  -5.816  -0.000   0.000
   17   16    4    3        3       1.789   3.492   0.536  -5.816  -0.000   0.000
   18   16    4    3        3       1.789   3.492   0.536  -5.816  -0.000   0.000
   41   13   12   15        3       0.628   1.883   0.000  -2.510  -0.000   0.000
   43   14   12   11        3       0.628   1.883   0.000  -2.510  -0.000   0.000
   24    3    4    5        3       0.628   1.883   0.000  -2.510  -0.000   0.000
   36   10    8    9        3       0.628   1.883   0.000  -2.510  -0.000   0.000
   30    7    8    9        3       0.628   1.883   0.000  -2.510  -0.000   0.000
   35   10    8    9        3       0.628   1.883   0.000  -2.510  -0.000   0.000
   27    5    6    7        3       0.628   1.883   0.000  -2.510  -0.000   0.000
   43   14   12   13        3       0.628   1.883   0.000  -2.510  -0.000   0.000
   38   11   12   13        3       0.628   1.883   0.000  -2.510  -0.000   0.000
   21    1    2    3        3       0.628   1.883   0.000  -2.510  -0.000   0.000
   32    9    8   10        3       0.628   1.883   0.000  -2.510  -0.000   0.000
   38   11   12   14        3       0.628   1.883   0.000  -2.510  -0.000   0.000
   41   13   12   11        3       0.628   1.883   0.000  -2.510  -0.000   0.000
   28    6    5   11        3       0.628   1.883   0.000  -2.510  -0.000   0.000
   26    4    3    2        3       0.628   1.883   0.000  -2.510  -0.000   0.000
   38   11    8    7        3       0.628   1.883   0.000  -2.510  -0.000   0.000
   39   13   12   14        3       0.628   1.883   0.000  -2.510  -0.000   0.000
   27    5   11    8        3       0.628   1.883   0.000  -2.510  -0.000   0.000
   33    9    8   11        3       0.628   1.883   0.000  -2.510  -0.000   0.000
   29    6    7    8        3       0.628   1.883   0.000  -2.510  -0.000   0.000
   45   15   12   13        3       0.628   1.883   0.000  -2.510  -0.000   0.000
   46   15   12   11        3       0.628   1.883   0.000  -2.510  -0.000   0.000
   32    9    8   11        3       0.628   1.883   0.000  -2.510  -0.000   0.000
   33    9    8   10        3       0.628   1.883   0.000  -2.510  -0.000   0.000
   27    5   11   12        3       0.628   1.883   0.000  -2.510  -0.000   0.000
   40   13   12   15        3       0.628   1.883   0.000  -2.510  -0.000   0.000
   41   13   12   14        3       0.628   1.883   0.000  -2.510  -0.000   0.000
   25    3    2    1        3       0.628   1.883   0.000  -2.510  -0.000   0.000
   27    5    4    3        3       0.628   1.883   0.000  -2.510  -0.000   0.000
   37   10    8    9        3       0.628   1.883   0.000  -2.510  -0.000   0.000
   35   10    8   11        3       0.628   1.883   0.000  -2.510  -0.000   0.000
   26    4    5    6        3       0.628   1.883   0.000  -2.510  -0.000   0.000
   40   13   12   11        3       0.628   1.883   0.000  -2.510  -0.000   0.000
   38   11    8   10        3       0.628   1.883   0.000  -2.510  -0.000   0.000
   47   15   12   13        3       0.628   1.883   0.000  -2.510  -0.000   0.000
   29    6    5   11        3       0.628   1.883   0.000  -2.510  -0.000   0.000
   20    1    2    3        3       0.628   1.883   0.000  -2.510  -0.000   0.000
   44   14   12   15        3       0.628   1.883   0.000  -2.510  -0.000   0.000
   36   10    8    7        3       0.628   1.883   0.000  -2.510  -0.000   0.000
   31    7    8   11        3       0.628   1.883   0.000  -2.510  -0.000   0.000
   24    3    2    1        3       0.628   1.883   0.000  -2.510  -0.000   0.000
   37   10    8    7        3       0.628   1.883   0.000  -2.510  -0.000   0.000
   39   13   12   15        3       0.628   1.883   0.000  -2.510  -0.000   0.000
   40   13   12   14        3       0.628   1.883   0.000  -2.510  -0.000   0.000
   22    2    3    4        3       0.628   1.883   0.000  -2.510  -0.000   0.000
   31    7    8   10        3       0.628   1.883   0.000  -2.510  -0.000   0.000
   30    7    8   11        3       0.628   1.883   0.000  -2.510  -0.000   0.000
   37   10    8   11        3       0.628   1.883   0.000  -2.510  -0.000   0.000
   38   11    5    6        3       0.628   1.883   0.000  -2.510  -0.000   0.000
   34    9    8    7        3       0.628   1.883   0.000  -2.510  -0.000   0.000
   26    4    5   11        3       0.628   1.883   0.000  -2.510  -0.000   0.000
   46   15   12   14        3       0.628   1.883   0.000  -2.510  -0.000   0.000
   47   15   12   11        3       0.628   1.883   0.000  -2.510  -0.000   0.000
   44   14   12   13        3       0.628   1.883   0.000  -2.510  -0.000   0.000
   38   11    8    9        3       0.628   1.883   0.000  -2.510  -0.000   0.000
   30    7    8   10        3       0.628   1.883   0.000  -2.510  -0.000   0.000
   25    3    4    5        3       0.628   1.883   0.000  -2.510  -0.000   0.000
   43   14   12   15        3       0.628   1.883   0.000  -2.510  -0.000   0.000
   29    6    5    4        3       0.628   1.883   0.000  -2.510  -0.000   0.000
   28    6    7    8        3       0.628   1.883   0.000  -2.510  -0.000   0.000
   31    7    8    9        3       0.628   1.883   0.000  -2.510  -0.000   0.000
   45   15   12   14        3       0.628   1.883   0.000  -2.510  -0.000   0.000
   31    7    6    5        3       0.628   1.883   0.000  -2.510  -0.000   0.000
   42   14   12   15        3       0.628   1.883   0.000  -2.510  -0.000   0.000
   45   15   12   11        3       0.628   1.883   0.000  -2.510  -0.000   0.000
   42   14   12   11        3       0.628   1.883   0.000  -2.510  -0.000   0.000
   39   13   12   11        3       0.628   1.883   0.000  -2.510  -0.000   0.000
   35   10    8    7        3       0.628   1.883   0.000  -2.510  -0.000   0.000
   32    9    8    7        3       0.628   1.883   0.000  -2.510  -0.000   0.000
   46   15   12   13        3       0.628   1.883   0.000  -2.510  -0.000   0.000
   38   11   12   15        3       0.628   1.883   0.000  -2.510  -0.000   0.000
   19    1    2    3        3       0.628   1.883   0.000  -2.510  -0.000   0.000
   34    9    8   11        3       0.628   1.883   0.000  -2.510  -0.000   0.000
   23    2    3    4        3       0.628   1.883   0.000  -2.510  -0.000   0.000
   34    9    8   10        3       0.628   1.883   0.000  -2.510  -0.000   0.000
   30    7    6    5        3       0.628   1.883   0.000  -2.510  -0.000   0.000
   38   11    5    4        3       0.628   1.883   0.000  -2.510  -0.000   0.000
   47   15   12   14        3       0.628   1.883   0.000  -2.510  -0.000   0.000
   33    9    8    7        3       0.628   1.883   0.000  -2.510  -0.000   0.000
   42   14   12   13        3       0.628   1.883   0.000  -2.510  -0.000   0.000
   36   10    8   11        3       0.628   1.883   0.000  -2.510  -0.000   0.000
   28    6    5    4        3       0.628   1.883   0.000  -2.510  -0.000   0.000
   44   14   12   11        3       0.628   1.883   0.000  -2.510  -0.000   0.000
   24    3    2   23        3       0.628   1.883   0.000  -2.510  -0.000   0.000
   25    3    2   22        3       0.628   1.883   0.000  -2.510  -0.000   0.000
   23    2    1   20        3       0.628   1.883   0.000  -2.510  -0.000   0.000
   30    7    6   28        3       0.628   1.883   0.000  -2.510  -0.000   0.000
   38   11    5   27        3       0.628   1.883   0.000  -2.510  -0.000   0.000
   27    5    4   26        3       0.628   1.883   0.000  -2.510  -0.000   0.000
   26    4    3   24        3       0.628   1.883   0.000  -2.510  -0.000   0.000
   31    7    6   29        3       0.628   1.883   0.000  -2.510  -0.000   0.000
   28    6    5   27        3       0.628   1.883   0.000  -2.510  -0.000   0.000
   23    2    1   21        3       0.628   1.883   0.000  -2.510  -0.000   0.000
   22    2    1   19        3       0.628   1.883   0.000  -2.510  -0.000   0.000
   26    4    3   25        3       0.628   1.883   0.000  -2.510  -0.000   0.000
   25    3    2   23        3       0.628   1.883   0.000  -2.510  -0.000   0.000
   22    2    1   20        3       0.628   1.883   0.000  -2.510  -0.000   0.000
   23    2    1   19        3       0.628   1.883   0.000  -2.510  -0.000   0.000
   31    7    6   28        3       0.628   1.883   0.000  -2.510  -0.000   0.000
   30    7    6   29        3       0.628   1.883   0.000  -2.510  -0.000   0.000
   22    2    1   21        3       0.628   1.883   0.000  -2.510  -0.000   0.000
   29    6    5   27        3       0.628   1.883   0.000  -2.510  -0.000   0.000
   24    3    2   22        3       0.628   1.883   0.000  -2.510  -0.000   0.000
   25    3    4   16        3      -4.096   5.088   2.966  -3.958  -0.000   0.000
   24    3    4   16        3      -4.096   5.088   2.966  -3.958  -0.000   0.000
   27    5    4   16        3      -4.096   5.088   2.966  -3.958  -0.000   0.000
   26    4   16   18        3       1.172   3.515   0.000  -4.686  -0.000   0.000
   53   18   16   17        3       1.172   3.515   0.000  -4.686  -0.000   0.000
   51   18   16    4        3       1.172   3.515   0.000  -4.686  -0.000   0.000
   51   18   16   17        3       1.172   3.515   0.000  -4.686  -0.000   0.000
   52   18   16   17        3       1.172   3.515   0.000  -4.686  -0.000   0.000
   48   17   16   18        3       1.172   3.515   0.000  -4.686  -0.000   0.000
   26    4   16   17        3       1.172   3.515   0.000  -4.686  -0.000   0.000
   53   18   16    4        3       1.172   3.515   0.000  -4.686  -0.000   0.000
   50   17   16    4        3       1.172   3.515   0.000  -4.686  -0.000   0.000
   50   17   16   18        3       1.172   3.515   0.000  -4.686  -0.000   0.000
   52   18   16    4        3       1.172   3.515   0.000  -4.686  -0.000   0.000
   49   17   16    4        3       1.172   3.515   0.000  -4.686  -0.000   0.000
   48   17   16    4        3       1.172   3.515   0.000  -4.686  -0.000   0.000
   49   17   16   18        3       1.172   3.515   0.000  -4.686  -0.000   0.000
   16    4    5    6        3       3.335  -1.552   2.820  -4.602  -0.000   0.000
   16    4    3    2        3       3.335  -1.552   2.820  -4.602  -0.000   0.000
   16    4    5   11        3       3.335  -1.552   2.820  -4.602  -0.000   0.000

[ pairs ]
     1     4    1
     2     5    1
     3     6    1
     4     7    1
     4     8    1
     5     9    1
     3    11    1
     6     9    1
     5    10    1
     6    10    1
     4    12    1
     6    12    1
     5    13    1
     2    16    1
     7    12    1
     5    14    1
     5    15    1
     3    17    1
     9    12    1
     8    13    1
     3    18    1
    10    12    1
     8    14    1
     6    16    1
     5    17    1
     3    19    1
     8    15    1
     5    18    1
     3    20    1
     3    21    1
     1    24    1
     4    22    1
     1    25    1
    11    16    1
     4    23    1
     2    26    1
     5    24    1
     5    25    1
     3    27    1
     6    26    1
     4    28    1
     4    29    1
     7    27    1
     8    27    1
     5    30    1
     8    28    1
     5    31    1
    11    26    1
     8    29    1
    12    27    1
    11    28    1
     9    30    1
     7    32    1
    16    24    1
    11    29    1
    10    30    1
     9    31    1
     7    33    1
    19    22    1
    16    25    1
    11    30    1
    10    31    1
     7    34    1
    20    22    1
    19    23    1
    11    31    1
    10    32    1
     7    35    1
     4    38    1
    21    22    1
    20    23    1
    17    26    1
    16    27    1
    11    32    1
    10    33    1
     7    36    1
    21    23    1
    18    26    1
    11    33    1
    10    34    1
     9    35    1
     7    37    1
     6    38    1
    11    34    1
     9    36    1
     7    38    1
    22    24    1
    11    35    1
     9    37    1
    23    24    1
    22    25    1
    11    36    1
     9    38    1
    23    25    1
    11    37    1
    10    38    1
    24    26    1
    11    39    1
    25    26    1
    13    38    1
    11    40    1
    14    38    1
    11    41    1
     4    48    1
    26    27    1
    15    38    1
    14    39    1
    11    42    1
     4    49    1
    15    39    1
    14    40    1
    11    43    1
     4    50    1
    27    28    1
    15    40    1
    14    41    1
    13    42    1
    11    44    1
     4    51    1
    27    29    1
    15    41    1
    13    43    1
    11    45    1
     4    52    1
    15    42    1
    13    44    1
    11    46    1
     4    53    1
    28    30    1
    15    43    1
    13    45    1
    11    47    1
    29    30    1
    28    31    1
    15    44    1
    14    45    1
    13    46    1
    29    31    1
    14    46    1
    13    47    1
    14    47    1
    27    38    1
    18    48    1
    18    49    1
    18    50    1
    17    51    1
    17    52    1
    17    53    1

