LIGPARGEN GENERATED GRO FILE
   43
    1UNK    C00    1   0.100   0.100   0.000
    1UNK    C01    2  -0.053   0.100   0.000
    1UNK    C02    3  -0.106   0.100   0.144
    1UNK    C03    4  -0.263   0.100   0.164
    1UNK    C04    5  -0.314   0.225   0.095
    1UNK    N05    6  -0.357   0.329   0.037
    1UNK    C06    7  -0.322  -0.028   0.092
    1UNK    C07    8  -0.474  -0.049   0.086
    1UNK    C08    9  -0.515  -0.171   0.004
    1UNK    C09   10  -0.294   0.108   0.323
    1UNK    C0A   11  -0.444   0.126   0.359
    1UNK    C0B   12  -0.484   0.129   0.507
    1UNK    C0C   13  -0.471  -0.008   0.575
    1UNK    C0D   14  -0.333  -0.033   0.635
    1UNK    C0E   15  -0.217   0.020   0.552
    1UNK    C0F   16  -0.228  -0.008   0.402
    1UNK    H0G   17   0.138   0.093  -0.102
    1UNK    H0H   18   0.139   0.015   0.056
    1UNK    H0I   19   0.139   0.192   0.045
    1UNK    H0J   20  -0.086   0.010  -0.053
    1UNK    H0K   21  -0.088   0.187  -0.055
    1UNK    H0M   22  -0.063   0.186   0.197
    1UNK    H0N   23  -0.064   0.010   0.190
    1UNK    H0O   24  -0.277  -0.117   0.137
    1UNK    H0P   25  -0.289  -0.026  -0.013
    1UNK    H0Q   26  -0.524   0.040   0.046
    1UNK    H0R   27  -0.514  -0.072   0.184
    1UNK    H0S   28  -0.482  -0.162  -0.100
    1UNK    H0T   29  -0.624  -0.181   0.005
    1UNK    H0U   30  -0.473  -0.262   0.047
    1UNK    H0V   31  -0.245   0.201   0.357
    1UNK    H0W   32  -0.502   0.045   0.318
    1UNK    H0X   33  -0.481   0.217   0.312
    1UNK    H0Y   34  -0.591   0.155   0.509
    1UNK    H0Z   35  -0.431   0.207   0.561
    1UNK    H10   36  -0.496  -0.088   0.505
    1UNK    H11   37  -0.544  -0.015   0.656
    1UNK    H12   38  -0.321  -0.141   0.650
    1UNK    H13   39  -0.328   0.012   0.734
    1UNK    H14   40  -0.125  -0.028   0.591
    1UNK    H15   41  -0.204   0.127   0.570
    1UNK    H16   42  -0.280  -0.103   0.382
    1UNK    H17   43  -0.125  -0.022   0.369
   1.00000   1.00000   1.00000

