LIGPARGEN GENERATED GRO FILE
   41
    1UNK    C00    1   0.100   0.100   0.000
    1UNK    C01    2  -0.052   0.100   0.000
    1UNK    O02    3  -0.095   0.100   0.135
    1UNK    C03    4  -0.238   0.094   0.147
    1UNK    S04    5  -0.298   0.094   0.319
    1UNK    O05    6  -0.248  -0.025   0.386
    1UNK    O06    7  -0.266   0.224   0.376
    1UNK    C07    8  -0.485   0.082   0.304
    1UNK    C08    9  -0.539   0.075   0.449
    1UNK    C09   10  -0.530   0.216   0.244
    1UNK    C0A   11  -0.531  -0.043   0.218
    1UNK    C0B   12  -0.477  -0.178   0.271
    1UNK    C0C   13  -0.685  -0.063   0.200
    1UNK    C0D   14  -0.757   0.041   0.115
    1UNK    C0E   15  -0.905   0.014   0.096
    1UNK    C0F   16  -0.984   0.124   0.031
    1UNK    O0G   17  -0.959  -0.090   0.135
    1UNK    H0H   18   0.140   0.100  -0.102
    1UNK    H0I   19   0.138   0.012   0.053
    1UNK    H0J   20   0.138   0.188   0.053
    1UNK    H0K   21  -0.089   0.011  -0.051
    1UNK    H0M   22  -0.089   0.189  -0.051
    1UNK    H0N   23  -0.273   0.002   0.100
    1UNK    H0O   24  -0.281   0.182   0.099
    1UNK    H0P   25  -0.511   0.164   0.506
    1UNK    H0Q   26  -0.500  -0.012   0.503
    1UNK    H0R   27  -0.649   0.069   0.450
    1UNK    H0S   28  -0.473   0.302   0.282
    1UNK    H0T   29  -0.633   0.240   0.269
    1UNK    H0U   30  -0.518   0.217   0.134
    1UNK    H0V   31  -0.489  -0.031   0.117
    1UNK    H0W   32  -0.510  -0.197   0.374
    1UNK    H0X   33  -0.368  -0.184   0.267
    1UNK    H0Y   34  -0.513  -0.262   0.210
    1UNK    H0Z   35  -0.733  -0.073   0.298
    1UNK    H10   36  -0.701  -0.160   0.150
    1UNK    H11   37  -0.711   0.049   0.017
    1UNK    H12   38  -0.755   0.138   0.164
    1UNK    H13   39  -0.917   0.199  -0.012
    1UNK    H14   40  -1.047   0.173   0.106
    1UNK    H15   41  -1.046   0.084  -0.049
   1.00000   1.00000   1.00000

