LIGPARGEN GENERATED GRO FILE
   37
    1UNK    C00    1   0.100   0.100   0.000
    1UNK    C01    2  -0.052   0.100   0.000
    1UNK    C02    3  -0.113   0.100   0.143
    1UNK    O03    4  -0.042   0.092   0.242
    1UNK    C04    5  -0.265   0.098   0.147
    1UNK    C05    6  -0.330   0.109   0.285
    1UNK    C06    7  -0.461   0.026   0.292
    1UNK    C07    8  -0.538  -0.012   0.420
    1UNK    C08    9  -0.621  -0.123   0.353
    1UNK    C09   10  -0.552  -0.160   0.212
    1UNK    C0A   11  -0.555  -0.018   0.163
    1UNK    C0B   12  -0.723  -0.010   0.143
    1UNK    C0C   13  -0.805  -0.142   0.204
    1UNK    C0D   14  -0.890  -0.143   0.327
    1UNK    C0E   15  -0.749  -0.193   0.343
    1UNK    H0F   16   0.138   0.108  -0.102
    1UNK    H0G   17   0.139   0.009   0.045
    1UNK    H0H   18   0.139   0.186   0.057
    1UNK    H0I   19  -0.087   0.011  -0.054
    1UNK    H0J   20  -0.088   0.189  -0.051
    1UNK    H0K   21  -0.292   0.002   0.100
    1UNK    H0M   22  -0.304   0.177   0.082
    1UNK    H0N   23  -0.339   0.211   0.320
    1UNK    H0O   24  -0.259   0.061   0.357
    1UNK    H0P   25  -0.393  -0.061   0.299
    1UNK    H0Q   26  -0.597   0.076   0.458
    1UNK    H0R   27  -0.475  -0.050   0.500
    1UNK    H0S   28  -0.687  -0.035   0.347
    1UNK    H0T   29  -0.604  -0.228   0.144
    1UNK    H0U   30  -0.454  -0.208   0.222
    1UNK    H0V   31  -0.507   0.004   0.068
    1UNK    H0W   32  -0.743  -0.014   0.035
    1UNK    H0X   33  -0.766   0.083   0.182
    1UNK    H0Y   34  -0.822  -0.219   0.128
    1UNK    H0Z   35  -0.966  -0.222   0.337
    1UNK    H10   36  -0.920  -0.050   0.374
    1UNK    H11   37  -0.734  -0.300   0.357
   1.00000   1.00000   1.00000

