LIGPARGEN GENERATED GRO FILE
   27
    1UNK    C00    1   0.100   0.100   0.000
    1UNK    C01    2  -0.054   0.100   0.000
    1UNK    O02    3  -0.101   0.100   0.135
    1UNK    C03    4  -0.226   0.115   0.186
    1UNK    O04    5  -0.246   0.087   0.304
    1UNK    O05    6  -0.329   0.154   0.107
    1UNK    C06    7  -0.334   0.236  -0.011
    1UNK    C07    8  -0.266   0.371   0.003
    1UNK    O08    9  -0.318   0.478   0.027
    1UNK    N09   10  -0.129   0.345  -0.010
    1UNK    C0A   11  -0.055   0.389   0.108
    1UNK    C0B   12  -0.112   0.215  -0.083
    1UNK    C0C   13  -0.254   0.173  -0.122
    1UNK    C0D   14  -0.303   0.222  -0.258
    1UNK    H0E   15   0.137  -0.000   0.027
    1UNK    H0F   16   0.143   0.167   0.076
    1UNK    H0G   17   0.142   0.125  -0.097
    1UNK    H0H   18  -0.080   0.004  -0.046
    1UNK    H0I   19  -0.439   0.251  -0.037
    1UNK    H0J   20  -0.124   0.398   0.193
    1UNK    H0K   21  -0.011   0.488   0.089
    1UNK    H0M   22   0.023   0.320   0.137
    1UNK    H0N   23  -0.052   0.233  -0.172
    1UNK    H0O   24  -0.266   0.064  -0.121
    1UNK    H0P   25  -0.305   0.331  -0.266
    1UNK    H0Q   26  -0.405   0.185  -0.275
    1UNK    H0R   27  -0.240   0.181  -0.339
   1.00000   1.00000   1.00000

