
;
; GENERATED BY LigParGen Server
; Jorgensen Lab @ Yale University 
;
[ atomtypes ]
  opls_818  H818     1.0080     0.000    A    2.50000E-01   1.25520E-01
  opls_824  H824     1.0080     0.000    A    2.50000E-01   1.25520E-01
  opls_808  O808    15.9990     0.000    A    2.96000E-01   8.78640E-01
  opls_804  O804    15.9990     0.000    A    2.96000E-01   8.78640E-01
  opls_812  C812    12.0110     0.000    A    3.50000E-01   2.76144E-01
  opls_806  C806    12.0110     0.000    A    3.50000E-01   2.76144E-01
  opls_815  H815     1.0080     0.000    A    2.50000E-01   1.25520E-01
  opls_801  C801    12.0110     0.000    A    3.50000E-01   2.76144E-01
  opls_809  N809    14.0070     0.000    A    3.25000E-01   7.11280E-01
  opls_822  H822     1.0080     0.000    A    2.50000E-01   1.25520E-01
  opls_825  H825     1.0080     0.000    A    2.50000E-01   1.25520E-01
  opls_814  H814     1.0080     0.000    A    2.50000E-01   1.25520E-01
  opls_821  H821     1.0080     0.000    A    2.50000E-01   1.25520E-01
  opls_820  H820     1.0080     0.000    A    2.50000E-01   1.25520E-01
  opls_816  H816     1.0080     0.000    A    2.50000E-01   1.25520E-01
  opls_800  C800    12.0110     0.000    A    3.50000E-01   2.76144E-01
  opls_811  C811    12.0110     0.000    A    3.50000E-01   2.76144E-01
  opls_823  H823     1.0080     0.000    A    2.50000E-01   1.25520E-01
  opls_813  C813    12.0110     0.000    A    3.50000E-01   2.76144E-01
  opls_805  O805    15.9990     0.000    A    2.90000E-01   5.85760E-01
  opls_826  H826     1.0080     0.000    A    2.50000E-01   1.25520E-01
  opls_819  H819     1.0080     0.000    A    2.50000E-01   1.25520E-01
  opls_810  C810    12.0110     0.000    A    3.50000E-01   2.76144E-01
  opls_802  O802    15.9990     0.000    A    2.90000E-01   5.85760E-01
  opls_807  C807    12.0110     0.000    A    3.55000E-01   2.92880E-01
  opls_803  C803    12.0110     0.000    A    3.55000E-01   2.92880E-01
  opls_817  H817     1.0080     0.000    A    2.50000E-01   1.25520E-01
[ moleculetype ]
; Name               nrexcl
UNK                   3
[ atoms ]
;   nr       type  resnr residue  atom   cgnr     charge       mass  
     1   opls_800      1    UNK   C00      1    -0.2487    12.0110 
     2   opls_801      1    UNK   C01      1     0.0998    12.0110 
     3   opls_802      1    UNK   O02      1    -0.4128    15.9990 
     4   opls_803      1    UNK   C03      1     0.6342    12.0110 
     5   opls_804      1    UNK   O04      1    -0.3677    15.9990 
     6   opls_805      1    UNK   O05      1    -0.3969    15.9990 
     7   opls_806      1    UNK   C06      1     0.0687    12.0110 
     8   opls_807      1    UNK   C07      1     0.5186    12.0110 
     9   opls_808      1    UNK   O08      1    -0.3423    15.9990 
    10   opls_809      1    UNK   N09      1    -0.8387    14.0070 
    11   opls_810      1    UNK   C0A      1     0.0491    12.0110 
    12   opls_811      1    UNK   C0B      1     0.1221    12.0110 
    13   opls_812      1    UNK   C0C      1    -0.1946    12.0110 
    14   opls_813      1    UNK   C0D      1    -0.2342    12.0110 
    15   opls_814      1    UNK   H0E      1     0.1078     1.0080 
    16   opls_815      1    UNK   H0F      1     0.1078     1.0080 
    17   opls_816      1    UNK   H0G      1     0.1078     1.0080 
    18   opls_817      1    UNK   H0H      1     0.1159     1.0080 
    19   opls_818      1    UNK   H0I      1     0.1887     1.0080 
    20   opls_819      1    UNK   H0J      1     0.1055     1.0080 
    21   opls_820      1    UNK   H0K      1     0.1055     1.0080 
    22   opls_821      1    UNK   H0M      1     0.1055     1.0080 
    23   opls_822      1    UNK   H0N      1     0.1549     1.0080 
    24   opls_823      1    UNK   H0O      1     0.1426     1.0080 
    25   opls_824      1    UNK   H0P      1     0.1005     1.0080 
    26   opls_825      1    UNK   H0Q      1     0.1005     1.0080 
    27   opls_826      1    UNK   H0R      1     0.1005     1.0080 
[ bonds ]
    2     1     1      0.1529 224262.400
    3     2     1      0.1410 267776.000
    4     3     1      0.1327 179075.200
    5     4     1      0.1229 476976.000
    6     4     1      0.1327 179075.200
    7     6     1      0.1410 267776.000
    8     7     1      0.1522 265265.600
    9     8     1      0.1229 476976.000
   10     8     1      0.1335 410032.000
   11    10     1      0.1449 282001.600
   12     2     1      0.1529 224262.400
   13     7     1      0.1529 224262.400
   14    13     1      0.1529 224262.400
   15     1     1      0.1090 284512.000
   16     1     1      0.1090 284512.000
   17     1     1      0.1090 284512.000
   18     2     1      0.1090 284512.000
   19     7     1      0.1090 284512.000
   20    11     1      0.1090 284512.000
   21    11     1      0.1090 284512.000
   22    11     1      0.1090 284512.000
   23    12     1      0.1090 284512.000
   24    13     1      0.1090 284512.000
   25    14     1      0.1090 284512.000
   26    14     1      0.1090 284512.000
   27    14     1      0.1090 284512.000
   12    10     1      0.1449 282001.600
   13    12     1      0.1529 224262.400

[ angles ]
;  ai    aj    ak funct            c0            c1            c2            c3 
    1     2     3     1    109.500    418.400
    2     3     4     1    116.900    694.544
    3     4     5     1    123.400    694.544
    3     4     6     1    118.180    584.923
    4     6     7     1    116.900    694.544
    6     7     8     1    109.500    418.400
    7     8     9     1    120.400    669.440
    7     8    10     1    116.600    585.760
    8    10    11     1    121.900    418.400
    1     2    12     1    112.700    488.273
    6     7    13     1    109.500    418.400
    7    13    14     1    112.700    488.273
    2     1    15     1    110.700    313.800
    2     1    16     1    110.700    313.800
    2     1    17     1    110.700    313.800
    1     2    18     1    110.700    313.800
    6     7    19     1    109.500    292.880
   10    11    20     1    109.500    292.880
   10    11    21     1    109.500    292.880
   10    11    22     1    109.500    292.880
    2    12    23     1    110.700    313.800
    7    13    24     1    110.700    313.800
   13    14    25     1    110.700    313.800
   13    14    26     1    110.700    313.800
   13    14    27     1    110.700    313.800
   20    11    21     1    107.800    276.144
    5     4     6     1    123.400    694.544
   12     2    18     1    110.700    313.800
    2    12    13     1    112.700    488.273
    3     2    18     1    109.500    292.880
   11    10    12     1    118.000    418.400
    7    13    12     1    112.700    488.273
   13    12    23     1    110.700    313.800
   14    13    24     1    110.700    313.800
    9     8    10     1    122.900    669.440
   12    13    14     1    112.700    488.273
   10    12    13     1    109.700    669.440
    8     7    13     1    111.100    527.184
   12    13    24     1    110.700    313.800
   25    14    27     1    107.800    276.144
   10    12    23     1    109.500    292.880
   21    11    22     1    107.800    276.144
   15     1    16     1    107.800    276.144
    2    12    10     1    109.700    669.440
    8     7    19     1    109.500    292.880
    3     2    12     1    109.500    418.400
   15     1    17     1    107.800    276.144
   16     1    17     1    107.800    276.144
   25    14    26     1    107.800    276.144
   20    11    22     1    107.800    276.144
    8    10    12     1    121.900    418.400
   13     7    19     1    110.700    313.800
   26    14    27     1    107.800    276.144

[ dihedrals ]
; IMPROPER DIHEDRAL ANGLES 
;  ai    aj    ak    al funct            c0            c1            c2            c3            c4            c5
    10     8     7     9    4        180.000     43.932     2  
     6     4     3     5    4        180.000     43.932     2  

[ dihedrals ]
; PROPER DIHEDRAL ANGLES
;  ai    aj    ak    al funct            c0            c1            c2            c3            c4            c5
    8    7    6    4        3      -2.197   5.201   0.527  -3.531  -0.000   0.000
    8   10   12    2        3       1.933   0.000  -1.933  -0.000  -0.000   0.000
    4    3    2    1        3      -2.197   5.201   0.527  -3.531  -0.000   0.000
   13    7    8   10        3       0.734  -9.985  -0.791  10.042  -0.000   0.000
   13    7    8    9        3       0.000   0.000   0.000  -0.000  -0.000   0.000
   12   13    7    8        3      -4.960   6.286   1.310  -2.636  -0.000   0.000
   14   13    7    8        3      -4.960   6.286   1.310  -2.636  -0.000   0.000
   13   12    2    1        3       2.301  -1.464   0.837  -1.674  -0.000   0.000
    7   13   12    2        3       2.301  -1.464   0.837  -1.674  -0.000   0.000
   14   13   12    2        3       2.301  -1.464   0.837  -1.674  -0.000   0.000
   14   13   12   10        3      -0.766   2.707   4.025  -5.966  -0.000   0.000
   14   13    7    6        3       2.874   0.582   2.092  -5.548  -0.000   0.000
   12   13    7    6        3       2.874   0.582   2.092  -5.548  -0.000   0.000
   13   12    2    3        3       2.874   0.582   2.092  -5.548  -0.000   0.000
   13   12   10    8        3       1.933   0.000  -1.933  -0.000  -0.000   0.000
   13   12   10   11        3       6.872  -9.943   3.071  -0.000  -0.000   0.000
   13    7    6    4        3      -2.197   5.201   0.527  -3.531  -0.000   0.000
   12    2    3    4        3      -2.197   5.201   0.527  -3.531  -0.000   0.000
   11   10    8    7        3      30.288  -4.812  -25.476  -0.000  -0.000   0.000
   12   10    8    7        3      30.288  -4.812  -25.476  -0.000  -0.000   0.000
   11   10    8    9        3      25.476   0.000  -25.476  -0.000  -0.000   0.000
   12   10    8    9        3      25.476   0.000  -25.476  -0.000  -0.000   0.000
   11   10   12    2        3       6.872  -9.943   3.071  -0.000  -0.000   0.000
    7    6    4    5        3      21.439   0.000  -21.439  -0.000  -0.000   0.000
    7    6    4    3        3      31.206  -9.768  -21.439  -0.000  -0.000   0.000
   19    7    8   10        3       0.000   0.000   0.000  -0.000  -0.000   0.000
   19    7    8    9        3       0.000   0.000   0.000  -0.000  -0.000   0.000
   24   13    7    8        3      -0.209  -0.628   0.000   0.837  -0.000   0.000
   19    7   13   12        3       0.628   1.883   0.000  -2.510  -0.000   0.000
   27   14   13    7        3       0.628   1.883   0.000  -2.510  -0.000   0.000
   26   14   13   12        3       0.628   1.883   0.000  -2.510  -0.000   0.000
   17    1    2   12        3       0.628   1.883   0.000  -2.510  -0.000   0.000
   18    2   12   13        3       0.628   1.883   0.000  -2.510  -0.000   0.000
   15    1    2   12        3       0.628   1.883   0.000  -2.510  -0.000   0.000
   27   14   13   12        3       0.628   1.883   0.000  -2.510  -0.000   0.000
   24   13   12    2        3       0.628   1.883   0.000  -2.510  -0.000   0.000
   19    7   13   14        3       0.628   1.883   0.000  -2.510  -0.000   0.000
   26   14   13    7        3       0.628   1.883   0.000  -2.510  -0.000   0.000
   16    1    2   12        3       0.628   1.883   0.000  -2.510  -0.000   0.000
   23   12    2    1        3       0.628   1.883   0.000  -2.510  -0.000   0.000
   25   14   13   12        3       0.628   1.883   0.000  -2.510  -0.000   0.000
   23   12   13    7        3       0.628   1.883   0.000  -2.510  -0.000   0.000
   25   14   13    7        3       0.628   1.883   0.000  -2.510  -0.000   0.000
   23   12   13   14        3       0.628   1.883   0.000  -2.510  -0.000   0.000
   18    2    1   16        3       0.628   1.883   0.000  -2.510  -0.000   0.000
   24   13    7   19        3       0.628   1.883   0.000  -2.510  -0.000   0.000
   26   14   13   24        3       0.628   1.883   0.000  -2.510  -0.000   0.000
   18    2    1   17        3       0.628   1.883   0.000  -2.510  -0.000   0.000
   27   14   13   24        3       0.628   1.883   0.000  -2.510  -0.000   0.000
   23   12    2   18        3       0.628   1.883   0.000  -2.510  -0.000   0.000
   18    2    1   15        3       0.628   1.883   0.000  -2.510  -0.000   0.000
   25   14   13   24        3       0.628   1.883   0.000  -2.510  -0.000   0.000
   24   13   12   23        3       0.628   1.883   0.000  -2.510  -0.000   0.000
   18    2   12   10        3       0.971   2.912   0.000  -3.883  -0.000   0.000
   24   13   12   10        3       0.971   2.912   0.000  -3.883  -0.000   0.000
   16    1    2    3        3       0.979   2.937   0.000  -3.916  -0.000   0.000
   24   13    7    6        3       0.979   2.937   0.000  -3.916  -0.000   0.000
   17    1    2    3        3       0.979   2.937   0.000  -3.916  -0.000   0.000
   23   12    2    3        3       0.979   2.937   0.000  -3.916  -0.000   0.000
   15    1    2    3        3       0.979   2.937   0.000  -3.916  -0.000   0.000
   23   12   10    8        3       0.000   0.000   0.000  -0.000  -0.000   0.000
   20   11   10    8        3       0.000   0.000   0.000  -0.000  -0.000   0.000
   22   11   10    8        3       0.000   0.000   0.000  -0.000  -0.000   0.000
   21   11   10    8        3       0.000   0.000   0.000  -0.000  -0.000   0.000
   20   11   10   12        3       0.000   0.000   0.000  -0.000  -0.000   0.000
   21   11   10   12        3       0.000   0.000   0.000  -0.000  -0.000   0.000
   22   11   10   12        3       0.000   0.000   0.000  -0.000  -0.000   0.000
   23   12   10   11        3       0.000   0.000   0.000  -0.000  -0.000   0.000
   19    7    6    4        3       0.414   1.243   0.000  -1.657  -0.000   0.000
   18    2    3    4        3       0.414   1.243   0.000  -1.657  -0.000   0.000
   10    8    7    6        3      12.219   6.123  -5.113  -13.230  -0.000   0.000
   10   12    2    1        3      -0.766   2.707   4.025  -5.966  -0.000   0.000
   10   12   13    7        3      -0.766   2.707   4.025  -5.966  -0.000   0.000
   10   12    2    3        3      11.247  -0.397   6.138  -16.987  -0.000   0.000
    9    8    7    6        3       0.000   0.000   0.000  -0.000  -0.000   0.000
    5    4    3    2        3      21.439   0.000  -21.439  -0.000  -0.000   0.000
    6    4    3    2        3      31.206  -9.768  -21.439  -0.000  -0.000   0.000

[ pairs ]
     1     4    1
     2     5    1
     2     6    1
     2     7    1
     3     7    1
     2     8    1
     1    10    1
     5     7    1
     4     8    1
     3    10    1
     2    11    1
     1    13    1
     6     9    1
     6    10    1
     4    12    1
     3    13    1
     2    14    1
     4    13    1
     7    11    1
     6    12    1
     3    15    1
     3    16    1
     9    11    1
     6    14    1
     3    17    1
     9    12    1
     9    13    1
     8    14    1
     4    18    1
     4    19    1
    11    13    1
    10    14    1
     1    23    1
     3    23    1
     2    24    1
    12    15    1
    12    16    1
    10    18    1
     9    19    1
     8    20    1
    12    17    1
    10    19    1
     8    21    1
     8    22    1
     7    23    1
     6    24    1
    13    18    1
    12    19    1
     8    23    1
    12    20    1
     8    24    1
     7    25    1
    15    18    1
    14    19    1
    12    21    1
     7    26    1
    16    18    1
    12    22    1
    11    23    1
    10    24    1
     7    27    1
    17    18    1
    14    23    1
    12    25    1
    12    26    1
    12    27    1
    18    23    1
    19    24    1
    23    24    1
    24    25    1
    24    26    1
    24    27    1

