
;
; GENERATED BY LigParGen Server
; Jorgensen Lab @ Yale University 
;
[ atomtypes ]
  opls_818  H818     1.0080     0.000    A    2.50000E-01   1.25520E-01
  opls_814  C814    12.0110     0.000    A    3.50000E-01   2.76144E-01
  opls_824  H824     1.0080     0.000    A    2.50000E-01   1.25520E-01
  opls_816  O816    15.9990     0.000    A    2.96000E-01   8.78640E-01
  opls_836  H836     1.0080     0.000    A    2.50000E-01   1.25520E-01
  opls_834  H834     1.0080     0.000    A    2.50000E-01   1.25520E-01
  opls_828  H828     1.0080     0.000    A    2.50000E-01   1.25520E-01
  opls_806  C806    12.0110     0.000    A    3.50000E-01   2.76144E-01
  opls_827  H827     1.0080     0.000    A    2.50000E-01   1.25520E-01
  opls_809  C809    12.0110     0.000    A    3.50000E-01   2.76144E-01
  opls_838  H838     1.0080     0.000    A    2.50000E-01   1.25520E-01
  opls_802  O802    15.9990     0.000    A    2.96000E-01   8.78640E-01
  opls_822  H822     1.0080     0.000    A    2.50000E-01   1.25520E-01
  opls_803  C803    12.0110     0.000    A    3.50000E-01   2.76144E-01
  opls_825  H825     1.0080     0.000    A    2.50000E-01   1.25520E-01
  opls_830  H830     1.0080     0.000    A    2.50000E-01   1.25520E-01
  opls_810  C810    12.0110     0.000    A    3.50000E-01   2.76144E-01
  opls_820  H820     1.0080     0.000    A    2.50000E-01   1.25520E-01
  opls_801  C801    12.0110     0.000    A    3.55000E-01   2.92880E-01
  opls_837  H837     1.0080     0.000    A    2.50000E-01   1.25520E-01
  opls_821  H821     1.0080     0.000    A    2.50000E-01   1.25520E-01
  opls_831  H831     1.0080     0.000    A    2.50000E-01   1.25520E-01
  opls_812  O812    15.9990     0.000    A    2.96000E-01   8.78640E-01
  opls_832  H832     1.0080     0.000    A    2.50000E-01   1.25520E-01
  opls_800  C800    12.0110     0.000    A    3.50000E-01   2.76144E-01
  opls_805  C805    12.0110     0.000    A    3.50000E-01   2.76144E-01
  opls_823  H823     1.0080     0.000    A    2.50000E-01   1.25520E-01
  opls_815  C815    12.0110     0.000    A    3.55000E-01   2.92880E-01
  opls_833  H833     1.0080     0.000    A    2.50000E-01   1.25520E-01
  opls_813  C813    12.0110     0.000    A    3.50000E-01   2.76144E-01
  opls_811  C811    12.0110     0.000    A    3.55000E-01   2.92880E-01
  opls_826  H826     1.0080     0.000    A    2.50000E-01   1.25520E-01
  opls_835  H835     1.0080     0.000    A    2.50000E-01   1.25520E-01
  opls_819  H819     1.0080     0.000    A    2.50000E-01   1.25520E-01
  opls_804  C804    12.0110     0.000    A    3.50000E-01   2.76144E-01
  opls_808  C808    12.0110     0.000    A    3.50000E-01   2.76144E-01
  opls_817  H817     1.0080     0.000    A    2.50000E-01   1.25520E-01
  opls_829  H829     1.0080     0.000    A    2.50000E-01   1.25520E-01
  opls_807  C807    12.0110     0.000    A    3.50000E-01   2.76144E-01
[ moleculetype ]
; Name               nrexcl
UNK                   3
[ atoms ]
;   nr       type  resnr residue  atom   cgnr     charge       mass  
     1   opls_800      1    UNK   C00      1    -0.2884    12.0110 
     2   opls_801      1    UNK   C01      1     0.3865    12.0110 
     3   opls_802      1    UNK   O02      1    -0.4666    15.9990 
     4   opls_803      1    UNK   C03      1     -0.044    12.0110 
     5   opls_804      1    UNK   C04      1    -0.2497    12.0110 
     6   opls_805      1    UNK   C05      1    -0.0914    12.0110 
     7   opls_806      1    UNK   C06      1    -0.2424    12.0110 
     8   opls_807      1    UNK   C07      1      -0.17    12.0110 
     9   opls_808      1    UNK   C08      1    -0.1614    12.0110 
    10   opls_809      1    UNK   C09      1    -0.1499    12.0110 
    11   opls_810      1    UNK   C0A      1    -0.2346    12.0110 
    12   opls_811      1    UNK   C0B      1     0.3892    12.0110 
    13   opls_812      1    UNK   O0C      1    -0.4571    15.9990 
    14   opls_813      1    UNK   C0D      1    -0.1299    12.0110 
    15   opls_814      1    UNK   C0E      1    -0.2386    12.0110 
    16   opls_815      1    UNK   C0F      1     0.3436    12.0110 
    17   opls_816      1    UNK   O0G      1    -0.4426    15.9990 
    18   opls_817      1    UNK   H0H      1      0.122     1.0080 
    19   opls_818      1    UNK   H0I      1      0.122     1.0080 
    20   opls_819      1    UNK   H0J      1      0.122     1.0080 
    21   opls_820      1    UNK   H0K      1     0.0982     1.0080 
    22   opls_821      1    UNK   H0M      1     0.0982     1.0080 
    23   opls_822      1    UNK   H0N      1     0.0982     1.0080 
    24   opls_823      1    UNK   H0O      1     0.0936     1.0080 
    25   opls_824      1    UNK   H0P      1     0.0909     1.0080 
    26   opls_825      1    UNK   H0Q      1     0.0909     1.0080 
    27   opls_826      1    UNK   H0R      1     0.0909     1.0080 
    28   opls_827      1    UNK   H0S      1     0.0945     1.0080 
    29   opls_828      1    UNK   H0T      1     0.0945     1.0080 
    30   opls_829      1    UNK   H0U      1     0.0941     1.0080 
    31   opls_830      1    UNK   H0V      1     0.0941     1.0080 
    32   opls_831      1    UNK   H0W      1     0.1243     1.0080 
    33   opls_832      1    UNK   H0X      2     0.0941     1.0080 
    34   opls_833      1    UNK   H0Y      2     0.0941     1.0080 
    35   opls_834      1    UNK   H0Z      2     0.0941     1.0080 
    36   opls_835      1    UNK   H10      2     0.1044     1.0080 
    37   opls_836      1    UNK   H11      2     0.1044     1.0080 
    38   opls_837      1    UNK   H12      2     0.1044     1.0080 
    39   opls_838      1    UNK   H13      2     0.1241     1.0080 
[ bonds ]
    2     1     1      0.1522 265265.600
    3     2     1      0.1229 476976.000
    4     2     1      0.1522 265265.600
    5     4     1      0.1529 224262.400
    6     4     1      0.1529 224262.400
    7     6     1      0.1529 224262.400
    8     6     1      0.1529 224262.400
    9     8     1      0.1529 224262.400
   10     9     1      0.1529 224262.400
   11    10     1      0.1529 224262.400
   12    10     1      0.1522 265265.600
   13    12     1      0.1229 476976.000
   14     4     1      0.1529 224262.400
   15    14     1      0.1529 224262.400
   16    14     1      0.1522 265265.600
   17    16     1      0.1229 476976.000
   18     1     1      0.1090 284512.000
   19     1     1      0.1090 284512.000
   20     1     1      0.1090 284512.000
   21     5     1      0.1090 284512.000
   22     5     1      0.1090 284512.000
   23     5     1      0.1090 284512.000
   24     6     1      0.1090 284512.000
   25     7     1      0.1090 284512.000
   26     7     1      0.1090 284512.000
   27     7     1      0.1090 284512.000
   28     8     1      0.1090 284512.000
   29     8     1      0.1090 284512.000
   30     9     1      0.1090 284512.000
   31     9     1      0.1090 284512.000
   32    10     1      0.1090 284512.000
   33    11     1      0.1090 284512.000
   34    11     1      0.1090 284512.000
   35    11     1      0.1090 284512.000
   36    15     1      0.1090 284512.000
   37    15     1      0.1090 284512.000
   38    15     1      0.1090 284512.000
   39    16     1      0.1090 284512.000
   14    12     1      0.1522 265265.600

[ angles ]
;  ai    aj    ak funct            c0            c1            c2            c3 
    1     2     3     1    120.400    669.440
    1     2     4     1    116.000    585.760
    2     4     5     1    111.100    527.184
    2     4     6     1    111.100    527.184
    4     6     7     1    112.700    488.273
    4     6     8     1    112.700    488.273
    6     8     9     1    112.700    488.273
    8     9    10     1    112.700    488.273
    9    10    11     1    112.700    488.273
    9    10    12     1    111.100    527.184
   10    12    13     1    120.400    669.440
    2     4    14     1    111.100    527.184
    4    14    15     1    112.700    488.273
    4    14    16     1    111.100    527.184
   14    16    17     1    120.400    669.440
    2     1    18     1    109.500    292.880
    2     1    19     1    109.500    292.880
    2     1    20     1    109.500    292.880
    4     5    21     1    110.700    313.800
    4     5    22     1    110.700    313.800
    4     5    23     1    110.700    313.800
    4     6    24     1    110.700    313.800
    6     7    25     1    110.700    313.800
    6     7    26     1    110.700    313.800
    6     7    27     1    110.700    313.800
    6     8    28     1    110.700    313.800
    6     8    29     1    110.700    313.800
    8     9    30     1    110.700    313.800
    8     9    31     1    110.700    313.800
    9    10    32     1    110.700    313.800
   10    11    33     1    110.700    313.800
   10    11    34     1    110.700    313.800
   10    11    35     1    110.700    313.800
   14    15    36     1    110.700    313.800
   14    15    37     1    110.700    313.800
   14    15    38     1    110.700    313.800
   14    16    39     1    115.000    292.880
    9     8    28     1    110.700    313.800
    5     4     6     1    112.700    488.273
   25     7    26     1    107.800    276.144
   25     7    27     1    107.800    276.144
   11    10    32     1    110.700    313.800
    5     4    14     1    112.700    488.273
   11    10    12     1    111.100    527.184
   21     5    22     1    107.800    276.144
    9     8    29     1    110.700    313.800
   10     9    30     1    110.700    313.800
   10    12    14     1    116.000    585.760
   12    14    15     1    111.100    527.184
   17    16    39     1    123.000    292.880
   33    11    34     1    107.800    276.144
   30     9    31     1    107.800    276.144
   36    15    38     1    107.800    276.144
   33    11    35     1    107.800    276.144
   15    14    16     1    111.100    527.184
    7     6    24     1    110.700    313.800
   28     8    29     1    107.800    276.144
   34    11    35     1    107.800    276.144
    3     2     4     1    120.400    669.440
   13    12    14     1    120.400    669.440
   10     9    31     1    110.700    313.800
    7     6     8     1    112.700    488.273
    4    14    12     1    111.100    527.184
   26     7    27     1    107.800    276.144
   18     1    20     1    107.800    276.144
   21     5    23     1    107.800    276.144
    6     4    14     1    112.700    488.273
   37    15    38     1    107.800    276.144
    8     6    24     1    110.700    313.800
   18     1    19     1    107.800    276.144
   19     1    20     1    107.800    276.144
   36    15    37     1    107.800    276.144
   22     5    23     1    107.800    276.144
   12    14    16     1    111.100    527.184
   12    10    32     1    109.500    292.880

[ dihedrals ]
; IMPROPER DIHEDRAL ANGLES 
;  ai    aj    ak    al funct            c0            c1            c2            c3            c4            c5
     4     2     1     3    4        180.000     43.932     2  
    10    12    13    14    4        180.000     43.932     2  
    39    16    14    17    4        180.000     43.932     2  

[ dihedrals ]
; PROPER DIHEDRAL ANGLES
;  ai    aj    ak    al funct            c0            c1            c2            c3            c4            c5
   16   14   12   10        3       0.818  -7.906   0.602   6.485  -0.000   0.000
   16   14   12   13        3       0.000   0.000   0.000  -0.000  -0.000   0.000
   12   14    4    2        3       0.941   7.427   0.000  -8.368  -0.000   0.000
   16   14    4    2        3       0.941   7.427   0.000  -8.368  -0.000   0.000
   16   14    4    5        3      -4.960   6.286   1.310  -2.636  -0.000   0.000
   12   10    9    8        3      -4.960   6.286   1.310  -2.636  -0.000   0.000
   16   14    4    6        3      -4.960   6.286   1.310  -2.636  -0.000   0.000
   12   14    4    5        3      -4.960   6.286   1.310  -2.636  -0.000   0.000
   12   14    4    6        3      -4.960   6.286   1.310  -2.636  -0.000   0.000
   14   12   10   11        3       0.818  -7.906   0.602   6.485  -0.000   0.000
   14   12   10    9        3       0.818  -7.906   0.602   6.485  -0.000   0.000
   10   12   14    4        3       0.818  -7.906   0.602   6.485  -0.000   0.000
    6    4    2    1        3       0.818  -7.906   0.602   6.485  -0.000   0.000
   15   14   12   10        3       0.818  -7.906   0.602   6.485  -0.000   0.000
    5    4    2    1        3       0.818  -7.906   0.602   6.485  -0.000   0.000
   14    4    2    1        3       0.818  -7.906   0.602   6.485  -0.000   0.000
   14    4    2    3        3       0.000   0.000   0.000  -0.000  -0.000   0.000
    6    4    2    3        3       0.000   0.000   0.000  -0.000  -0.000   0.000
    5    4    2    3        3       0.000   0.000   0.000  -0.000  -0.000   0.000
   15   14   12   13        3       0.000   0.000   0.000  -0.000  -0.000   0.000
   15   14    4    2        3      -4.960   6.286   1.310  -2.636  -0.000   0.000
    8    6    4    2        3      -4.960   6.286   1.310  -2.636  -0.000   0.000
    7    6    4    2        3      -4.960   6.286   1.310  -2.636  -0.000   0.000
   10    9    8    6        3       2.301  -1.464   0.837  -1.674  -0.000   0.000
    8    6    4    5        3       2.301  -1.464   0.837  -1.674  -0.000   0.000
   11   10    9    8        3       2.301  -1.464   0.837  -1.674  -0.000   0.000
    9    8    6    7        3       2.301  -1.464   0.837  -1.674  -0.000   0.000
   14    4    6    8        3       2.301  -1.464   0.837  -1.674  -0.000   0.000
   15   14    4    5        3       2.301  -1.464   0.837  -1.674  -0.000   0.000
   14    4    6    7        3       2.301  -1.464   0.837  -1.674  -0.000   0.000
   15   14    4    6        3       2.301  -1.464   0.837  -1.674  -0.000   0.000
    7    6    4    5        3       2.301  -1.464   0.837  -1.674  -0.000   0.000
    9    8    6    4        3       2.301  -1.464   0.837  -1.674  -0.000   0.000
   39   16   14   12        3       0.000   0.000   0.000  -0.000  -0.000   0.000
   39   16   14   15        3       0.000   0.000   0.000  -0.000  -0.000   0.000
   39   16   14    4        3       0.000   0.000   0.000  -0.000  -0.000   0.000
   32   10   12   14        3       0.575   1.726   0.000  -2.301  -0.000   0.000
   20    1    2    4        3       0.575   1.726   0.000  -2.301  -0.000   0.000
   19    1    2    4        3       0.575   1.726   0.000  -2.301  -0.000   0.000
   18    1    2    4        3       0.575   1.726   0.000  -2.301  -0.000   0.000
   18    1    2    3        3       0.000   0.000   0.000  -0.000  -0.000   0.000
   19    1    2    3        3       0.000   0.000   0.000  -0.000  -0.000   0.000
   20    1    2    3        3       0.000   0.000   0.000  -0.000  -0.000   0.000
   32   10   12   13        3       0.000   0.000   0.000  -0.000  -0.000   0.000
   30    9   10   12        3      -0.209  -0.628   0.000   0.837  -0.000   0.000
   38   15   14   16        3      -0.209  -0.628   0.000   0.837  -0.000   0.000
   23    5    4    2        3      -0.209  -0.628   0.000   0.837  -0.000   0.000
   33   11   10   12        3      -0.209  -0.628   0.000   0.837  -0.000   0.000
   22    5    4    2        3      -0.209  -0.628   0.000   0.837  -0.000   0.000
   35   11   10   12        3      -0.209  -0.628   0.000   0.837  -0.000   0.000
   36   15   14   12        3      -0.209  -0.628   0.000   0.837  -0.000   0.000
   31    9   10   12        3      -0.209  -0.628   0.000   0.837  -0.000   0.000
   36   15   14   16        3      -0.209  -0.628   0.000   0.837  -0.000   0.000
   38   15   14   12        3      -0.209  -0.628   0.000   0.837  -0.000   0.000
   37   15   14   12        3      -0.209  -0.628   0.000   0.837  -0.000   0.000
   37   15   14   16        3      -0.209  -0.628   0.000   0.837  -0.000   0.000
   34   11   10   12        3      -0.209  -0.628   0.000   0.837  -0.000   0.000
   21    5    4    2        3      -0.209  -0.628   0.000   0.837  -0.000   0.000
   24    6    4    2        3      -0.209  -0.628   0.000   0.837  -0.000   0.000
   31    9   10   11        3       0.628   1.883   0.000  -2.510  -0.000   0.000
   29    8    9   10        3       0.628   1.883   0.000  -2.510  -0.000   0.000
   30    9   10   11        3       0.628   1.883   0.000  -2.510  -0.000   0.000
   37   15   14    4        3       0.628   1.883   0.000  -2.510  -0.000   0.000
   34   11   10    9        3       0.628   1.883   0.000  -2.510  -0.000   0.000
   27    7    6    8        3       0.628   1.883   0.000  -2.510  -0.000   0.000
   38   15   14    4        3       0.628   1.883   0.000  -2.510  -0.000   0.000
   22    5    4   14        3       0.628   1.883   0.000  -2.510  -0.000   0.000
   23    5    4   14        3       0.628   1.883   0.000  -2.510  -0.000   0.000
   22    5    4    6        3       0.628   1.883   0.000  -2.510  -0.000   0.000
   29    8    6    7        3       0.628   1.883   0.000  -2.510  -0.000   0.000
   27    7    6    4        3       0.628   1.883   0.000  -2.510  -0.000   0.000
   26    7    6    4        3       0.628   1.883   0.000  -2.510  -0.000   0.000
   29    8    6    4        3       0.628   1.883   0.000  -2.510  -0.000   0.000
   26    7    6    8        3       0.628   1.883   0.000  -2.510  -0.000   0.000
   25    7    6    4        3       0.628   1.883   0.000  -2.510  -0.000   0.000
   21    5    4    6        3       0.628   1.883   0.000  -2.510  -0.000   0.000
   24    6    8    9        3       0.628   1.883   0.000  -2.510  -0.000   0.000
   28    8    6    4        3       0.628   1.883   0.000  -2.510  -0.000   0.000
   28    8    6    7        3       0.628   1.883   0.000  -2.510  -0.000   0.000
   23    5    4    6        3       0.628   1.883   0.000  -2.510  -0.000   0.000
   35   11   10    9        3       0.628   1.883   0.000  -2.510  -0.000   0.000
   32   10    9    8        3       0.628   1.883   0.000  -2.510  -0.000   0.000
   36   15   14    4        3       0.628   1.883   0.000  -2.510  -0.000   0.000
   24    6    4   14        3       0.628   1.883   0.000  -2.510  -0.000   0.000
   21    5    4   14        3       0.628   1.883   0.000  -2.510  -0.000   0.000
   24    6    4    5        3       0.628   1.883   0.000  -2.510  -0.000   0.000
   30    9    8    6        3       0.628   1.883   0.000  -2.510  -0.000   0.000
   25    7    6    8        3       0.628   1.883   0.000  -2.510  -0.000   0.000
   33   11   10    9        3       0.628   1.883   0.000  -2.510  -0.000   0.000
   31    9    8    6        3       0.628   1.883   0.000  -2.510  -0.000   0.000
   28    8    9   10        3       0.628   1.883   0.000  -2.510  -0.000   0.000
   33   11   10   32        3       0.628   1.883   0.000  -2.510  -0.000   0.000
   27    7    6   24        3       0.628   1.883   0.000  -2.510  -0.000   0.000
   32   10    9   31        3       0.628   1.883   0.000  -2.510  -0.000   0.000
   34   11   10   32        3       0.628   1.883   0.000  -2.510  -0.000   0.000
   35   11   10   32        3       0.628   1.883   0.000  -2.510  -0.000   0.000
   26    7    6   24        3       0.628   1.883   0.000  -2.510  -0.000   0.000
   30    9    8   29        3       0.628   1.883   0.000  -2.510  -0.000   0.000
   30    9    8   28        3       0.628   1.883   0.000  -2.510  -0.000   0.000
   31    9    8   28        3       0.628   1.883   0.000  -2.510  -0.000   0.000
   25    7    6   24        3       0.628   1.883   0.000  -2.510  -0.000   0.000
   28    8    6   24        3       0.628   1.883   0.000  -2.510  -0.000   0.000
   29    8    6   24        3       0.628   1.883   0.000  -2.510  -0.000   0.000
   32   10    9   30        3       0.628   1.883   0.000  -2.510  -0.000   0.000
   31    9    8   29        3       0.628   1.883   0.000  -2.510  -0.000   0.000
   17   16   14   12        3       0.000   0.000   0.000  -0.000  -0.000   0.000
   17   16   14    4        3       0.000   0.000   0.000  -0.000  -0.000   0.000
   13   12   10    9        3       0.000   0.000   0.000  -0.000  -0.000   0.000
   13   12   14    4        3       0.000   0.000   0.000  -0.000  -0.000   0.000
   13   12   10   11        3       0.000   0.000   0.000  -0.000  -0.000   0.000
   17   16   14   15        3       0.000   0.000   0.000  -0.000  -0.000   0.000

[ pairs ]
     1     5    1
     1     6    1
     3     5    1
     3     6    1
     2     7    1
     2     8    1
     5     7    1
     5     8    1
     4     9    1
     4    10    1
     2    12    1
     1    14    1
     7     9    1
     6    10    1
     5    12    1
     4    13    1
     3    14    1
     2    15    1
     6    12    1
     2    16    1
     8    11    1
     8    12    1
     5    15    1
     7    14    1
     6    15    1
     5    16    1
     4    17    1
     3    18    1
     9    13    1
     8    14    1
     6    16    1
     4    18    1
     3    19    1
     9    14    1
     4    19    1
     3    20    1
     2    21    1
    11    13    1
     4    20    1
     2    22    1
    11    14    1
    10    15    1
     2    23    1
    10    16    1
     2    24    1
     6    21    1
    13    15    1
     6    22    1
    13    16    1
    12    17    1
     6    23    1
     5    24    1
     4    25    1
     4    26    1
     4    27    1
    15    17    1
     4    28    1
     9    24    1
     8    25    1
     4    29    1
     8    26    1
    14    21    1
     8    27    1
     7    28    1
    14    22    1
     7    29    1
     6    30    1
    14    23    1
     6    31    1
    14    24    1
    10    28    1
    10    29    1
     8    32    1
     4    36    1
    11    30    1
     4    37    1
    12    30    1
    11    31    1
     9    33    1
     4    38    1
    12    31    1
     9    34    1
     4    39    1
     9    35    1
    13    32    1
    12    33    1
    14    32    1
    12    34    1
    12    35    1
    12    36    1
    24    25    1
    12    37    1
    24    26    1
    12    38    1
    24    27    1
    12    39    1
    24    28    1
    16    36    1
    24    29    1
    16    37    1
    16    38    1
    15    39    1
    28    30    1
    29    30    1
    28    31    1
    29    31    1
    30    32    1
    31    32    1
    32    33    1
    32    34    1
    32    35    1

