LIGPARGEN GENERATED GRO FILE
   47
    1UNK    C00    1   0.100   0.100   0.000
    1UNK    O01    2  -0.043   0.100   0.000
    1UNK    C02    3  -0.097   0.100   0.124
    1UNK    O03    4  -0.034   0.100   0.229
    1UNK    O04    5  -0.232   0.100   0.112
    1UNK    C05    6  -0.305   0.094   0.235
    1UNK    C06    7  -0.311  -0.050   0.285
    1UNK    C07    8  -0.388  -0.061   0.416
    1UNK    C08    9  -0.395  -0.205   0.468
    1UNK    C09   10  -0.260  -0.274   0.495
    1UNK    C0A   11  -0.178  -0.198   0.600
    1UNK    C0B   12  -0.278  -0.420   0.540
    1UNK    C0C   13  -0.339  -0.510   0.431
    1UNK    C0D   14  -0.359  -0.658   0.472
    1UNK    C0E   15  -0.220  -0.723   0.492
    1UNK    N0F   16  -0.447  -0.674   0.590
    1UNK    C0G   17  -0.581  -0.616   0.567
    1UNK    C0H   18  -0.463  -0.814   0.629
    1UNK    H0I   19   0.134   0.105  -0.104
    1UNK    H0J   20   0.138   0.008   0.045
    1UNK    H0K   21   0.139   0.188   0.053
    1UNK    H0M   22  -0.406   0.131   0.215
    1UNK    H0N   23  -0.260   0.161   0.310
    1UNK    H0O   24  -0.209  -0.088   0.296
    1UNK    H0P   25  -0.358  -0.113   0.208
    1UNK    H0Q   26  -0.490  -0.025   0.401
    1UNK    H0R   27  -0.343   0.004   0.492
    1UNK    H0S   28  -0.452  -0.263   0.394
    1UNK    H0T   29  -0.455  -0.206   0.560
    1UNK    H0U   30  -0.201  -0.276   0.402
    1UNK    H0V   31  -0.232  -0.193   0.695
    1UNK    H0W   32  -0.156  -0.096   0.568
    1UNK    H0X   33  -0.082  -0.247   0.618
    1UNK    H0Y   34  -0.339  -0.423   0.631
    1UNK    H0Z   35  -0.179  -0.460   0.567
    1UNK    H10   36  -0.274  -0.506   0.342
    1UNK    H11   37  -0.435  -0.470   0.397
    1UNK    H12   38  -0.405  -0.709   0.386
    1UNK    H13   39  -0.171  -0.686   0.582
    1UNK    H14   40  -0.155  -0.702   0.406
    1UNK    H15   41  -0.228  -0.832   0.499
    1UNK    H16   42  -0.576  -0.507   0.556
    1UNK    H17   43  -0.646  -0.634   0.653
    1UNK    H18   44  -0.629  -0.659   0.478
    1UNK    H19   45  -0.369  -0.857   0.665
    1UNK    H1A   46  -0.501  -0.876   0.547
    1UNK    H1B   47  -0.533  -0.823   0.713
   1.00000   1.00000   1.00000

