LIGPARGEN GENERATED GRO FILE
   39
    1UNK    C00    1   0.100   0.100   0.000
    1UNK    C01    2  -0.051   0.100   0.000
    1UNK    O02    3  -0.111   0.100   0.108
    1UNK    C03    4  -0.131   0.100  -0.135
    1UNK    C04    5  -0.027   0.116  -0.251
    1UNK    C05    6  -0.197  -0.043  -0.153
    1UNK    C06    7  -0.287  -0.097  -0.039
    1UNK    C07    8  -0.268  -0.064  -0.289
    1UNK    C08    9  -0.399   0.013  -0.311
    1UNK    C09   10  -0.390   0.162  -0.346
    1UNK    C0A   11  -0.384   0.178  -0.499
    1UNK    C0B   12  -0.280   0.246  -0.281
    1UNK    O0C   13  -0.230   0.340  -0.345
    1UNK    C0D   14  -0.232   0.222  -0.137
    1UNK    C0E   15  -0.355   0.215  -0.044
    1UNK    C0F   16  -0.163   0.353  -0.092
    1UNK    O0G   17  -0.046   0.364  -0.058
    1UNK    H0H   18   0.136   0.092   0.103
    1UNK    H0I   19   0.139   0.194  -0.041
    1UNK    H0J   20   0.139   0.014  -0.056
    1UNK    H0K   21   0.042   0.031  -0.254
    1UNK    H0M   22   0.033   0.207  -0.241
    1UNK    H0N   23  -0.073   0.120  -0.350
    1UNK    H0O   24  -0.113  -0.113  -0.154
    1UNK    H0P   25  -0.386  -0.051  -0.035
    1UNK    H0Q   26  -0.241  -0.086   0.059
    1UNK    H0R   27  -0.303  -0.204  -0.054
    1UNK    H0S   28  -0.293  -0.171  -0.296
    1UNK    H0T   29  -0.200  -0.046  -0.373
    1UNK    H0U   30  -0.465  -0.001  -0.226
    1UNK    H0V   31  -0.452  -0.039  -0.393
    1UNK    H0W   32  -0.484   0.208  -0.314
    1UNK    H0X   33  -0.292   0.134  -0.539
    1UNK    H0Y   34  -0.385   0.284  -0.528
    1UNK    H0Z   35  -0.470   0.130  -0.547
    1UNK    H10   36  -0.432   0.147  -0.079
    1UNK    H11   37  -0.405   0.312  -0.037
    1UNK    H12   38  -0.328   0.186   0.058
    1UNK    H13   39  -0.228   0.443  -0.091
   1.00000   1.00000   1.00000

