
;
; GENERATED BY LigParGen Server
; Jorgensen Lab @ Yale University 
;
[ atomtypes ]
  opls_818  H818     1.0080     0.000    A    2.42000E-01   1.25520E-01
  opls_804  C804    12.0110     0.000    A    3.55000E-01   2.92880E-01
  opls_806  C806    12.0110     0.000    A    3.50000E-01   3.34720E-01
  opls_810  N810    14.0070     0.000    A    3.25000E-01   7.11280E-01
  opls_814  H814     1.0080     0.000    A    2.50000E-01   1.25520E-01
  opls_817  H817     1.0080     0.000    A    2.42000E-01   1.25520E-01
  opls_807  C807    12.0110     0.000    A    3.50000E-01   3.34720E-01
  opls_805  C805    12.0110     0.000    A    3.55000E-01   2.92880E-01
  opls_812  O812    15.9990     0.000    A    2.96000E-01   8.78640E-01
  opls_816  H816     1.0080     0.000    A    2.50000E-01   1.25520E-01
  opls_802  C802    12.0110     0.000    A    3.55000E-01   2.92880E-01
  opls_811  C811    12.0110     0.000    A    3.55000E-01   2.92880E-01
  opls_801  C801    12.0110     0.000    A    3.55000E-01   3.17984E-01
  opls_815  H815     1.0080     0.000    A    2.50000E-01   1.25520E-01
  opls_813  O813    15.9990     0.000    A    3.12000E-01   7.11280E-01
  opls_803  C803    12.0110     0.000    A    3.55000E-01   2.92880E-01
  opls_819  H819     1.0080     0.000    A    2.42000E-01   1.25520E-01
  opls_809  S809    32.0600     0.000    A    3.60000E-01   1.48532E+00
  opls_820  H820     1.0080     0.000    A    0.00000E+00   0.00000E+00
  opls_821  H821     1.0080     0.000    A    0.00000E+00   0.00000E+00
  opls_800  C800    12.0110     0.000    A    3.55000E-01   3.17984E-01
  opls_808  N808    14.0070     0.000    A    3.30000E-01   7.11280E-01
[ moleculetype ]
; Name               nrexcl
UNK                   3
[ atoms ]
;   nr       type  resnr residue  atom   cgnr     charge       mass  
     1   opls_800      1    UNK   C00      1    -0.2352    12.0110 
     2   opls_801      1    UNK   C01      1     -0.152    12.0110 
     3   opls_802      1    UNK   C02      1    -0.0345    12.0110 
     4   opls_803      1    UNK   C03      1    -0.1193    12.0110 
     5   opls_804      1    UNK   C04      1     -0.129    12.0110 
     6   opls_805      1    UNK   C05      1    -0.1007    12.0110 
     7   opls_806      1    UNK   C06      1     0.2513    12.0110 
     8   opls_807      1    UNK   C07      1      0.152    12.0110 
     9   opls_808      1    UNK   N08      1    -0.8282    14.0070 
    10   opls_809      1    UNK   S09      1      0.402    32.0600 
    11   opls_810      1    UNK   N0A      1    -0.9921    14.0070 
    12   opls_811      1    UNK   C0B      1     0.8462    12.0110 
    13   opls_812      1    UNK   O0C      1    -0.4437    15.9990 
    14   opls_813      1    UNK   O0D      1    -0.4824    15.9990 
    15   opls_814      1    UNK   H0E      1     0.1358     1.0080 
    16   opls_815      1    UNK   H0F      1     0.1358     1.0080 
    17   opls_816      1    UNK   H0G      1     0.1617     1.0080 
    18   opls_817      1    UNK   H0H      1     0.1534     1.0080 
    19   opls_818      1    UNK   H0I      1     0.1543     1.0080 
    20   opls_819      1    UNK   H0J      1     0.1878     1.0080 
    21   opls_820      1    UNK   H0K      1     0.4916     1.0080 
    22   opls_821      1    UNK   H0M      1     0.4452     1.0080 
[ bonds ]
    2     1     1      0.1340 459403.200
    3     2     1      0.1433 357313.600
    4     3     1      0.1400 392459.200
    5     4     1      0.1400 392459.200
    6     5     1      0.1400 392459.200
    7     6     1      0.1404 392459.200
    8     3     1      0.1404 392459.200
    9     8     1      0.1510 265265.600
   10     9     1      0.1810 185769.600
   11     7     1      0.1374 364844.800
   12    11     1      0.1388 349782.400
   13    12     1      0.1229 476976.000
   14    12     1      0.1364 376560.000
   15     1     1      0.1080 284512.000
   16     1     1      0.1080 284512.000
   17     2     1      0.1080 284512.000
   18     4     1      0.1080 307105.600
   19     5     1      0.1080 307105.600
   20     6     1      0.1080 307105.600
   21     9     1      0.1010 363171.200
   22    14     1      0.0945 462750.400
    8     7     1      0.1370 435136.000
   11    10     1      0.1700 214086.912

[ angles ]
;  ai    aj    ak funct            c0            c1            c2            c3 
    1     2     3     1    117.000    711.280
    2     3     4     1    124.000    585.760
    3     4     5     1    120.000    527.184
    4     5     6     1    120.000    527.184
    5     6     7     1    120.000    527.184
    2     3     8     1    124.000    585.760
    3     8     9     1    120.000    585.760
    8     9    10     1    114.700    418.400
    6     7    11     1    108.700    585.760
    7    11    12     1    125.200    585.760
   11    12    13     1    120.600    669.440
   11    12    14     1    118.180    584.923
    2     1    15     1    120.000    292.880
    2     1    16     1    120.000    292.880
    1     2    17     1    120.000    292.880
    3     4    18     1    120.000    292.880
    4     5    19     1    120.000    292.880
    5     6    20     1    120.000    292.880
    8     9    21     1    116.000    292.880
   12    14    22     1    113.000    292.880
    3     8     7     1    117.300    711.280
   13    12    14     1    121.000    669.440
    6     5    19     1    120.000    292.880
    3     2    17     1    123.300    292.880
    4     3     8     1    120.000    527.184
    6     7     8     1    117.300    711.280
    8     7    11     1    106.200    585.760
   15     1    16     1    117.000    292.880
   10    11    12     1    112.400    527.184
   10     9    21     1    109.020    383.673
    9    10    11     1    112.400    527.184
    7    11    10     1    112.400    527.184
    5     4    18     1    120.000    292.880
    7     8     9     1    120.000    585.760
    7     6    20     1    120.000    292.880

[ dihedrals ]
; IMPROPER DIHEDRAL ANGLES 
;  ai    aj    ak    al funct            c0            c1            c2            c3            c4            c5
     8     3     2     4    4        180.000     10.460     2  
    19     5     4     6    4        180.000     10.460     2  
    18     4     3     5    4        180.000     10.460     2  
    20     6     5     7    4        180.000     10.460     2  
    17     2     1     3    4        180.000     10.460     2  
    16     1     2    15    4        180.000     10.460     2  
    11     7     6     8    4        180.000     10.460     2  
     9     8     3     7    4        180.000     10.460     2  
    14    12    11    13    4        180.000     43.932     2  

[ dihedrals ]
; PROPER DIHEDRAL ANGLES
;  ai    aj    ak    al funct            c0            c1            c2            c3            c4            c5
   12   11    7    6        3      30.334   0.000  -30.334  -0.000  -0.000   0.000
   12   11    7    8        3      30.334   0.000  -30.334  -0.000  -0.000   0.000
   12   11   10    9        3      30.334   0.000  -30.334  -0.000  -0.000   0.000
    4    3    2    1        3      16.027  -4.391  -14.029   2.393  -0.000   0.000
    5    4    3    2        3      30.334   0.000  -30.334  -0.000  -0.000   0.000
    6    5    4    3        3      30.334   0.000  -30.334  -0.000  -0.000   0.000
    6    7    8    3        3      30.334   0.000  -30.334  -0.000  -0.000   0.000
    8    3    2    1        3      16.027  -4.391  -14.029   2.393  -0.000   0.000
    7    6    5    4        3      30.334   0.000  -30.334  -0.000  -0.000   0.000
    8    3    4    5        3      30.334   0.000  -30.334  -0.000  -0.000   0.000
    7    8    3    2        3      29.288   0.000  -29.288  -0.000  -0.000   0.000
    7    8    3    4        3      29.288   0.000  -29.288  -0.000  -0.000   0.000
    8    7    6    5        3      29.288   0.000  -29.288  -0.000  -0.000   0.000
   21    9    8    3        3       8.494   0.000  -8.494  -0.000  -0.000   0.000
   21    9    8    7        3      -1.268   3.021   1.745  -3.498  -0.000   0.000
   21    9   10   11        3       8.494   0.000  -8.494  -0.000  -0.000   0.000
   18    4    3    2        3      30.334   0.000  -30.334  -0.000  -0.000   0.000
   20    6    5    4        3      30.334   0.000  -30.334  -0.000  -0.000   0.000
   19    5    4    3        3      30.334   0.000  -30.334  -0.000  -0.000   0.000
   18    4    5    6        3      30.334   0.000  -30.334  -0.000  -0.000   0.000
   19    5    6    7        3      30.334   0.000  -30.334  -0.000  -0.000   0.000
   18    4    3    8        3      30.334   0.000  -30.334  -0.000  -0.000   0.000
   20    6    5   19        3      30.334   0.000  -30.334  -0.000  -0.000   0.000
   19    5    4   18        3      30.334   0.000  -30.334  -0.000  -0.000   0.000
   20    6    7    8        3      30.334   0.000  -30.334  -0.000  -0.000   0.000
   20    6    7   11        3      30.334   0.000  -30.334  -0.000  -0.000   0.000
   17    2    3    4        3      -0.778  -2.335   0.000   3.113  -0.000   0.000
   17    2    3    8        3      -0.778  -2.335   0.000   3.113  -0.000   0.000
   17    2    1   15        3      58.576   0.000  -58.576  -0.000  -0.000   0.000
   17    2    1   16        3      58.576   0.000  -58.576  -0.000  -0.000   0.000
   15    1    2    3        3      58.576   0.000  -58.576  -0.000  -0.000   0.000
   16    1    2    3        3      58.576   0.000  -58.576  -0.000  -0.000   0.000
   22   14   12   11        3      16.736   4.184  -20.920  -0.000  -0.000   0.000
   22   14   12   13        3      23.012   0.000  -23.012  -0.000  -0.000   0.000
   11    7    6    5        3      29.288   0.000  -29.288  -0.000  -0.000   0.000
   11    7    8    3        3      30.334   0.000  -30.334  -0.000  -0.000   0.000
   11    7    8    9        3      30.334   0.000  -30.334  -0.000  -0.000   0.000
   11   10    9    8        3      30.334   0.000  -30.334  -0.000  -0.000   0.000
    9    8    3    2        3      29.288   0.000  -29.288  -0.000  -0.000   0.000
    9    8    3    4        3      29.288   0.000  -29.288  -0.000  -0.000   0.000
    9    8    7    6        3      30.334   0.000  -30.334  -0.000  -0.000   0.000
    9   10   11    7        3      30.334   0.000  -30.334  -0.000  -0.000   0.000
   13   12   11    7        3      20.502   0.000  -20.502  -0.000  -0.000   0.000
   13   12   11   10        3      25.476   0.000  -25.476  -0.000  -0.000   0.000
   14   12   11    7        3      30.288  -4.812  -25.476  -0.000  -0.000   0.000
   14   12   11   10        3      25.476   0.000  -25.476  -0.000  -0.000   0.000
   10   11    7    6        3      30.334   0.000  -30.334  -0.000  -0.000   0.000
   10   11    7    8        3      30.334   0.000  -30.334  -0.000  -0.000   0.000
   10    9    8    3        3      30.334   0.000  -30.334  -0.000  -0.000   0.000
   10    9    8    7        3      30.334   0.000  -30.334  -0.000  -0.000   0.000

[ pairs ]
     1     4    1
     2     5    1
     3     6    1
     2     7    1
     1     8    1
     4     7    1
     2     9    1
     5     8    1
     4     9    1
     3    10    1
     3    11    1
     6     9    1
     6    10    1
     5    11    1
     6    12    1
     3    15    1
     3    16    1
     8    12    1
     7    13    1
     2    18    1
     9    12    1
     7    14    1
     4    17    1
     3    19    1
    10    13    1
    10    14    1
     6    18    1
     4    20    1
     3    21    1
     8    17    1
     8    18    1
     7    19    1
     8    20    1
     7    21    1
    11    20    1
    15    17    1
    11    21    1
    16    17    1
    11    22    1
    13    22    1
    18    19    1
    19    20    1

