LIGPARGEN GENERATED GRO FILE
   22
    1UNK    C00    1   0.100   0.100   0.000
    1UNK    C01    2  -0.034   0.100   0.000
    1UNK    C02    3  -0.110   0.100   0.125
    1UNK    C03    4  -0.144   0.221   0.186
    1UNK    C04    5  -0.211   0.224   0.309
    1UNK    C05    6  -0.246   0.105   0.373
    1UNK    C06    7  -0.213  -0.016   0.314
    1UNK    C07    8  -0.145  -0.019   0.189
    1UNK    N08    9  -0.127  -0.149   0.135
    1UNK    S09   10  -0.171  -0.260   0.252
    1UNK    N0A   11  -0.235  -0.147   0.364
    1UNK    C0B   12  -0.292  -0.180   0.485
    1UNK    O0C   13  -0.335  -0.102   0.570
    1UNK    O0D   14  -0.300  -0.314   0.506
    1UNK    H0E   15   0.155   0.100  -0.094
    1UNK    H0F   16   0.158   0.100   0.092
    1UNK    H0G   17  -0.091   0.100  -0.092
    1UNK    H0H   18  -0.118   0.316   0.138
    1UNK    H0I   19  -0.236   0.319   0.355
    1UNK    H0J   20  -0.299   0.109   0.468
    1UNK    H0K   21  -0.040  -0.158   0.084
    1UNK    H0M   22  -0.261  -0.358   0.428
   1.00000   1.00000   1.00000

