
;
; GENERATED BY LigParGen Server
; Jorgensen Lab @ Yale University 
;
[ atomtypes ]
  opls_818  H818     1.0080     0.000    A    2.50000E-01   1.25520E-01
  opls_824  H824     1.0080     0.000    A    2.50000E-01   1.25520E-01
  opls_805  C805    12.0110     0.000    A    3.50000E-01   2.76144E-01
  opls_833  H833     1.0080     0.000    A    2.50000E-01   1.25520E-01
  opls_828  H828     1.0080     0.000    A    2.50000E-01   1.25520E-01
  opls_813  H813     1.0080     0.000    A    2.50000E-01   1.25520E-01
  opls_832  H832     1.0080     0.000    A    2.50000E-01   1.25520E-01
  opls_802  C802    12.0110     0.000    A    3.50000E-01   2.76144E-01
  opls_815  H815     1.0080     0.000    A    2.50000E-01   1.25520E-01
  opls_809  C809    12.0110     0.000    A    3.50000E-01   2.76144E-01
  opls_806  C806    12.0110     0.000    A    3.50000E-01   2.76144E-01
  opls_822  H822     1.0080     0.000    A    2.50000E-01   1.25520E-01
  opls_803  C803    12.0110     0.000    A    3.50000E-01   2.76144E-01
  opls_825  H825     1.0080     0.000    A    2.50000E-01   1.25520E-01
  opls_814  H814     1.0080     0.000    A    2.50000E-01   1.25520E-01
  opls_821  H821     1.0080     0.000    A    2.50000E-01   1.25520E-01
  opls_820  H820     1.0080     0.000    A    2.50000E-01   1.25520E-01
  opls_829  H829     1.0080     0.000    A    2.50000E-01   1.25520E-01
  opls_834  H834     1.0080     0.000    A    2.50000E-01   1.25520E-01
  opls_831  H831     1.0080     0.000    A    2.50000E-01   1.25520E-01
  opls_816  H816     1.0080     0.000    A    2.50000E-01   1.25520E-01
  opls_800  C800    12.0110     0.000    A    3.50000E-01   2.76144E-01
  opls_811  C811    12.0110     0.000    A    3.50000E-01   2.76144E-01
  opls_823  H823     1.0080     0.000    A    2.50000E-01   1.25520E-01
  opls_826  H826     1.0080     0.000    A    2.50000E-01   1.25520E-01
  opls_835  H835     1.0080     0.000    A    2.50000E-01   1.25520E-01
  opls_819  H819     1.0080     0.000    A    2.50000E-01   1.25520E-01
  opls_804  C804    12.0110     0.000    A    3.50000E-01   2.76144E-01
  opls_827  H827     1.0080     0.000    A    2.50000E-01   1.25520E-01
  opls_801  C801    12.0110     0.000    A    3.50000E-01   2.76144E-01
  opls_808  C808    12.0110     0.000    A    3.50000E-01   2.76144E-01
  opls_817  H817     1.0080     0.000    A    2.50000E-01   1.25520E-01
  opls_812  H812     1.0080     0.000    A    2.50000E-01   1.25520E-01
  opls_830  H830     1.0080     0.000    A    2.50000E-01   1.25520E-01
  opls_810  S810    32.0600     0.000    A    3.60000E-01   1.48532E+00
  opls_807  C807    12.0110     0.000    A    3.50000E-01   2.76144E-01
[ moleculetype ]
; Name               nrexcl
UNK                   3
[ atoms ]
;   nr       type  resnr residue  atom   cgnr     charge       mass  
     1   opls_800      1    UNK   C00      1    -0.2409    12.0110 
     2   opls_801      1    UNK   C01      1    -0.1781    12.0110 
     3   opls_802      1    UNK   C02      1    -0.1708    12.0110 
     4   opls_803      1    UNK   C03      1    -0.0862    12.0110 
     5   opls_804      1    UNK   C04      1    -0.1752    12.0110 
     6   opls_805      1    UNK   C05      1    -0.2358    12.0110 
     7   opls_806      1    UNK   C06      1    -0.0234    12.0110 
     8   opls_807      1    UNK   C07      1    -0.2348    12.0110 
     9   opls_808      1    UNK   C08      1     -0.235    12.0110 
    10   opls_809      1    UNK   C09      1    -0.0755    12.0110 
    11   opls_810      1    UNK   S0A      1    -0.3724    32.0600 
    12   opls_811      1    UNK   C0B      1    -0.1574    12.0110 
    13   opls_812      1    UNK   H0C      1     0.0797     1.0080 
    14   opls_813      1    UNK   H0D      1     0.0797     1.0080 
    15   opls_814      1    UNK   H0E      1     0.0797     1.0080 
    16   opls_815      1    UNK   H0F      1     0.0918     1.0080 
    17   opls_816      1    UNK   H0G      1     0.0918     1.0080 
    18   opls_817      1    UNK   H0H      1     0.0862     1.0080 
    19   opls_818      1    UNK   H0I      1     0.0862     1.0080 
    20   opls_819      1    UNK   H0J      1     0.1107     1.0080 
    21   opls_820      1    UNK   H0K      1     0.0861     1.0080 
    22   opls_821      1    UNK   H0M      1     0.0861     1.0080 
    23   opls_822      1    UNK   H0N      1     0.0811     1.0080 
    24   opls_823      1    UNK   H0O      1     0.0811     1.0080 
    25   opls_824      1    UNK   H0P      1     0.0811     1.0080 
    26   opls_825      1    UNK   H0Q      1     0.0877     1.0080 
    27   opls_826      1    UNK   H0R      1     0.0877     1.0080 
    28   opls_827      1    UNK   H0S      1     0.0877     1.0080 
    29   opls_828      1    UNK   H0T      1     0.0841     1.0080 
    30   opls_829      1    UNK   H0U      1     0.0841     1.0080 
    31   opls_830      1    UNK   H0V      1     0.0841     1.0080 
    32   opls_831      1    UNK   H0W      1     0.1061     1.0080 
    33   opls_832      1    UNK   H0X      2     0.1061     1.0080 
    34   opls_833      1    UNK   H0Y      2     0.1123     1.0080 
    35   opls_834      1    UNK   H0Z      2     0.1123     1.0080 
    36   opls_835      1    UNK   H10      2     0.1123     1.0080 
[ bonds ]
    2     1     1      0.1529 224262.400
    3     2     1      0.1529 224262.400
    4     3     1      0.1529 224262.400
    5     4     1      0.1529 224262.400
    6     5     1      0.1529 224262.400
    7     4     1      0.1529 224262.400
    8     7     1      0.1529 224262.400
    9     7     1      0.1529 224262.400
   10     7     1      0.1529 224262.400
   11    10     1      0.1810 185769.600
   12    11     1      0.1810 185769.600
   13     1     1      0.1090 284512.000
   14     1     1      0.1090 284512.000
   15     1     1      0.1090 284512.000
   16     2     1      0.1090 284512.000
   17     2     1      0.1090 284512.000
   18     3     1      0.1090 284512.000
   19     3     1      0.1090 284512.000
   20     4     1      0.1090 284512.000
   21     5     1      0.1090 284512.000
   22     5     1      0.1090 284512.000
   23     6     1      0.1090 284512.000
   24     6     1      0.1090 284512.000
   25     6     1      0.1090 284512.000
   26     8     1      0.1090 284512.000
   27     8     1      0.1090 284512.000
   28     8     1      0.1090 284512.000
   29     9     1      0.1090 284512.000
   30     9     1      0.1090 284512.000
   31     9     1      0.1090 284512.000
   32    10     1      0.1090 284512.000
   33    10     1      0.1090 284512.000
   34    12     1      0.1090 284512.000
   35    12     1      0.1090 284512.000
   36    12     1      0.1090 284512.000

[ angles ]
;  ai    aj    ak funct            c0            c1            c2            c3 
    1     2     3     1    112.700    488.273
    2     3     4     1    112.700    488.273
    3     4     5     1    112.700    488.273
    4     5     6     1    112.700    488.273
    3     4     7     1    112.700    488.273
    4     7     8     1    112.700    488.273
    4     7     9     1    112.700    488.273
    4     7    10     1    112.700    488.273
    7    10    11     1    114.700    418.400
   10    11    12     1     98.900    518.816
    2     1    13     1    110.700    313.800
    2     1    14     1    110.700    313.800
    2     1    15     1    110.700    313.800
    1     2    16     1    110.700    313.800
    1     2    17     1    110.700    313.800
    2     3    18     1    110.700    313.800
    2     3    19     1    110.700    313.800
    3     4    20     1    110.700    313.800
    4     5    21     1    110.700    313.800
    4     5    22     1    110.700    313.800
    5     6    23     1    110.700    313.800
    5     6    24     1    110.700    313.800
    5     6    25     1    110.700    313.800
    7     8    26     1    110.700    313.800
    7     8    27     1    110.700    313.800
    7     8    28     1    110.700    313.800
    7     9    29     1    110.700    313.800
    7     9    30     1    110.700    313.800
    7     9    31     1    110.700    313.800
    7    10    32     1    110.700    313.800
    7    10    33     1    110.700    313.800
   11    12    34     1    109.500    292.880
   11    12    35     1    109.500    292.880
   11    12    36     1    109.500    292.880
    9     7    10     1    112.700    488.273
    8     7     9     1    112.700    488.273
   29     9    30     1    107.800    276.144
   26     8    28     1    107.800    276.144
   11    10    33     1    109.500    292.880
   26     8    27     1    107.800    276.144
    5     4     7     1    112.700    488.273
   30     9    31     1    107.800    276.144
   21     5    22     1    107.800    276.144
    6     5    22     1    110.700    313.800
   29     9    31     1    107.800    276.144
    3     2    17     1    110.700    313.800
   32    10    33     1    107.800    276.144
    4     3    19     1    110.700    313.800
   11    10    32     1    109.500    292.880
    7     4    20     1    110.700    313.800
   34    12    36     1    107.800    276.144
    3     2    16     1    110.700    313.800
   35    12    36     1    107.800    276.144
   27     8    28     1    107.800    276.144
   18     3    19     1    107.800    276.144
    4     3    18     1    110.700    313.800
   16     2    17     1    107.800    276.144
   13     1    14     1    107.800    276.144
   14     1    15     1    107.800    276.144
   13     1    15     1    107.800    276.144
   23     6    24     1    107.800    276.144
    6     5    21     1    110.700    313.800
    5     4    20     1    110.700    313.800
   24     6    25     1    107.800    276.144
   23     6    25     1    107.800    276.144
   34    12    35     1    107.800    276.144
    8     7    10     1    112.700    488.273

[ dihedrals ]
; IMPROPER DIHEDRAL ANGLES 
;  ai    aj    ak    al funct            c0            c1            c2            c3            c4            c5

[ dihedrals ]
; PROPER DIHEDRAL ANGLES
;  ai    aj    ak    al funct            c0            c1            c2            c3            c4            c5
    4    3    2    1        3       2.301  -1.464   0.837  -1.674  -0.000   0.000
    8    7    4    5        3       2.301  -1.464   0.837  -1.674  -0.000   0.000
    9    7    4    5        3       2.301  -1.464   0.837  -1.674  -0.000   0.000
   10    7    4    5        3       2.301  -1.464   0.837  -1.674  -0.000   0.000
    9    7    4    3        3       2.301  -1.464   0.837  -1.674  -0.000   0.000
   10    7    4    3        3       2.301  -1.464   0.837  -1.674  -0.000   0.000
    7    4    5    6        3       2.301  -1.464   0.837  -1.674  -0.000   0.000
    8    7    4    3        3       2.301  -1.464   0.837  -1.674  -0.000   0.000
    6    5    4    3        3       2.301  -1.464   0.837  -1.674  -0.000   0.000
    5    4    3    2        3       2.301  -1.464   0.837  -1.674  -0.000   0.000
    7    4    3    2        3       2.301  -1.464   0.837  -1.674  -0.000   0.000
   12   11   10    7        3       0.941   2.314   2.410  -5.665  -0.000   0.000
   20    4    5    6        3       0.628   1.883   0.000  -2.510  -0.000   0.000
   32   10    7    8        3       0.628   1.883   0.000  -2.510  -0.000   0.000
   18    3    2    1        3       0.628   1.883   0.000  -2.510  -0.000   0.000
   18    3    4    7        3       0.628   1.883   0.000  -2.510  -0.000   0.000
   30    9    7    8        3       0.628   1.883   0.000  -2.510  -0.000   0.000
   27    8    7    9        3       0.628   1.883   0.000  -2.510  -0.000   0.000
   33   10    7    9        3       0.628   1.883   0.000  -2.510  -0.000   0.000
   22    5    4    7        3       0.628   1.883   0.000  -2.510  -0.000   0.000
   19    3    2    1        3       0.628   1.883   0.000  -2.510  -0.000   0.000
   26    8    7   10        3       0.628   1.883   0.000  -2.510  -0.000   0.000
   17    2    3    4        3       0.628   1.883   0.000  -2.510  -0.000   0.000
   32   10    7    4        3       0.628   1.883   0.000  -2.510  -0.000   0.000
   22    5    4    3        3       0.628   1.883   0.000  -2.510  -0.000   0.000
   18    3    4    5        3       0.628   1.883   0.000  -2.510  -0.000   0.000
   31    9    7    8        3       0.628   1.883   0.000  -2.510  -0.000   0.000
   19    3    4    7        3       0.628   1.883   0.000  -2.510  -0.000   0.000
   21    5    4    7        3       0.628   1.883   0.000  -2.510  -0.000   0.000
   14    1    2    3        3       0.628   1.883   0.000  -2.510  -0.000   0.000
   19    3    4    5        3       0.628   1.883   0.000  -2.510  -0.000   0.000
   26    8    7    9        3       0.628   1.883   0.000  -2.510  -0.000   0.000
   29    9    7   10        3       0.628   1.883   0.000  -2.510  -0.000   0.000
   28    8    7    4        3       0.628   1.883   0.000  -2.510  -0.000   0.000
   33   10    7    4        3       0.628   1.883   0.000  -2.510  -0.000   0.000
   25    6    5    4        3       0.628   1.883   0.000  -2.510  -0.000   0.000
   31    9    7   10        3       0.628   1.883   0.000  -2.510  -0.000   0.000
   15    1    2    3        3       0.628   1.883   0.000  -2.510  -0.000   0.000
   20    4    7    9        3       0.628   1.883   0.000  -2.510  -0.000   0.000
   31    9    7    4        3       0.628   1.883   0.000  -2.510  -0.000   0.000
   30    9    7   10        3       0.628   1.883   0.000  -2.510  -0.000   0.000
   20    4    3    2        3       0.628   1.883   0.000  -2.510  -0.000   0.000
   28    8    7   10        3       0.628   1.883   0.000  -2.510  -0.000   0.000
   24    6    5    4        3       0.628   1.883   0.000  -2.510  -0.000   0.000
   27    8    7    4        3       0.628   1.883   0.000  -2.510  -0.000   0.000
   16    2    3    4        3       0.628   1.883   0.000  -2.510  -0.000   0.000
   29    9    7    8        3       0.628   1.883   0.000  -2.510  -0.000   0.000
   29    9    7    4        3       0.628   1.883   0.000  -2.510  -0.000   0.000
   33   10    7    8        3       0.628   1.883   0.000  -2.510  -0.000   0.000
   32   10    7    9        3       0.628   1.883   0.000  -2.510  -0.000   0.000
   28    8    7    9        3       0.628   1.883   0.000  -2.510  -0.000   0.000
   23    6    5    4        3       0.628   1.883   0.000  -2.510  -0.000   0.000
   20    4    7    8        3       0.628   1.883   0.000  -2.510  -0.000   0.000
   20    4    7   10        3       0.628   1.883   0.000  -2.510  -0.000   0.000
   26    8    7    4        3       0.628   1.883   0.000  -2.510  -0.000   0.000
   30    9    7    4        3       0.628   1.883   0.000  -2.510  -0.000   0.000
   21    5    4    3        3       0.628   1.883   0.000  -2.510  -0.000   0.000
   13    1    2    3        3       0.628   1.883   0.000  -2.510  -0.000   0.000
   27    8    7   10        3       0.628   1.883   0.000  -2.510  -0.000   0.000
   25    6    5   22        3       0.628   1.883   0.000  -2.510  -0.000   0.000
   19    3    2   16        3       0.628   1.883   0.000  -2.510  -0.000   0.000
   24    6    5   21        3       0.628   1.883   0.000  -2.510  -0.000   0.000
   16    2    1   13        3       0.628   1.883   0.000  -2.510  -0.000   0.000
   19    3    2   17        3       0.628   1.883   0.000  -2.510  -0.000   0.000
   20    4    3   19        3       0.628   1.883   0.000  -2.510  -0.000   0.000
   23    6    5   22        3       0.628   1.883   0.000  -2.510  -0.000   0.000
   22    5    4   20        3       0.628   1.883   0.000  -2.510  -0.000   0.000
   18    3    2   17        3       0.628   1.883   0.000  -2.510  -0.000   0.000
   16    2    1   15        3       0.628   1.883   0.000  -2.510  -0.000   0.000
   20    4    3   18        3       0.628   1.883   0.000  -2.510  -0.000   0.000
   24    6    5   22        3       0.628   1.883   0.000  -2.510  -0.000   0.000
   21    5    4   20        3       0.628   1.883   0.000  -2.510  -0.000   0.000
   23    6    5   21        3       0.628   1.883   0.000  -2.510  -0.000   0.000
   17    2    1   13        3       0.628   1.883   0.000  -2.510  -0.000   0.000
   16    2    1   14        3       0.628   1.883   0.000  -2.510  -0.000   0.000
   17    2    1   14        3       0.628   1.883   0.000  -2.510  -0.000   0.000
   18    3    2   16        3       0.628   1.883   0.000  -2.510  -0.000   0.000
   17    2    1   15        3       0.628   1.883   0.000  -2.510  -0.000   0.000
   25    6    5   21        3       0.628   1.883   0.000  -2.510  -0.000   0.000
   33   10   11   12        3       1.354   4.061   0.000  -5.414  -0.000   0.000
   34   12   11   10        3       1.354   4.061   0.000  -5.414  -0.000   0.000
   32   10   11   12        3       1.354   4.061   0.000  -5.414  -0.000   0.000
   35   12   11   10        3       1.354   4.061   0.000  -5.414  -0.000   0.000
   36   12   11   10        3       1.354   4.061   0.000  -5.414  -0.000   0.000
   11   10    7    8        3       3.425  -3.860   2.594  -2.159  -0.000   0.000
   11   10    7    4        3       3.425  -3.860   2.594  -2.159  -0.000   0.000
   11   10    7    9        3       3.425  -3.860   2.594  -2.159  -0.000   0.000

[ pairs ]
     1     4    1
     2     5    1
     3     6    1
     2     7    1
     3     8    1
     3     9    1
     6     7    1
     5     8    1
     3    10    1
     5     9    1
     5    10    1
     4    11    1
     3    13    1
     3    14    1
     3    15    1
     8    11    1
     7    12    1
     1    18    1
     9    11    1
     4    16    1
     1    19    1
     4    17    1
     2    20    1
     5    18    1
     5    19    1
     3    21    1
     7    18    1
     3    22    1
     7    19    1
     6    20    1
     4    23    1
     8    20    1
     7    21    1
     4    24    1
    13    16    1
     9    20    1
     7    22    1
     4    25    1
    14    16    1
    13    17    1
    10    20    1
     4    26    1
    15    16    1
    14    17    1
     4    27    1
    15    17    1
     4    28    1
     4    29    1
    16    18    1
     4    30    1
    17    18    1
    16    19    1
     9    26    1
     4    31    1
    17    19    1
    10    26    1
     9    27    1
     4    32    1
    10    27    1
     9    28    1
     8    29    1
     4    33    1
    18    20    1
    10    28    1
     8    30    1
    19    20    1
    10    29    1
     8    31    1
    10    30    1
     8    32    1
    20    21    1
    10    31    1
     9    32    1
     8    33    1
    20    22    1
     9    33    1
    21    23    1
    12    32    1
    10    34    1
    22    23    1
    21    24    1
    12    33    1
    10    35    1
    22    24    1
    21    25    1
    10    36    1
    22    25    1

