LIGPARGEN GENERATED GRO FILE
   36
    1UNK    C00    1   0.100   0.100   0.000
    1UNK    C01    2  -0.053   0.100   0.000
    1UNK    C02    3  -0.107   0.100   0.143
    1UNK    C03    4  -0.262   0.113   0.160
    1UNK    C04    5  -0.340  -0.011   0.106
    1UNK    C05    6  -0.333  -0.037  -0.044
    1UNK    C06    7  -0.300   0.143   0.313
    1UNK    C07    8  -0.453   0.155   0.333
    1UNK    C08    9  -0.253   0.027   0.405
    1UNK    C09   10  -0.234   0.273   0.369
    1UNK    S0A   11  -0.274   0.426   0.277
    1UNK    C0B   12  -0.185   0.545   0.380
    1UNK    H0C   13   0.138   0.092  -0.102
    1UNK    H0D   14   0.139   0.015   0.057
    1UNK    H0E   15   0.140   0.192   0.044
    1UNK    H0F   16  -0.083   0.010  -0.054
    1UNK    H0G   17  -0.089   0.187  -0.055
    1UNK    H0H   18  -0.059   0.184   0.193
    1UNK    H0I   19  -0.072   0.009   0.193
    1UNK    H0J   20  -0.295   0.198   0.100
    1UNK    H0K   21  -0.446   0.003   0.127
    1UNK    H0M   22  -0.309  -0.102   0.159
    1UNK    H0N   23  -0.326   0.055  -0.101
    1UNK    H0O   24  -0.424  -0.090  -0.076
    1UNK    H0P   25  -0.249  -0.103  -0.069
    1UNK    H0Q   26  -0.505   0.060   0.318
    1UNK    H0R   27  -0.497   0.229   0.265
    1UNK    H0S   28  -0.477   0.187   0.436
    1UNK    H0T   29  -0.300  -0.068   0.378
    1UNK    H0U   30  -0.281   0.047   0.510
    1UNK    H0V   31  -0.145   0.014   0.403
    1UNK    H0W   32  -0.125   0.263   0.372
    1UNK    H0X   33  -0.267   0.289   0.472
    1UNK    H0Y   34  -0.198   0.645   0.339
    1UNK    H0Z   35  -0.078   0.521   0.380
    1UNK    H10   36  -0.224   0.544   0.482
   1.00000   1.00000   1.00000

