LIGPARGEN GENERATED GRO FILE
   49
    1UNK    C00    1   0.100   0.100   0.000
    1UNK    C01    2  -0.052   0.100   0.000
    1UNK    C02    3  -0.107   0.100   0.143
    1UNK    C03    4  -0.261   0.100   0.150
    1UNK    C04    5  -0.328  -0.022   0.085
    1UNK    C05    6  -0.292  -0.160   0.143
    1UNK    C06    7  -0.290  -0.167   0.296
    1UNK    C07    8  -0.400  -0.250   0.081
    1UNK    C08    9  -0.360  -0.289  -0.061
    1UNK    C09   10  -0.531  -0.167   0.094
    1UNK    C0A   11  -0.651  -0.206   0.006
    1UNK    C0B   12  -0.679  -0.356  -0.007
    1UNK    C0C   13  -0.819  -0.360  -0.063
    1UNK    C0D   14  -0.893  -0.254   0.015
    1UNK    C0E   15  -0.786  -0.155   0.062
    1UNK    C0F   16  -0.484  -0.017   0.089
    1UNK    C0G   17  -0.536   0.068  -0.027
    1UNK    H0H   18   0.138   0.100  -0.103
    1UNK    H0I   19   0.139   0.011   0.051
    1UNK    H0J   20   0.139   0.189   0.051
    1UNK    H0K   21  -0.086   0.011  -0.055
    1UNK    H0M   22  -0.088   0.188  -0.054
    1UNK    H0N   23  -0.071   0.190   0.195
    1UNK    H0O   24  -0.067   0.014   0.197
    1UNK    H0P   25  -0.297   0.192   0.102
    1UNK    H0Q   26  -0.291   0.108   0.255
    1UNK    H0R   27  -0.299  -0.022  -0.020
    1UNK    H0S   28  -0.192  -0.189   0.109
    1UNK    H0T   29  -0.378  -0.120   0.341
    1UNK    H0U   30  -0.201  -0.119   0.336
    1UNK    H0V   31  -0.288  -0.272   0.329
    1UNK    H0W   32  -0.410  -0.343   0.139
    1UNK    H0X   33  -0.372  -0.207  -0.133
    1UNK    H0Y   34  -0.416  -0.374  -0.099
    1UNK    H0Z   35  -0.255  -0.320  -0.064
    1UNK    H10   36  -0.563  -0.182   0.198
    1UNK    H11   37  -0.638  -0.166  -0.095
    1UNK    H12   38  -0.674  -0.406   0.091
    1UNK    H13   39  -0.611  -0.407  -0.075
    1UNK    H14   40  -0.865  -0.459  -0.054
    1UNK    H15   41  -0.818  -0.334  -0.170
    1UNK    H16   42  -0.943  -0.299   0.102
    1UNK    H17   43  -0.971  -0.206  -0.045
    1UNK    H18   44  -0.786  -0.152   0.172
    1UNK    H19   45  -0.810  -0.054   0.027
    1UNK    H1A   46  -0.516   0.031   0.182
    1UNK    H1B   47  -0.513   0.023  -0.124
    1UNK    H1C   48  -0.491   0.168  -0.026
    1UNK    H1D   49  -0.644   0.082  -0.020
   1.00000   1.00000   1.00000

