LIGPARGEN GENERATED GRO FILE
   58
    1UNK    C00    1   0.100   0.100   0.000
    1UNK    C01    2  -0.052   0.100   0.000
    1UNK    C02    3  -0.121   0.100   0.140
    1UNK    C03    4  -0.080  -0.026   0.219
    1UNK    C04    5  -0.082   0.226   0.219
    1UNK    C05    6  -0.274   0.099   0.115
    1UNK    C06    7  -0.363   0.098   0.240
    1UNK    C07    8  -0.512   0.097   0.206
    1UNK    C08    9  -0.552  -0.028   0.128
    1UNK    C09   10  -0.701  -0.032   0.101
    1UNK    C0A   11  -0.734  -0.155   0.017
    1UNK    C0B   12  -0.883  -0.161  -0.012
    1UNK    C0C   13  -0.916  -0.284  -0.095
    1UNK    C0D   14  -1.065  -0.290  -0.124
    1UNK    C0E   15  -1.097  -0.414  -0.207
    1UNK    C0F   16  -1.246  -0.423  -0.237
    1UNK    C0G   17  -1.282  -0.547  -0.321
    1UNK    C0H   18  -1.246  -0.678  -0.251
    1UNK    C0I   19  -1.429  -0.540  -0.354
    1UNK    O0J   20  -1.511  -0.627  -0.324
    1UNK    H0K   21   0.137   0.100  -0.103
    1UNK    H0M   22   0.140   0.011   0.049
    1UNK    H0N   23   0.140   0.189   0.049
    1UNK    H0O   24  -0.086   0.012  -0.057
    1UNK    H0P   25  -0.086   0.188  -0.057
    1UNK    H0Q   26   0.028  -0.029   0.236
    1UNK    H0R   27  -0.108  -0.117   0.165
    1UNK    H0S   28  -0.127  -0.029   0.317
    1UNK    H0T   29   0.026   0.231   0.237
    1UNK    H0U   30  -0.129   0.228   0.318
    1UNK    H0V   31  -0.112   0.317   0.166
    1UNK    H0W   32  -0.296   0.010   0.054
    1UNK    H0X   33  -0.302   0.185   0.053
    1UNK    H0Y   34  -0.344   0.188   0.300
    1UNK    H0Z   35  -0.341   0.011   0.302
    1UNK    H10   36  -0.538   0.187   0.149
    1UNK    H11   37  -0.569   0.101   0.300
    1UNK    H12   38  -0.522  -0.118   0.184
    1UNK    H13   39  -0.500  -0.031   0.032
    1UNK    H14   40  -0.731   0.059   0.047
    1UNK    H15   41  -0.757  -0.034   0.195
    1UNK    H16   42  -0.703  -0.245   0.071
    1UNK    H17   43  -0.678  -0.152  -0.077
    1UNK    H18   44  -0.914  -0.070  -0.065
    1UNK    H19   45  -0.939  -0.163   0.083
    1UNK    H1A   46  -0.885  -0.374  -0.040
    1UNK    H1B   47  -0.860  -0.281  -0.189
    1UNK    H1C   48  -1.097  -0.200  -0.177
    1UNK    H1D   49  -1.121  -0.293  -0.029
    1UNK    H1E   50  -1.064  -0.502  -0.151
    1UNK    H1F   51  -1.040  -0.411  -0.300
    1UNK    H1G   52  -1.277  -0.332  -0.291
    1UNK    H1H   53  -1.303  -0.424  -0.144
    1UNK    H1I   54  -1.228  -0.542  -0.417
    1UNK    H1J   55  -1.291  -0.683  -0.152
    1UNK    H1K   56  -1.137  -0.689  -0.240
    1UNK    H1M   57  -1.282  -0.763  -0.309
    1UNK    H1N   58  -1.461  -0.450  -0.409
   1.00000   1.00000   1.00000

