LIGPARGEN GENERATED GRO FILE
   36
    1UNK    C00    1   0.100   0.100   0.000
    1UNK    O01    2  -0.043   0.100   0.000
    1UNK    C02    3  -0.099   0.100   0.125
    1UNK    O03    4  -0.036   0.100   0.229
    1UNK    C04    5  -0.249   0.107   0.111
    1UNK    C05    6  -0.331   0.042   0.226
    1UNK    C06    7  -0.294  -0.106   0.242
    1UNK    C07    8  -0.385  -0.192   0.332
    1UNK    C08    9  -0.535  -0.171   0.310
    1UNK    C09   10  -0.603  -0.082   0.415
    1UNK    C0A   11  -0.565   0.066   0.421
    1UNK    C0B   12  -0.421   0.092   0.469
    1UNK    C0C   13  -0.419   0.209   0.569
    1UNK    C0D   14  -0.322   0.125   0.355
    1UNK    H0E   15   0.134   0.117  -0.103
    1UNK    H0F   16   0.137   0.003   0.034
    1UNK    H0G   17   0.139   0.181   0.063
    1UNK    H0H   18  -0.277   0.056   0.018
    1UNK    H0I   19  -0.277   0.212   0.100
    1UNK    H0J   20  -0.434   0.048   0.190
    1UNK    H0K   21  -0.191  -0.116   0.279
    1UNK    H0M   22  -0.295  -0.153   0.142
    1UNK    H0N   23  -0.357  -0.180   0.437
    1UNK    H0O   24  -0.362  -0.296   0.308
    1UNK    H0P   25  -0.582  -0.269   0.317
    1UNK    H0Q   26  -0.556  -0.135   0.209
    1UNK    H0R   27  -0.590  -0.127   0.514
    1UNK    H0S   28  -0.711  -0.087   0.395
    1UNK    H0T   29  -0.635   0.112   0.492
    1UNK    H0U   30  -0.585   0.115   0.325
    1UNK    H0V   31  -0.384   0.006   0.524
    1UNK    H0W   32  -0.456   0.301   0.524
    1UNK    H0X   33  -0.318   0.226   0.607
    1UNK    H0Y   34  -0.483   0.186   0.655
    1UNK    H0Z   35  -0.220   0.117   0.397
    1UNK    H10   36  -0.335   0.231   0.328
   1.00000   1.00000   1.00000

