LIGPARGEN GENERATED GRO FILE
   18
    1UNK    C00    1   0.100   0.100   0.000
    1UNK    C01    2  -0.052   0.100   0.000
    1UNK    C02    3  -0.111   0.100   0.141
    1UNK    C03    4  -0.088   0.229   0.216
    1UNK    O04    5  -0.124   0.339   0.176
    1UNK    O05    6  -0.028   0.202   0.336
    1UNK    S06    7  -0.092   0.281   0.468
    1UNK    C07    8   0.001   0.436   0.463
    1UNK    H08    9   0.138   0.092  -0.102
    1UNK    H09   10   0.140   0.016   0.057
    1UNK    H0A   11   0.140   0.193   0.043
    1UNK    H0B   12  -0.086   0.010  -0.052
    1UNK    H0C   13  -0.088   0.186  -0.057
    1UNK    H0D   14  -0.070   0.016   0.198
    1UNK    H0E   15  -0.219   0.086   0.135
    1UNK    H0F   16  -0.028   0.497   0.549
    1UNK    H0G   17  -0.021   0.492   0.372
    1UNK    H0H   18   0.108   0.416   0.469
   1.00000   1.00000   1.00000

