LIGPARGEN GENERATED GRO FILE
   44
    1UNK    C00    1   0.100   0.100   0.000
    1UNK    C01    2  -0.053   0.100   0.000
    1UNK    C02    3  -0.122   0.100   0.140
    1UNK    C03    4  -0.079  -0.024   0.220
    1UNK    C04    5  -0.082   0.227   0.218
    1UNK    C05    6  -0.276   0.097   0.114
    1UNK    C06    7  -0.365   0.097   0.239
    1UNK    C07    8  -0.514   0.101   0.205
    1UNK    C08    9  -0.565  -0.022   0.129
    1UNK    C09   10  -0.716  -0.029   0.160
    1UNK    C0A   11  -0.769  -0.172   0.136
    1UNK    C0B   12  -0.795   0.068   0.070
    1UNK    C0C   13  -0.722   0.007   0.311
    1UNK    C0D   14  -0.849   0.075   0.359
    1UNK    C0E   15  -0.601   0.097   0.329
    1UNK    O0F   16  -0.578   0.160   0.431
    1UNK    H0G   17   0.137   0.100  -0.103
    1UNK    H0H   18   0.141   0.011   0.049
    1UNK    H0I   19   0.141   0.189   0.049
    1UNK    H0J   20  -0.086   0.012  -0.057
    1UNK    H0K   21  -0.086   0.188  -0.057
    1UNK    H0M   22   0.029  -0.026   0.238
    1UNK    H0N   23  -0.106  -0.116   0.167
    1UNK    H0O   24  -0.127  -0.027   0.319
    1UNK    H0P   25   0.026   0.231   0.235
    1UNK    H0Q   26  -0.129   0.229   0.317
    1UNK    H0R   27  -0.112   0.317   0.164
    1UNK    H0S   28  -0.299   0.009   0.054
    1UNK    H0T   29  -0.303   0.184   0.053
    1UNK    H0U   30  -0.342   0.184   0.301
    1UNK    H0V   31  -0.345   0.009   0.300
    1UNK    H0W   32  -0.538   0.193   0.150
    1UNK    H0X   33  -0.514  -0.112   0.165
    1UNK    H0Y   34  -0.546  -0.014   0.021
    1UNK    H0Z   35  -0.758  -0.200   0.030
    1UNK    H10   36  -0.875  -0.180   0.163
    1UNK    H11   37  -0.714  -0.245   0.195
    1UNK    H12   38  -0.778   0.044  -0.036
    1UNK    H13   39  -0.765   0.172   0.086
    1UNK    H14   40  -0.902   0.061   0.088
    1UNK    H15   41  -0.703  -0.083   0.371
    1UNK    H16   42  -0.861   0.174   0.315
    1UNK    H17   43  -0.846   0.089   0.468
    1UNK    H18   44  -0.938   0.015   0.336
   1.00000   1.00000   1.00000

