
;
; GENERATED BY LigParGen Server
; Jorgensen Lab @ Yale University 
;
[ atomtypes ]
  opls_818  H818     1.0080     0.000    A    2.50000E-01   1.25520E-01
  opls_805  C805    12.0110     0.000    A    3.45000E-01   3.47272E-01
  opls_824  H824     1.0080     0.000    A    2.50000E-01   1.25520E-01
  opls_808  O808    15.9990     0.000    A    2.96000E-01   8.78640E-01
  opls_810  C810    12.0110     0.000    A    3.45000E-01   3.47272E-01
  opls_828  H828     1.0080     0.000    A    2.50000E-01   1.25520E-01
  opls_813  H813     1.0080     0.000    A    2.50000E-01   1.25520E-01
  opls_811  C811    12.0110     0.000    A    3.50000E-01   2.76144E-01
  opls_815  H815     1.0080     0.000    A    2.50000E-01   1.25520E-01
  opls_812  C812    12.0110     0.000    A    3.50000E-01   2.76144E-01
  opls_802  O802    15.9990     0.000    A    2.96000E-01   8.78640E-01
  opls_822  H822     1.0080     0.000    A    2.50000E-01   1.25520E-01
  opls_803  C803    12.0110     0.000    A    3.50000E-01   2.76144E-01
  opls_825  H825     1.0080     0.000    A    2.50000E-01   1.25520E-01
  opls_814  H814     1.0080     0.000    A    2.50000E-01   1.25520E-01
  opls_821  H821     1.0080     0.000    A    2.50000E-01   1.25520E-01
  opls_820  H820     1.0080     0.000    A    2.50000E-01   1.25520E-01
  opls_801  C801    12.0110     0.000    A    3.55000E-01   2.92880E-01
  opls_816  H816     1.0080     0.000    A    2.50000E-01   1.25520E-01
  opls_800  C800    12.0110     0.000    A    3.50000E-01   2.76144E-01
  opls_823  H823     1.0080     0.000    A    2.50000E-01   1.25520E-01
  opls_806  C806    12.0110     0.000    A    3.55000E-01   2.92880E-01
  opls_826  H826     1.0080     0.000    A    2.50000E-01   1.25520E-01
  opls_819  H819     1.0080     0.000    A    2.50000E-01   1.25520E-01
  opls_804  C804    12.0110     0.000    A    3.50000E-01   2.76144E-01
  opls_827  H827     1.0080     0.000    A    2.50000E-01   1.25520E-01
  opls_817  H817     1.0080     0.000    A    2.50000E-01   1.25520E-01
  opls_809  C809    12.0110     0.000    A    3.45000E-01   3.47272E-01
  opls_807  C807    12.0110     0.000    A    3.50000E-01   2.76144E-01
[ moleculetype ]
; Name               nrexcl
UNK                   3
[ atoms ]
;   nr       type  resnr residue  atom   cgnr     charge       mass  
     1   opls_800      1    UNK   C00      1    -0.3035    12.0110 
     2   opls_801      1    UNK   C01      1     0.3681    12.0110 
     3   opls_802      1    UNK   O02      1    -0.4507    15.9990 
     4   opls_803      1    UNK   C03      1    -0.1701    12.0110 
     5   opls_804      1    UNK   C04      1    -0.1148    12.0110 
     6   opls_805      1    UNK   C05      1    -0.2171    12.0110 
     7   opls_806      1    UNK   C06      1     0.4237    12.0110 
     8   opls_807      1    UNK   C07      1    -0.2918    12.0110 
     9   opls_808      1    UNK   O08      1    -0.4453    15.9990 
    10   opls_809      1    UNK   C09      1    -0.1824    12.0110 
    11   opls_810      1    UNK   C0A      1    -0.1725    12.0110 
    12   opls_811      1    UNK   C0B      1    -0.0769    12.0110 
    13   opls_812      1    UNK   C0C      1    -0.2336    12.0110 
    14   opls_813      1    UNK   H0D      1     0.1174     1.0080 
    15   opls_814      1    UNK   H0E      1     0.1174     1.0080 
    16   opls_815      1    UNK   H0F      1     0.1174     1.0080 
    17   opls_816      1    UNK   H0G      1     0.1349     1.0080 
    18   opls_817      1    UNK   H0H      1     0.1183     1.0080 
    19   opls_818      1    UNK   H0I      1     0.1183     1.0080 
    20   opls_819      1    UNK   H0J      1     0.1205     1.0080 
    21   opls_820      1    UNK   H0K      1     0.1205     1.0080 
    22   opls_821      1    UNK   H0M      1     0.1205     1.0080 
    23   opls_822      1    UNK   H0N      1     0.1346     1.0080 
    24   opls_823      1    UNK   H0O      1     0.1346     1.0080 
    25   opls_824      1    UNK   H0P      1     0.1388     1.0080 
    26   opls_825      1    UNK   H0Q      1     0.1094     1.0080 
    27   opls_826      1    UNK   H0R      1     0.0881     1.0080 
    28   opls_827      1    UNK   H0S      1     0.0881     1.0080 
    29   opls_828      1    UNK   H0T      1     0.0881     1.0080 
[ bonds ]
    2     1     1      0.1522 265265.600
    3     2     1      0.1229 476976.000
    4     2     1      0.1522 265265.600
    5     4     1      0.1529 224262.400
    6     5     1      0.1510 234304.000
    7     6     1      0.1522 265265.600
    8     7     1      0.1522 265265.600
    9     7     1      0.1229 476976.000
   10     6     1      0.1520 217568.000
   11     6     1      0.1520 217568.000
   12     4     1      0.1529 224262.400
   13    12     1      0.1529 224262.400
   14     1     1      0.1090 284512.000
   15     1     1      0.1090 284512.000
   16     1     1      0.1090 284512.000
   17     4     1      0.1090 284512.000
   18     5     1      0.1090 284512.000
   19     5     1      0.1090 284512.000
   20     8     1      0.1090 284512.000
   21     8     1      0.1090 284512.000
   22     8     1      0.1090 284512.000
   23    10     1      0.1088 284512.000
   24    10     1      0.1088 284512.000
   25    11     1      0.1088 284512.000
   26    12     1      0.1090 284512.000
   27    13     1      0.1090 284512.000
   28    13     1      0.1090 284512.000
   29    13     1      0.1090 284512.000
   11    10     1      0.1520 217568.000
   12    11     1      0.1510 234304.000

[ angles ]
;  ai    aj    ak funct            c0            c1            c2            c3 
    1     2     3     1    120.400    669.440
    1     2     4     1    116.000    585.760
    2     4     5     1    111.100    527.184
    4     5     6     1    112.700    488.273
    5     6     7     1    111.100    527.184
    6     7     8     1    116.000    585.760
    6     7     9     1    120.400    669.440
    5     6    10     1    117.200    313.800
    5     6    11     1    117.200    313.800
    2     4    12     1    111.100    527.184
    4    12    13     1    112.700    488.273
    2     1    14     1    109.500    292.880
    2     1    15     1    109.500    292.880
    2     1    16     1    109.500    292.880
    2     4    17     1    109.500    292.880
    4     5    18     1    110.700    313.800
    4     5    19     1    110.700    313.800
    7     8    20     1    109.500    292.880
    7     8    21     1    109.500    292.880
    7     8    22     1    109.500    292.880
    6    10    23     1    117.200    313.800
    6    10    24     1    117.200    313.800
    6    11    25     1    117.200    313.800
    4    12    26     1    110.700    313.800
   12    13    27     1    110.700    313.800
   12    13    28     1    110.700    313.800
   12    13    29     1    110.700    313.800
   20     8    22     1    107.800    276.144
   12     4    17     1    110.700    313.800
    5     4    12     1    112.700    488.273
    6    11    12     1    117.200    313.800
   21     8    22     1    107.800    276.144
    6    11    10     1     83.000    251.040
    6     5    19     1    110.700    313.800
   14     1    16     1    107.800    276.144
    8     7     9     1    120.400    669.440
   10     6    11     1     83.000    251.040
   10    11    25     1    117.200    313.800
    7     6    11     1    111.100    527.184
    6    10    11     1     83.000    251.040
   14     1    15     1    107.800    276.144
    4    12    11     1    112.700    488.273
   10    11    12     1    117.200    313.800
   27    13    29     1    107.800    276.144
   15     1    16     1    107.800    276.144
    3     2     4     1    120.400    669.440
   28    13    29     1    107.800    276.144
   23    10    24     1    114.300    292.880
   18     5    19     1    107.800    276.144
   27    13    28     1    107.800    276.144
   20     8    21     1    107.800    276.144
   12    11    25     1    114.300    292.880
   11    12    13     1    112.700    488.273
   11    12    26     1    110.700    313.800
   11    10    23     1    117.200    313.800
   13    12    26     1    110.700    313.800
    7     6    10     1    111.100    527.184
    6     5    18     1    110.700    313.800
   11    10    24     1    117.200    313.800
    5     4    17     1    110.700    313.800

[ dihedrals ]
; IMPROPER DIHEDRAL ANGLES 
;  ai    aj    ak    al funct            c0            c1            c2            c3            c4            c5
     4     2     1     3    4        180.000     43.932     2  
     9     7     6     8    4        180.000     43.932     2  

[ dihedrals ]
; PROPER DIHEDRAL ANGLES
;  ai    aj    ak    al funct            c0            c1            c2            c3            c4            c5
    7    6    5    4        3      -4.960   6.286   1.310  -2.636  -0.000   0.000
    8    7    6    5        3       0.818  -7.906   0.602   6.485  -0.000   0.000
    5    4    2    1        3       0.818  -7.906   0.602   6.485  -0.000   0.000
   12    4    2    1        3       0.818  -7.906   0.602   6.485  -0.000   0.000
    5    4    2    3        3       0.000   0.000   0.000  -0.000  -0.000   0.000
   12    4    2    3        3       0.000   0.000   0.000  -0.000  -0.000   0.000
   13   12    4    2        3      -4.960   6.286   1.310  -2.636  -0.000   0.000
   13   12    4    5        3       2.301  -1.464   0.837  -1.674  -0.000   0.000
   12    4    5    6        3       2.301  -1.464   0.837  -1.674  -0.000   0.000
   13   12   11   10        3       0.000   0.000   0.000  -0.000  -0.000   0.000
   13   12   11    6        3       0.000   0.000   0.000  -0.000  -0.000   0.000
   12   11    6    7        3       0.000   0.000   0.000  -0.000  -0.000   0.000
   12   11    6    5        3       0.000   0.000   0.000  -0.000  -0.000   0.000
   12   11    6   10        3       0.000   0.000   0.000  -0.000  -0.000   0.000
   12   11   10    6        3       0.000   0.000   0.000  -0.000  -0.000   0.000
    6    5    4    2        3      -4.960   6.286   1.310  -2.636  -0.000   0.000
   11   12    4    2        3      -4.960   6.286   1.310  -2.636  -0.000   0.000
   11   12    4    5        3       2.301  -1.464   0.837  -1.674  -0.000   0.000
   10    6    7    8        3       0.000   0.000   0.000  -0.000  -0.000   0.000
   11    6    7    8        3       0.000   0.000   0.000  -0.000  -0.000   0.000
   11    6    7    9        3       0.000   0.000   0.000  -0.000  -0.000   0.000
   10    6    7    9        3       0.000   0.000   0.000  -0.000  -0.000   0.000
   10    6    5    4        3       0.000   0.000   0.000  -0.000  -0.000   0.000
   10   11   12    4        3       0.000   0.000   0.000  -0.000  -0.000   0.000
   11    6    5    4        3       0.000   0.000   0.000  -0.000  -0.000   0.000
    6   11   12    4        3       0.000   0.000   0.000  -0.000  -0.000   0.000
   15    1    2    4        3       0.575   1.726   0.000  -2.301  -0.000   0.000
   16    1    2    4        3       0.575   1.726   0.000  -2.301  -0.000   0.000
   14    1    2    4        3       0.575   1.726   0.000  -2.301  -0.000   0.000
   17    4    2    1        3       0.575   1.726   0.000  -2.301  -0.000   0.000
   20    8    7    6        3       0.575   1.726   0.000  -2.301  -0.000   0.000
   21    8    7    6        3       0.575   1.726   0.000  -2.301  -0.000   0.000
   22    8    7    6        3       0.575   1.726   0.000  -2.301  -0.000   0.000
   16    1    2    3        3       0.000   0.000   0.000  -0.000  -0.000   0.000
   17    4    2    3        3       0.000   0.000   0.000  -0.000  -0.000   0.000
   15    1    2    3        3       0.000   0.000   0.000  -0.000  -0.000   0.000
   20    8    7    9        3       0.000   0.000   0.000  -0.000  -0.000   0.000
   21    8    7    9        3       0.000   0.000   0.000  -0.000  -0.000   0.000
   14    1    2    3        3       0.000   0.000   0.000  -0.000  -0.000   0.000
   22    8    7    9        3       0.000   0.000   0.000  -0.000  -0.000   0.000
   19    5    4    2        3      -0.209  -0.628   0.000   0.837  -0.000   0.000
   18    5    4    2        3      -0.209  -0.628   0.000   0.837  -0.000   0.000
   26   12    4    2        3      -0.209  -0.628   0.000   0.837  -0.000   0.000
   27   13   12    4        3       0.628   1.883   0.000  -2.510  -0.000   0.000
   29   13   12    4        3       0.628   1.883   0.000  -2.510  -0.000   0.000
   18    5    4   12        3       0.628   1.883   0.000  -2.510  -0.000   0.000
   28   13   12    4        3       0.628   1.883   0.000  -2.510  -0.000   0.000
   19    5    4   12        3       0.628   1.883   0.000  -2.510  -0.000   0.000
   17    4   12   13        3       0.628   1.883   0.000  -2.510  -0.000   0.000
   26   12    4    5        3       0.628   1.883   0.000  -2.510  -0.000   0.000
   28   13   12   11        3       0.628   1.883   0.000  -2.510  -0.000   0.000
   27   13   12   11        3       0.628   1.883   0.000  -2.510  -0.000   0.000
   17    4   12   11        3       0.628   1.883   0.000  -2.510  -0.000   0.000
   17    4    5    6        3       0.628   1.883   0.000  -2.510  -0.000   0.000
   29   13   12   11        3       0.628   1.883   0.000  -2.510  -0.000   0.000
   29   13   12   26        3       0.628   1.883   0.000  -2.510  -0.000   0.000
   28   13   12   26        3       0.628   1.883   0.000  -2.510  -0.000   0.000
   26   12    4   17        3       0.628   1.883   0.000  -2.510  -0.000   0.000
   18    5    4   17        3       0.628   1.883   0.000  -2.510  -0.000   0.000
   19    5    4   17        3       0.628   1.883   0.000  -2.510  -0.000   0.000
   27   13   12   26        3       0.628   1.883   0.000  -2.510  -0.000   0.000
   18    5    6    7        3       0.628   1.883   0.000  -2.510  -0.000   0.000
   19    5    6    7        3       0.628   1.883   0.000  -2.510  -0.000   0.000
   26   12   11    6        3       0.628   1.883   0.000  -2.510  -0.000   0.000
   26   12   11   10        3       0.628   1.883   0.000  -2.510  -0.000   0.000
   19    5    6   10        3       0.628   1.883   0.000  -2.510  -0.000   0.000
   18    5    6   11        3       0.628   1.883   0.000  -2.510  -0.000   0.000
   19    5    6   11        3       0.628   1.883   0.000  -2.510  -0.000   0.000
   18    5    6   10        3       0.628   1.883   0.000  -2.510  -0.000   0.000
   26   12   11   25        3       0.628   1.883   0.000  -2.510  -0.000   0.000
   25   11   12    4        3       0.628   1.883   0.000  -2.510  -0.000   0.000
   25   11   12   13        3       0.628   1.883   0.000  -2.510  -0.000   0.000
   25   11    6    7        3       0.000   0.000   0.000  -0.000  -0.000   0.000
   23   10    6    7        3       0.000   0.000   0.000  -0.000  -0.000   0.000
   24   10    6    7        3       0.000   0.000   0.000  -0.000  -0.000   0.000
   24   10   11   12        3       0.000   0.000   0.000  -0.000  -0.000   0.000
   25   11    6    5        3       0.000   0.000   0.000  -0.000  -0.000   0.000
   23   10    6    5        3       0.000   0.000   0.000  -0.000  -0.000   0.000
   23   10   11   12        3       0.000   0.000   0.000  -0.000  -0.000   0.000
   24   10    6    5        3       0.000   0.000   0.000  -0.000  -0.000   0.000
   24   10   11    6        3       0.000   0.000   0.000  -0.000  -0.000   0.000
   23   10    6   11        3       0.000   0.000   0.000  -0.000  -0.000   0.000
   23   10   11    6        3       0.000   0.000   0.000  -0.000  -0.000   0.000
   25   11    6   10        3       0.000   0.000   0.000  -0.000  -0.000   0.000
   24   10    6   11        3       0.000   0.000   0.000  -0.000  -0.000   0.000
   25   11   10    6        3       0.000   0.000   0.000  -0.000  -0.000   0.000
   25   11   10   23        3       0.000   0.000   0.000  -0.000  -0.000   0.000
   25   11   10   24        3       0.000   0.000   0.000  -0.000  -0.000   0.000
    9    7    6    5        3       0.000   0.000   0.000  -0.000  -0.000   0.000

[ pairs ]
     1     5    1
     3     5    1
     2     6    1
     4     7    1
     5     8    1
     2    11    1
     1    12    1
     5     9    1
     4    10    1
     3    12    1
     2    13    1
     3    14    1
     8    10    1
     5    13    1
     4    14    1
     3    15    1
     1    17    1
     9    10    1
     8    11    1
     7    12    1
     6    13    1
     4    15    1
     3    16    1
     9    11    1
     4    16    1
     3    17    1
     2    18    1
     2    19    1
    10    13    1
     6    17    1
     7    18    1
     7    19    1
     6    20    1
     6    21    1
    11    17    1
    10    18    1
     6    22    1
     5    23    1
     2    26    1
    11    18    1
    10    19    1
     9    20    1
     5    24    1
     4    25    1
    13    17    1
    12    18    1
    11    19    1
     9    21    1
     7    23    1
     5    25    1
    12    19    1
     9    22    1
     7    24    1
     5    26    1
     4    27    1
     7    25    1
     6    26    1
     4    28    1
     4    29    1
    17    18    1
    12    23    1
    17    19    1
    12    24    1
    10    26    1
    13    25    1
    11    27    1
    11    28    1
    11    29    1
    17    26    1
    23    25    1
    24    25    1
    25    26    1
    26    27    1
    26    28    1
    26    29    1

