LIGPARGEN GENERATED GRO FILE
   29
    1UNK    C00    1   0.100   0.100   0.000
    1UNK    C01    2  -0.051   0.100   0.000
    1UNK    O02    3  -0.112   0.100   0.107
    1UNK    C03    4  -0.124   0.091  -0.135
    1UNK    C04    5  -0.277   0.105  -0.118
    1UNK    C05    6  -0.300   0.256  -0.112
    1UNK    C06    7  -0.373   0.310   0.006
    1UNK    C07    8  -0.294   0.350   0.127
    1UNK    O08    9  -0.496   0.317   0.003
    1UNK    C09   10  -0.318   0.338  -0.239
    1UNK    C0A   11  -0.181   0.319  -0.181
    1UNK    C0B   12  -0.088   0.210  -0.228
    1UNK    C0C   13  -0.105   0.171  -0.375
    1UNK    H0D   14   0.136   0.105   0.103
    1UNK    H0E   15   0.139   0.188  -0.052
    1UNK    H0F   16   0.137   0.008  -0.046
    1UNK    H0G   17  -0.098  -0.006  -0.178
    1UNK    H0H   18  -0.314   0.054  -0.029
    1UNK    H0I   19  -0.329   0.063  -0.205
    1UNK    H0J   20  -0.188   0.356   0.105
    1UNK    H0K   21  -0.312   0.277   0.206
    1UNK    H0M   22  -0.329   0.449   0.160
    1UNK    H0N   23  -0.362   0.437  -0.230
    1UNK    H0O   24  -0.350   0.287  -0.329
    1UNK    H0P   25  -0.131   0.402  -0.133
    1UNK    H0Q   26   0.016   0.243  -0.214
    1UNK    H0R   27  -0.207   0.143  -0.400
    1UNK    H0S   28  -0.042   0.085  -0.400
    1UNK    H0T   29  -0.076   0.254  -0.440
   1.00000   1.00000   1.00000

