LIGPARGEN GENERATED GRO FILE
   47
    1UNK    C00    1   0.100   0.100   0.000
    1UNK    C01    2  -0.052   0.100   0.000
    1UNK    C02    3  -0.105   0.100   0.144
    1UNK    C03    4  -0.258   0.109   0.146
    1UNK    C04    5  -0.317   0.119   0.288
    1UNK    C05    6  -0.255   0.235   0.367
    1UNK    C06    7  -0.472   0.113   0.295
    1UNK    C07    8  -0.565   0.223   0.234
    1UNK    C08    9  -0.530   0.362   0.290
    1UNK    C09   10  -0.559   0.230   0.078
    1UNK    C0A   11  -0.592   0.101   0.004
    1UNK    C0B   12  -0.712   0.190   0.280
    1UNK    C0C   13  -0.820   0.284   0.224
    1UNK    C0D   14  -0.960   0.250   0.269
    1UNK    O0E   15  -0.991   0.158   0.343
    1UNK    O0F   16  -1.046   0.340   0.213
    1UNK    C0G   17  -1.183   0.321   0.247
    1UNK    H0H   18   0.138   0.100  -0.102
    1UNK    H0I   19   0.139   0.012   0.052
    1UNK    H0J   20   0.139   0.189   0.051
    1UNK    H0K   21  -0.089   0.012  -0.054
    1UNK    H0M   22  -0.088   0.189  -0.053
    1UNK    H0N   23  -0.062   0.186   0.196
    1UNK    H0O   24  -0.073   0.009   0.195
    1UNK    H0P   25  -0.300   0.022   0.095
    1UNK    H0Q   26  -0.285   0.198   0.089
    1UNK    H0R   27  -0.283   0.028   0.340
    1UNK    H0S   28  -0.240   0.323   0.304
    1UNK    H0T   29  -0.157   0.206   0.406
    1UNK    H0U   30  -0.316   0.263   0.453
    1UNK    H0V   31  -0.496   0.106   0.402
    1UNK    H0W   32  -0.502   0.015   0.254
    1UNK    H0X   33  -0.429   0.393   0.261
    1UNK    H0Y   34  -0.537   0.364   0.399
    1UNK    H0Z   35  -0.596   0.440   0.251
    1UNK    H10   36  -0.461   0.266   0.045
    1UNK    H11   37  -0.627   0.308   0.043
    1UNK    H12   38  -0.509   0.030   0.007
    1UNK    H13   39  -0.612   0.123  -0.101
    1UNK    H14   40  -0.680   0.051   0.044
    1UNK    H15   41  -0.717   0.193   0.390
    1UNK    H16   42  -0.738   0.086   0.253
    1UNK    H17   43  -0.822   0.279   0.115
    1UNK    H18   44  -0.801   0.386   0.256
    1UNK    H19   45  -1.241   0.398   0.197
    1UNK    H1A   46  -1.197   0.331   0.355
    1UNK    H1B   47  -1.217   0.223   0.212
   1.00000   1.00000   1.00000

