LIGPARGEN GENERATED GRO FILE
   30
    1UNK    C00    1   0.100   0.100   0.000
    1UNK    C01    2  -0.057   0.100   0.000
    1UNK    C02    3  -0.092   0.100   0.150
    1UNK    C03    4  -0.098   0.231  -0.072
    1UNK    C04    5  -0.243   0.267  -0.102
    1UNK    C05    6  -0.346   0.249   0.009
    1UNK    C06    7  -0.432   0.123   0.002
    1UNK    C07    8  -0.370  -0.015   0.016
    1UNK    S08    9  -0.263  -0.071  -0.115
    1UNK    O09   10  -0.299  -0.003  -0.238
    1UNK    O0A   11  -0.269  -0.216  -0.111
    1UNK    C0B   12  -0.096  -0.030  -0.073
    1UNK    H0C   13   0.140   0.189   0.051
    1UNK    H0D   14   0.140   0.099  -0.102
    1UNK    H0E   15   0.139   0.012   0.052
    1UNK    H0F   16  -0.046   0.186   0.201
    1UNK    H0G   17  -0.054   0.010   0.199
    1UNK    H0H   18  -0.198   0.105   0.172
    1UNK    H0I   19  -0.046   0.233  -0.169
    1UNK    H0J   20  -0.055   0.315  -0.016
    1UNK    H0K   21  -0.277   0.220  -0.195
    1UNK    H0M   22  -0.242   0.374  -0.127
    1UNK    H0N   23  -0.417   0.333  -0.001
    1UNK    H0O   24  -0.302   0.265   0.108
    1UNK    H0P   25  -0.490   0.126  -0.091
    1UNK    H0Q   26  -0.506   0.132   0.083
    1UNK    H0R   27  -0.454  -0.087   0.013
    1UNK    H0S   28  -0.322  -0.035   0.112
    1UNK    H0T   29  -0.043  -0.035  -0.169
    1UNK    H0U   30  -0.060  -0.115  -0.014
   1.00000   1.00000   1.00000

