LIGPARGEN GENERATED GRO FILE
   46
    1UNK    C00    1   0.100   0.100   0.000
    1UNK    C01    2  -0.053   0.100   0.000
    1UNK    C02    3  -0.117   0.100   0.141
    1UNK    C03    4  -0.080   0.227   0.218
    1UNK    C04    5  -0.271   0.094   0.127
    1UNK    C05    6  -0.078  -0.029   0.212
    1UNK    O06    7  -0.092  -0.140   0.160
    1UNK    O07    8  -0.032  -0.010   0.339
    1UNK    C08    9   0.000  -0.131   0.408
    1UNK    C09   10  -0.124  -0.192   0.475
    1UNK    C0A   11  -0.086  -0.335   0.516
    1UNK    C0B   12   0.041  -0.341   0.604
    1UNK    C0C   13   0.157  -0.253   0.554
    1UNK    C0D   14   0.112  -0.112   0.512
    1UNK    O0E   15   0.072  -0.042   0.631
    1UNK    C0F   16  -0.005   0.067   0.609
    1UNK    O0G   17   0.041   0.180   0.606
    1UNK    C0H   18  -0.154   0.035   0.603
    1UNK    C0I   19  -0.220   0.096   0.727
    1UNK    C0J   20  -0.183  -0.114   0.596
    1UNK    H0K   21   0.137   0.095  -0.103
    1UNK    H0M   22   0.141   0.014   0.054
    1UNK    H0N   23   0.140   0.191   0.045
    1UNK    H0O   24  -0.086   0.012  -0.056
    1UNK    H0P   25  -0.088   0.187  -0.056
    1UNK    H0Q   26  -0.112   0.317   0.163
    1UNK    H0R   27   0.027   0.235   0.236
    1UNK    H0S   28  -0.130   0.230   0.316
    1UNK    H0T   29  -0.309   0.181   0.073
    1UNK    H0U   30  -0.319   0.090   0.226
    1UNK    H0V   31  -0.302   0.004   0.072
    1UNK    H0W   32   0.040  -0.202   0.334
    1UNK    H0X   33  -0.204  -0.198   0.400
    1UNK    H0Y   34  -0.068  -0.394   0.425
    1UNK    H0Z   35  -0.169  -0.384   0.569
    1UNK    H10   36   0.075  -0.445   0.610
    1UNK    H11   37   0.015  -0.310   0.706
    1UNK    H12   38   0.204  -0.303   0.468
    1UNK    H13   39   0.233  -0.247   0.633
    1UNK    H14   40   0.196  -0.057   0.469
    1UNK    H15   41  -0.194   0.084   0.514
    1UNK    H16   42  -0.177   0.055   0.819
    1UNK    H17   43  -0.328   0.076   0.728
    1UNK    H18   44  -0.206   0.205   0.730
    1UNK    H19   45  -0.292  -0.128   0.594
    1UNK    H1A   46  -0.151  -0.160   0.690
   1.00000   1.00000   1.00000

