
;
; GENERATED BY LigParGen Server
; Jorgensen Lab @ Yale University 
;
[ atomtypes ]
  opls_804  C804    12.0110     0.000    A    3.50000E-01   2.76144E-01
  opls_824  H824     1.0080     0.000    A    2.50000E-01   1.25520E-01
  opls_816  O816    15.9990     0.000    A    2.96000E-01   8.78640E-01
  opls_818  C818    12.0110     0.000    A    3.50000E-01   2.76144E-01
  opls_843  H843     1.0080     0.000    A    2.50000E-01   1.25520E-01
  opls_836  H836     1.0080     0.000    A    2.50000E-01   1.25520E-01
  opls_834  H834     1.0080     0.000    A    2.50000E-01   1.25520E-01
  opls_828  H828     1.0080     0.000    A    2.50000E-01   1.25520E-01
  opls_812  C812    12.0110     0.000    A    3.50000E-01   2.76144E-01
  opls_811  C811    12.0110     0.000    A    3.50000E-01   2.76144E-01
  opls_827  H827     1.0080     0.000    A    2.50000E-01   1.25520E-01
  opls_809  C809    12.0110     0.000    A    3.50000E-01   2.76144E-01
  opls_838  H838     1.0080     0.000    A    2.50000E-01   1.25520E-01
  opls_822  H822     1.0080     0.000    A    2.50000E-01   1.25520E-01
  opls_803  C803    12.0110     0.000    A    3.50000E-01   2.76144E-01
  opls_830  H830     1.0080     0.000    A    2.50000E-01   1.25520E-01
  opls_814  O814    15.9990     0.000    A    2.90000E-01   5.85760E-01
  opls_821  H821     1.0080     0.000    A    2.50000E-01   1.25520E-01
  opls_842  H842     1.0080     0.000    A    2.50000E-01   1.25520E-01
  opls_820  H820     1.0080     0.000    A    2.50000E-01   1.25520E-01
  opls_837  H837     1.0080     0.000    A    2.50000E-01   1.25520E-01
  opls_829  H829     1.0080     0.000    A    2.50000E-01   1.25520E-01
  opls_831  H831     1.0080     0.000    A    2.50000E-01   1.25520E-01
  opls_805  C805    12.0110     0.000    A    3.55000E-01   2.92880E-01
  opls_832  H832     1.0080     0.000    A    2.50000E-01   1.25520E-01
  opls_800  C800    12.0110     0.000    A    3.50000E-01   2.76144E-01
  opls_802  C802    12.0110     0.000    A    3.50000E-01   2.76144E-01
  opls_815  C815    12.0110     0.000    A    3.55000E-01   2.92880E-01
  opls_823  H823     1.0080     0.000    A    2.50000E-01   1.25520E-01
  opls_819  C819    12.0110     0.000    A    3.50000E-01   2.76144E-01
  opls_826  H826     1.0080     0.000    A    2.50000E-01   1.25520E-01
  opls_835  H835     1.0080     0.000    A    2.50000E-01   1.25520E-01
  opls_841  H841     1.0080     0.000    A    2.50000E-01   1.25520E-01
  opls_825  H825     1.0080     0.000    A    2.50000E-01   1.25520E-01
  opls_810  C810    12.0110     0.000    A    3.50000E-01   2.76144E-01
  opls_833  H833     1.0080     0.000    A    2.50000E-01   1.25520E-01
  opls_839  H839     1.0080     0.000    A    2.50000E-01   1.25520E-01
  opls_817  C817    12.0110     0.000    A    3.50000E-01   2.76144E-01
  opls_801  C801    12.0110     0.000    A    3.50000E-01   2.76144E-01
  opls_808  C808    12.0110     0.000    A    3.50000E-01   2.76144E-01
  opls_806  O806    15.9990     0.000    A    2.96000E-01   8.78640E-01
  opls_840  H840     1.0080     0.000    A    2.50000E-01   1.25520E-01
  opls_813  C813    12.0110     0.000    A    3.50000E-01   2.76144E-01
  opls_807  O807    15.9990     0.000    A    2.90000E-01   5.85760E-01
  opls_844  H844     1.0080     0.000    A    2.50000E-01   1.25520E-01
  opls_845  H845     1.0080     0.000    A    2.50000E-01   1.25520E-01
[ moleculetype ]
; Name               nrexcl
UNK                   3
[ atoms ]
;   nr       type  resnr residue  atom   cgnr     charge       mass  
     1   opls_800      1    UNK   C00      1    -0.2422    12.0110 
     2   opls_801      1    UNK   C01      1    -0.1674    12.0110 
     3   opls_802      1    UNK   C02      1    -0.0439    12.0110 
     4   opls_803      1    UNK   C03      1    -0.2258    12.0110 
     5   opls_804      1    UNK   C04      1    -0.2377    12.0110 
     6   opls_805      1    UNK   C05      1     0.4464    12.0110 
     7   opls_806      1    UNK   O06      1    -0.4575    15.9990 
     8   opls_807      1    UNK   O07      1    -0.3501    15.9990 
     9   opls_808      1    UNK   C08      1     0.0143    12.0110 
    10   opls_809      1    UNK   C09      1     -0.125    12.0110 
    11   opls_810      1    UNK   C0A      1     -0.173    12.0110 
    12   opls_811      1    UNK   C0B      1    -0.1789    12.0110 
    13   opls_812      1    UNK   C0C      1    -0.1768    12.0110 
    14   opls_813      1    UNK   C0D      1     0.1084    12.0110 
    15   opls_814      1    UNK   O0E      1    -0.3974    15.9990 
    16   opls_815      1    UNK   C0F      1     0.4784    12.0110 
    17   opls_816      1    UNK   O0G      1    -0.3941    15.9990 
    18   opls_817      1    UNK   C0H      1    -0.1489    12.0110 
    19   opls_818      1    UNK   C0I      1    -0.2348    12.0110 
    20   opls_819      1    UNK   C0J      1    -0.1611    12.0110 
    21   opls_820      1    UNK   H0K      1     0.0865     1.0080 
    22   opls_821      1    UNK   H0M      1     0.0865     1.0080 
    23   opls_822      1    UNK   H0N      1     0.0865     1.0080 
    24   opls_823      1    UNK   H0O      1     0.1048     1.0080 
    25   opls_824      1    UNK   H0P      1     0.1048     1.0080 
    26   opls_825      1    UNK   H0Q      1     0.0968     1.0080 
    27   opls_826      1    UNK   H0R      1     0.0968     1.0080 
    28   opls_827      1    UNK   H0S      1     0.0968     1.0080 
    29   opls_828      1    UNK   H0T      1     0.0966     1.0080 
    30   opls_829      1    UNK   H0U      1     0.0966     1.0080 
    31   opls_830      1    UNK   H0V      1     0.0966     1.0080 
    32   opls_831      1    UNK   H0W      1     0.1435     1.0080 
    33   opls_832      1    UNK   H0X      2     0.1155     1.0080 
    34   opls_833      1    UNK   H0Y      2     0.0981     1.0080 
    35   opls_834      1    UNK   H0Z      2     0.0981     1.0080 
    36   opls_835      1    UNK   H10      2     0.0981     1.0080 
    37   opls_836      1    UNK   H11      2     0.0981     1.0080 
    38   opls_837      1    UNK   H12      2     0.1107     1.0080 
    39   opls_838      1    UNK   H13      2     0.1107     1.0080 
    40   opls_839      1    UNK   H14      2     0.1215     1.0080 
    41   opls_840      1    UNK   H15      2     0.1372     1.0080 
    42   opls_841      1    UNK   H16      2     0.0951     1.0080 
    43   opls_842      1    UNK   H17      2     0.0951     1.0080 
    44   opls_843      1    UNK   H18      2     0.0951     1.0080 
    45   opls_844      1    UNK   H19      2     0.1006     1.0080 
    46   opls_845      1    UNK   H1A      2     0.1006     1.0080 
[ bonds ]
    2     1     1      0.1529 224262.400
    3     2     1      0.1529 224262.400
    4     3     1      0.1529 224262.400
    5     3     1      0.1529 224262.400
    6     3     1      0.1522 265265.600
    7     6     1      0.1229 476976.000
    8     6     1      0.1327 179075.200
    9     8     1      0.1410 267776.000
   10     9     1      0.1529 224262.400
   11    10     1      0.1529 224262.400
   12    11     1      0.1529 224262.400
   13    12     1      0.1529 224262.400
   14     9     1      0.1529 224262.400
   15    14     1      0.1410 267776.000
   16    15     1      0.1327 179075.200
   17    16     1      0.1229 476976.000
   18    16     1      0.1522 265265.600
   19    18     1      0.1529 224262.400
   20    10     1      0.1529 224262.400
   21     1     1      0.1090 284512.000
   22     1     1      0.1090 284512.000
   23     1     1      0.1090 284512.000
   24     2     1      0.1090 284512.000
   25     2     1      0.1090 284512.000
   26     4     1      0.1090 284512.000
   27     4     1      0.1090 284512.000
   28     4     1      0.1090 284512.000
   29     5     1      0.1090 284512.000
   30     5     1      0.1090 284512.000
   31     5     1      0.1090 284512.000
   32     9     1      0.1090 284512.000
   33    10     1      0.1090 284512.000
   34    11     1      0.1090 284512.000
   35    11     1      0.1090 284512.000
   36    12     1      0.1090 284512.000
   37    12     1      0.1090 284512.000
   38    13     1      0.1090 284512.000
   39    13     1      0.1090 284512.000
   40    14     1      0.1090 284512.000
   41    18     1      0.1090 284512.000
   42    19     1      0.1090 284512.000
   43    19     1      0.1090 284512.000
   44    19     1      0.1090 284512.000
   45    20     1      0.1090 284512.000
   46    20     1      0.1090 284512.000
   14    13     1      0.1529 224262.400
   20    18     1      0.1529 224262.400

[ angles ]
;  ai    aj    ak funct            c0            c1            c2            c3 
    1     2     3     1    112.700    488.273
    2     3     4     1    112.700    488.273
    2     3     5     1    112.700    488.273
    2     3     6     1    111.100    527.184
    3     6     7     1    120.400    669.440
    3     6     8     1    111.400    677.808
    6     8     9     1    116.900    694.544
    8     9    10     1    109.500    418.400
    9    10    11     1    112.700    488.273
   10    11    12     1    112.700    488.273
   11    12    13     1    112.700    488.273
    8     9    14     1    109.500    418.400
    9    14    15     1    109.500    418.400
   14    15    16     1    116.900    694.544
   15    16    17     1    123.400    694.544
   15    16    18     1    111.400    677.808
   16    18    19     1    111.100    527.184
    9    10    20     1    112.700    488.273
    2     1    21     1    110.700    313.800
    2     1    22     1    110.700    313.800
    2     1    23     1    110.700    313.800
    1     2    24     1    110.700    313.800
    1     2    25     1    110.700    313.800
    3     4    26     1    110.700    313.800
    3     4    27     1    110.700    313.800
    3     4    28     1    110.700    313.800
    3     5    29     1    110.700    313.800
    3     5    30     1    110.700    313.800
    3     5    31     1    110.700    313.800
    8     9    32     1    109.500    292.880
    9    10    33     1    110.700    313.800
   10    11    34     1    110.700    313.800
   10    11    35     1    110.700    313.800
   11    12    36     1    110.700    313.800
   11    12    37     1    110.700    313.800
   12    13    38     1    110.700    313.800
   12    13    39     1    110.700    313.800
    9    14    40     1    110.700    313.800
   16    18    41     1    109.500    292.880
   18    19    42     1    110.700    313.800
   18    19    43     1    110.700    313.800
   18    19    44     1    110.700    313.800
   10    20    45     1    110.700    313.800
   10    20    46     1    110.700    313.800
   11    10    33     1    110.700    313.800
   13    12    37     1    110.700    313.800
   13    14    15     1    109.500    418.400
   45    20    46     1    107.800    276.144
   13    12    36     1    110.700    313.800
   27     4    28     1    107.800    276.144
   36    12    37     1    107.800    276.144
   26     4    27     1    107.800    276.144
   15    14    40     1    109.500    292.880
   38    13    39     1    107.800    276.144
   20    18    41     1    110.700    313.800
   18    20    46     1    110.700    313.800
   21     1    23     1    107.800    276.144
   42    19    44     1    107.800    276.144
    3     2    25     1    110.700    313.800
   14    13    39     1    110.700    313.800
    4     3     5     1    112.700    488.273
   20    10    33     1    110.700    313.800
    5     3     6     1    111.100    527.184
   18    20    45     1    110.700    313.800
   10     9    32     1    110.700    313.800
   10     9    14     1    112.700    488.273
   43    19    44     1    107.800    276.144
   29     5    30     1    107.800    276.144
   12    11    35     1    110.700    313.800
   14     9    32     1    110.700    313.800
   17    16    18     1    120.400    669.440
   13    14    40     1    110.700    313.800
   26     4    28     1    107.800    276.144
   34    11    35     1    107.800    276.144
   14    13    38     1    110.700    313.800
    9    14    13     1    112.700    488.273
   21     1    22     1    107.800    276.144
   19    18    20     1    112.700    488.273
   12    11    34     1    110.700    313.800
   19    18    41     1    110.700    313.800
   16    18    20     1    111.100    527.184
   29     5    31     1    107.800    276.144
   11    10    20     1    112.700    488.273
   10    20    18     1    112.700    488.273
   22     1    23     1    107.800    276.144
   24     2    25     1    107.800    276.144
   12    13    14     1    112.700    488.273
    7     6     8     1    123.400    694.544
    4     3     6     1    111.100    527.184
    3     2    24     1    110.700    313.800
   42    19    43     1    107.800    276.144
   30     5    31     1    107.800    276.144

[ dihedrals ]
; IMPROPER DIHEDRAL ANGLES 
;  ai    aj    ak    al funct            c0            c1            c2            c3            c4            c5
    18    16    15    17    4        180.000     43.932     2  
     8     6     3     7    4        180.000     43.932     2  

[ dihedrals ]
; PROPER DIHEDRAL ANGLES
;  ai    aj    ak    al funct            c0            c1            c2            c3            c4            c5
   16   18   20   10        3      -4.960   6.286   1.310  -2.636  -0.000   0.000
    6    3    2    1        3      -4.960   6.286   1.310  -2.636  -0.000   0.000
   16   15   14   13        3      -2.197   5.201   0.527  -3.531  -0.000   0.000
   16   15   14    9        3      -2.197   5.201   0.527  -3.531  -0.000   0.000
   18   16   15   14        3      31.206  -9.768  -21.439  -0.000  -0.000   0.000
   19   18   16   17        3       0.000   0.000   0.000  -0.000  -0.000   0.000
   20   18   16   17        3       0.000   0.000   0.000  -0.000  -0.000   0.000
   19   18   16   15        3      -1.157  -3.471   0.000   4.628  -0.000   0.000
   20   18   16   15        3      -1.157  -3.471   0.000   4.628  -0.000   0.000
    4    3    2    1        3       2.301  -1.464   0.837  -1.674  -0.000   0.000
   14   13   12   11        3       2.301  -1.464   0.837  -1.674  -0.000   0.000
   12   13   14    9        3       2.301  -1.464   0.837  -1.674  -0.000   0.000
   18   20   10   11        3       2.301  -1.464   0.837  -1.674  -0.000   0.000
   20   10   11   12        3       2.301  -1.464   0.837  -1.674  -0.000   0.000
   14    9   10   11        3       2.301  -1.464   0.837  -1.674  -0.000   0.000
   18   20   10    9        3       2.301  -1.464   0.837  -1.674  -0.000   0.000
   19   18   20   10        3       2.301  -1.464   0.837  -1.674  -0.000   0.000
    5    3    2    1        3       2.301  -1.464   0.837  -1.674  -0.000   0.000
   12   11   10    9        3       2.301  -1.464   0.837  -1.674  -0.000   0.000
   20   10    9   14        3       2.301  -1.464   0.837  -1.674  -0.000   0.000
   13   14    9   10        3       2.301  -1.464   0.837  -1.674  -0.000   0.000
   13   12   11   10        3       2.301  -1.464   0.837  -1.674  -0.000   0.000
   13   14    9    8        3       2.874   0.582   2.092  -5.548  -0.000   0.000
   11   10    9    8        3       2.874   0.582   2.092  -5.548  -0.000   0.000
   20   10    9    8        3       2.874   0.582   2.092  -5.548  -0.000   0.000
   10    9    8    6        3      -2.197   5.201   0.527  -3.531  -0.000   0.000
   14    9    8    6        3      -2.197   5.201   0.527  -3.531  -0.000   0.000
    9    8    6    3        3      31.206  -9.768  -21.439  -0.000  -0.000   0.000
    9    8    6    7        3      21.439   0.000  -21.439  -0.000  -0.000   0.000
   41   18   16   17        3       0.000   0.000   0.000  -0.000  -0.000   0.000
   41   18   16   15        3       0.276   0.828   0.000  -1.105  -0.000   0.000
   27    4    3    6        3      -0.209  -0.628   0.000   0.837  -0.000   0.000
   45   20   18   16        3      -0.209  -0.628   0.000   0.837  -0.000   0.000
   29    5    3    6        3      -0.209  -0.628   0.000   0.837  -0.000   0.000
   44   19   18   16        3      -0.209  -0.628   0.000   0.837  -0.000   0.000
   24    2    3    6        3      -0.209  -0.628   0.000   0.837  -0.000   0.000
   31    5    3    6        3      -0.209  -0.628   0.000   0.837  -0.000   0.000
   46   20   18   16        3      -0.209  -0.628   0.000   0.837  -0.000   0.000
   25    2    3    6        3      -0.209  -0.628   0.000   0.837  -0.000   0.000
   28    4    3    6        3      -0.209  -0.628   0.000   0.837  -0.000   0.000
   30    5    3    6        3      -0.209  -0.628   0.000   0.837  -0.000   0.000
   43   19   18   16        3      -0.209  -0.628   0.000   0.837  -0.000   0.000
   26    4    3    6        3      -0.209  -0.628   0.000   0.837  -0.000   0.000
   42   19   18   16        3      -0.209  -0.628   0.000   0.837  -0.000   0.000
   28    4    3    2        3       0.628   1.883   0.000  -2.510  -0.000   0.000
   30    5    3    4        3       0.628   1.883   0.000  -2.510  -0.000   0.000
   35   11   12   13        3       0.628   1.883   0.000  -2.510  -0.000   0.000
   45   20   10   11        3       0.628   1.883   0.000  -2.510  -0.000   0.000
   29    5    3    2        3       0.628   1.883   0.000  -2.510  -0.000   0.000
   26    4    3    5        3       0.628   1.883   0.000  -2.510  -0.000   0.000
   25    2    3    4        3       0.628   1.883   0.000  -2.510  -0.000   0.000
   33   10    9   14        3       0.628   1.883   0.000  -2.510  -0.000   0.000
   30    5    3    2        3       0.628   1.883   0.000  -2.510  -0.000   0.000
   32    9   10   20        3       0.628   1.883   0.000  -2.510  -0.000   0.000
   28    4    3    5        3       0.628   1.883   0.000  -2.510  -0.000   0.000
   40   14    9   10        3       0.628   1.883   0.000  -2.510  -0.000   0.000
   39   13   14    9        3       0.628   1.883   0.000  -2.510  -0.000   0.000
   31    5    3    4        3       0.628   1.883   0.000  -2.510  -0.000   0.000
   43   19   18   20        3       0.628   1.883   0.000  -2.510  -0.000   0.000
   26    4    3    2        3       0.628   1.883   0.000  -2.510  -0.000   0.000
   32    9   14   13        3       0.628   1.883   0.000  -2.510  -0.000   0.000
   45   20   18   19        3       0.628   1.883   0.000  -2.510  -0.000   0.000
   46   20   10    9        3       0.628   1.883   0.000  -2.510  -0.000   0.000
   24    2    3    4        3       0.628   1.883   0.000  -2.510  -0.000   0.000
   38   13   12   11        3       0.628   1.883   0.000  -2.510  -0.000   0.000
   41   18   20   10        3       0.628   1.883   0.000  -2.510  -0.000   0.000
   36   12   11   10        3       0.628   1.883   0.000  -2.510  -0.000   0.000
   21    1    2    3        3       0.628   1.883   0.000  -2.510  -0.000   0.000
   39   13   12   11        3       0.628   1.883   0.000  -2.510  -0.000   0.000
   33   10   20   18        3       0.628   1.883   0.000  -2.510  -0.000   0.000
   34   11   10    9        3       0.628   1.883   0.000  -2.510  -0.000   0.000
   27    4    3    2        3       0.628   1.883   0.000  -2.510  -0.000   0.000
   35   11   10    9        3       0.628   1.883   0.000  -2.510  -0.000   0.000
   38   13   14    9        3       0.628   1.883   0.000  -2.510  -0.000   0.000
   36   12   13   14        3       0.628   1.883   0.000  -2.510  -0.000   0.000
   22    1    2    3        3       0.628   1.883   0.000  -2.510  -0.000   0.000
   29    5    3    4        3       0.628   1.883   0.000  -2.510  -0.000   0.000
   32    9   10   11        3       0.628   1.883   0.000  -2.510  -0.000   0.000
   27    4    3    5        3       0.628   1.883   0.000  -2.510  -0.000   0.000
   23    1    2    3        3       0.628   1.883   0.000  -2.510  -0.000   0.000
   31    5    3    2        3       0.628   1.883   0.000  -2.510  -0.000   0.000
   42   19   18   20        3       0.628   1.883   0.000  -2.510  -0.000   0.000
   44   19   18   20        3       0.628   1.883   0.000  -2.510  -0.000   0.000
   24    2    3    5        3       0.628   1.883   0.000  -2.510  -0.000   0.000
   33   10   11   12        3       0.628   1.883   0.000  -2.510  -0.000   0.000
   40   14   13   12        3       0.628   1.883   0.000  -2.510  -0.000   0.000
   37   12   13   14        3       0.628   1.883   0.000  -2.510  -0.000   0.000
   46   20   10   11        3       0.628   1.883   0.000  -2.510  -0.000   0.000
   35   11   10   20        3       0.628   1.883   0.000  -2.510  -0.000   0.000
   34   11   10   20        3       0.628   1.883   0.000  -2.510  -0.000   0.000
   25    2    3    5        3       0.628   1.883   0.000  -2.510  -0.000   0.000
   37   12   11   10        3       0.628   1.883   0.000  -2.510  -0.000   0.000
   34   11   12   13        3       0.628   1.883   0.000  -2.510  -0.000   0.000
   45   20   10    9        3       0.628   1.883   0.000  -2.510  -0.000   0.000
   46   20   18   19        3       0.628   1.883   0.000  -2.510  -0.000   0.000
   36   12   11   34        3       0.628   1.883   0.000  -2.510  -0.000   0.000
   34   11   10   33        3       0.628   1.883   0.000  -2.510  -0.000   0.000
   45   20   10   33        3       0.628   1.883   0.000  -2.510  -0.000   0.000
   37   12   11   34        3       0.628   1.883   0.000  -2.510  -0.000   0.000
   44   19   18   41        3       0.628   1.883   0.000  -2.510  -0.000   0.000
   25    2    1   22        3       0.628   1.883   0.000  -2.510  -0.000   0.000
   24    2    1   23        3       0.628   1.883   0.000  -2.510  -0.000   0.000
   40   14   13   39        3       0.628   1.883   0.000  -2.510  -0.000   0.000
   33   10    9   32        3       0.628   1.883   0.000  -2.510  -0.000   0.000
   46   20   10   33        3       0.628   1.883   0.000  -2.510  -0.000   0.000
   45   20   18   41        3       0.628   1.883   0.000  -2.510  -0.000   0.000
   35   11   10   33        3       0.628   1.883   0.000  -2.510  -0.000   0.000
   24    2    1   21        3       0.628   1.883   0.000  -2.510  -0.000   0.000
   40   14   13   38        3       0.628   1.883   0.000  -2.510  -0.000   0.000
   36   12   11   35        3       0.628   1.883   0.000  -2.510  -0.000   0.000
   46   20   18   41        3       0.628   1.883   0.000  -2.510  -0.000   0.000
   38   13   12   36        3       0.628   1.883   0.000  -2.510  -0.000   0.000
   42   19   18   41        3       0.628   1.883   0.000  -2.510  -0.000   0.000
   25    2    1   21        3       0.628   1.883   0.000  -2.510  -0.000   0.000
   43   19   18   41        3       0.628   1.883   0.000  -2.510  -0.000   0.000
   25    2    1   23        3       0.628   1.883   0.000  -2.510  -0.000   0.000
   37   12   11   35        3       0.628   1.883   0.000  -2.510  -0.000   0.000
   38   13   12   37        3       0.628   1.883   0.000  -2.510  -0.000   0.000
   39   13   12   37        3       0.628   1.883   0.000  -2.510  -0.000   0.000
   40   14    9   32        3       0.628   1.883   0.000  -2.510  -0.000   0.000
   24    2    1   22        3       0.628   1.883   0.000  -2.510  -0.000   0.000
   39   13   12   36        3       0.628   1.883   0.000  -2.510  -0.000   0.000
   38   13   14   15        3       0.979   2.937   0.000  -3.916  -0.000   0.000
   39   13   14   15        3       0.979   2.937   0.000  -3.916  -0.000   0.000
   32    9   14   15        3       0.979   2.937   0.000  -3.916  -0.000   0.000
   40   14    9    8        3       0.979   2.937   0.000  -3.916  -0.000   0.000
   33   10    9    8        3       0.979   2.937   0.000  -3.916  -0.000   0.000
   40   14   15   16        3       0.414   1.243   0.000  -1.657  -0.000   0.000
   32    9    8    6        3       0.414   1.243   0.000  -1.657  -0.000   0.000
    7    6    3    2        3       0.000   0.000   0.000  -0.000  -0.000   0.000
    7    6    3    4        3       0.000   0.000   0.000  -0.000  -0.000   0.000
    7    6    3    5        3       0.000   0.000   0.000  -0.000  -0.000   0.000
   17   16   15   14        3      21.439   0.000  -21.439  -0.000  -0.000   0.000
    8    6    3    2        3      -1.157  -3.471   0.000   4.628  -0.000   0.000
    8    6    3    4        3      -1.157  -3.471   0.000   4.628  -0.000   0.000
    8    6    3    5        3      -1.157  -3.471   0.000   4.628  -0.000   0.000
   15   14    9   10        3       2.874   0.582   2.092  -5.548  -0.000   0.000
   15   14   13   12        3       2.874   0.582   2.092  -5.548  -0.000   0.000
   15   14    9    8        3      -1.151   1.151   0.000  -0.000  -0.000   0.000

[ pairs ]
     1     4    1
     1     5    1
     1     6    1
     2     7    1
     2     8    1
     4     7    1
     5     7    1
     4     8    1
     3     9    1
     5     8    1
     7     9    1
     6    10    1
     8    11    1
     6    14    1
     9    12    1
     8    13    1
    10    13    1
     8    15    1
     3    21    1
    11    14    1
    10    15    1
     9    16    1
     3    22    1
    10    16    1
     3    23    1
    12    15    1
     9    18    1
     8    20    1
     4    24    1
     2    26    1
    13    16    1
    11    18    1
    10    19    1
     5    24    1
     4    25    1
     2    27    1
     6    24    1
     5    25    1
     2    28    1
    14    17    1
     6    25    1
     5    26    1
     2    29    1
    14    18    1
    12    20    1
     6    26    1
     5    27    1
     2    30    1
     6    27    1
     5    28    1
     4    29    1
     2    31    1
    15    19    1
    14    20    1
     6    28    1
     4    30    1
    15    20    1
     6    29    1
     4    31    1
    17    19    1
     6    30    1
    17    20    1
     6    31    1
     6    32    1
     8    33    1
    11    32    1
     9    34    1
     9    35    1
    21    24    1
    13    32    1
    12    33    1
    22    24    1
    21    25    1
    10    36    1
    23    24    1
    22    25    1
    15    32    1
    14    33    1
    13    34    1
    10    37    1
     9    38    1
    23    25    1
    13    35    1
     9    39    1
     8    40    1
    11    38    1
    14    36    1
    11    39    1
    10    40    1
    18    33    1
    14    37    1
    10    41    1
    20    32    1
    12    40    1
    15    38    1
    20    34    1
    15    39    1
     9    45    1
    20    35    1
     9    46    1
    16    40    1
    15    41    1
    11    45    1
    11    46    1
    17    41    1
    16    42    1
    16    43    1
    16    44    1
    16    45    1
    20    42    1
    16    46    1
    20    43    1
    20    44    1
    19    45    1
    32    33    1
    19    46    1
    33    34    1
    33    35    1
    34    36    1
    35    36    1
    34    37    1
    35    37    1
    32    40    1
    36    38    1
    37    38    1
    36    39    1
    37    39    1
    38    40    1
    33    45    1
    39    40    1
    33    46    1
    41    42    1
    41    43    1
    41    44    1
    41    45    1
    41    46    1

