LIGPARGEN GENERATED GRO FILE
   40
    1UNK    C00    1   0.100   0.100   0.000
    1UNK    C01    2  -0.052   0.100   0.000
    1UNK    C02    3  -0.103   0.100   0.146
    1UNK    C03    4  -0.224   0.180   0.100
    1UNK    C04    5  -0.144   0.229  -0.028
    1UNK    C05    6  -0.077   0.363   0.008
    1UNK    C06    7  -0.223   0.232  -0.172
    1UNK    C07    8  -0.138   0.270  -0.297
    1UNK    C08    9  -0.085   0.413  -0.298
    1UNK    C09   10  -0.027   0.171  -0.330
    1UNK    C0A   11  -0.325   0.119  -0.192
    1UNK    C0B   12  -0.378   0.259  -0.185
    1UNK    C0C   13  -0.462   0.305  -0.068
    1UNK    C0D   14  -0.442   0.308  -0.315
    1UNK    H0E   15   0.137   0.007   0.044
    1UNK    H0F   16   0.141   0.183   0.058
    1UNK    H0G   17   0.141   0.105  -0.100
    1UNK    H0H   18  -0.088   0.012  -0.055
    1UNK    H0I   19  -0.040   0.154   0.218
    1UNK    H0J   20  -0.125   0.002   0.188
    1UNK    H0K   21  -0.256   0.258   0.170
    1UNK    H0M   22  -0.309   0.113   0.084
    1UNK    H0N   23  -0.046   0.367   0.113
    1UNK    H0O   24  -0.146   0.446  -0.009
    1UNK    H0P   25   0.014   0.378  -0.050
    1UNK    H0Q   26  -0.204   0.264  -0.384
    1UNK    H0R   27   0.013   0.422  -0.250
    1UNK    H0S   28  -0.155   0.483  -0.251
    1UNK    H0T   29  -0.070   0.447  -0.402
    1UNK    H0U   30   0.057   0.182  -0.263
    1UNK    H0V   31   0.011   0.190  -0.431
    1UNK    H0W   32  -0.063   0.067  -0.327
    1UNK    H0X   33  -0.348   0.050  -0.111
    1UNK    H0Y   34  -0.323   0.067  -0.287
    1UNK    H0Z   35  -0.435   0.263   0.028
    1UNK    H10   36  -0.567   0.276  -0.084
    1UNK    H11   37  -0.458   0.414  -0.059
    1UNK    H12   38  -0.404   0.258  -0.404
    1UNK    H13   39  -0.428   0.416  -0.326
    1UNK    H14   40  -0.550   0.287  -0.314
   1.00000   1.00000   1.00000

