LIGPARGEN GENERATED GRO FILE
   34
    1UNK    C00    1   0.100   0.100   0.000
    1UNK    C01    2  -0.052   0.100   0.000
    1UNK    C02    3  -0.107   0.100   0.142
    1UNK    C03    4  -0.259   0.100   0.146
    1UNK    O04    5  -0.328   0.064   0.051
    1UNK    C05    6  -0.323   0.148   0.277
    1UNK    C06    7  -0.420   0.265   0.248
    1UNK    C07    8  -0.355   0.381   0.175
    1UNK    C08    9  -0.400   0.034   0.347
    1UNK    C09   10  -0.315  -0.085   0.394
    1UNK    C0A   11  -0.209  -0.047   0.497
    1UNK    C0B   12  -0.405  -0.195   0.450
    1UNK    F0C   13  -0.250  -0.137   0.286
    1UNK    H0D   14   0.138   0.105  -0.102
    1UNK    H0E   15   0.139   0.009   0.047
    1UNK    H0F   16   0.139   0.186   0.055
    1UNK    H0G   17  -0.088   0.012  -0.055
    1UNK    H0H   18  -0.088   0.189  -0.054
    1UNK    H0I   19  -0.072   0.190   0.194
    1UNK    H0J   20  -0.071   0.012   0.197
    1UNK    H0K   21  -0.245   0.186   0.343
    1UNK    H0M   22  -0.460   0.302   0.343
    1UNK    H0N   23  -0.505   0.230   0.188
    1UNK    H0O   24  -0.258   0.408   0.220
    1UNK    H0P   25  -0.420   0.469   0.179
    1UNK    H0Q   26  -0.338   0.358   0.069
    1UNK    H0R   27  -0.477  -0.003   0.278
    1UNK    H0S   28  -0.453   0.075   0.434
    1UNK    H0T   29  -0.253   0.000   0.585
    1UNK    H0U   30  -0.134   0.021   0.454
    1UNK    H0V   31  -0.154  -0.136   0.530
    1UNK    H0W   32  -0.443  -0.170   0.550
    1UNK    H0X   33  -0.350  -0.290   0.458
    1UNK    H0Y   34  -0.490  -0.214   0.385
   1.00000   1.00000   1.00000

