LIGPARGEN GENERATED GRO FILE
   37
    1UNK    C00    1   0.100   0.100   0.000
    1UNK    O01    2  -0.042   0.100   0.000
    1UNK    C02    3  -0.098   0.100   0.123
    1UNK    O03    4  -0.038   0.104   0.230
    1UNK    O04    5  -0.233   0.094   0.109
    1UNK    C05    6  -0.309   0.093   0.230
    1UNK    C06    7  -0.307  -0.042   0.305
    1UNK    C07    8  -0.388  -0.015   0.431
    1UNK    C08    9  -0.321  -0.027   0.565
    1UNK    O09   10  -0.505   0.023   0.423
    1UNK    C0A   11  -0.365  -0.161   0.222
    1UNK    C0B   12  -0.286  -0.181   0.098
    1UNK    N0C   13  -0.223  -0.201   0.003
    1UNK    C0D   14  -0.363  -0.299   0.293
    1UNK    C0E   15  -0.452  -0.321   0.416
    1UNK    C0F   16  -0.599  -0.292   0.389
    1UNK    O0G   17  -0.432  -0.457   0.455
    1UNK    C0H   18  -0.490  -0.490   0.581
    1UNK    H0I   19   0.134   0.079  -0.102
    1UNK    H0J   20   0.140   0.022   0.066
    1UNK    H0K   21   0.137   0.199   0.030
    1UNK    H0M   22  -0.411   0.119   0.201
    1UNK    H0N   23  -0.275   0.175   0.295
    1UNK    H0O   24  -0.204  -0.066   0.333
    1UNK    H0P   25  -0.225  -0.079   0.557
    1UNK    H0Q   26  -0.386  -0.087   0.631
    1UNK    H0R   27  -0.306   0.072   0.608
    1UNK    H0S   28  -0.468  -0.137   0.193
    1UNK    H0T   29  -0.260  -0.325   0.320
    1UNK    H0U   30  -0.392  -0.376   0.219
    1UNK    H0V   31  -0.416  -0.259   0.498
    1UNK    H0W   32  -0.637  -0.354   0.307
    1UNK    H0X   33  -0.616  -0.187   0.363
    1UNK    H0Y   34  -0.661  -0.313   0.477
    1UNK    H0Z   35  -0.444  -0.583   0.617
    1UNK    H10   36  -0.597  -0.506   0.570
    1UNK    H11   37  -0.471  -0.411   0.655
   1.00000   1.00000   1.00000

