
;
; GENERATED BY LigParGen Server
; Jorgensen Lab @ Yale University 
;
[ atomtypes ]
  opls_818  H818     1.0080     0.000    A    2.50000E-01   1.25520E-01
  opls_814  C814    12.0110     0.000    A    3.50000E-01   2.76144E-01
  opls_811  C811    12.0110     0.000    A    3.30000E-01   2.76144E-01
  opls_824  H824     1.0080     0.000    A    2.50000E-01   1.25520E-01
  opls_836  H836     1.0080     0.000    A    2.50000E-01   1.25520E-01
  opls_834  H834     1.0080     0.000    A    2.50000E-01   1.25520E-01
  opls_828  H828     1.0080     0.000    A    2.50000E-01   1.25520E-01
  opls_801  O801    15.9990     0.000    A    2.90000E-01   5.85760E-01
  opls_803  O803    15.9990     0.000    A    2.96000E-01   8.78640E-01
  opls_806  C806    12.0110     0.000    A    3.50000E-01   2.76144E-01
  opls_827  H827     1.0080     0.000    A    2.50000E-01   1.25520E-01
  opls_822  H822     1.0080     0.000    A    2.50000E-01   1.25520E-01
  opls_825  H825     1.0080     0.000    A    2.50000E-01   1.25520E-01
  opls_830  H830     1.0080     0.000    A    2.50000E-01   1.25520E-01
  opls_809  O809    15.9990     0.000    A    2.96000E-01   8.78640E-01
  opls_805  C805    12.0110     0.000    A    3.50000E-01   2.76144E-01
  opls_820  H820     1.0080     0.000    A    2.50000E-01   1.25520E-01
  opls_821  H821     1.0080     0.000    A    2.50000E-01   1.25520E-01
  opls_831  H831     1.0080     0.000    A    2.50000E-01   1.25520E-01
  opls_812  N812    14.0070     0.000    A    3.20000E-01   7.11280E-01
  opls_832  H832     1.0080     0.000    A    2.50000E-01   1.25520E-01
  opls_800  C800    12.0110     0.000    A    3.50000E-01   2.76144E-01
  opls_815  C815    12.0110     0.000    A    3.50000E-01   2.76144E-01
  opls_802  C802    12.0110     0.000    A    3.55000E-01   2.92880E-01
  opls_823  H823     1.0080     0.000    A    2.50000E-01   1.25520E-01
  opls_813  C813    12.0110     0.000    A    3.50000E-01   2.76144E-01
  opls_816  O816    15.9990     0.000    A    2.90000E-01   5.85760E-01
  opls_826  H826     1.0080     0.000    A    2.50000E-01   1.25520E-01
  opls_835  H835     1.0080     0.000    A    2.50000E-01   1.25520E-01
  opls_819  H819     1.0080     0.000    A    2.50000E-01   1.25520E-01
  opls_810  C810    12.0110     0.000    A    3.50000E-01   2.76144E-01
  opls_833  H833     1.0080     0.000    A    2.50000E-01   1.25520E-01
  opls_817  C817    12.0110     0.000    A    3.50000E-01   2.76144E-01
  opls_808  C808    12.0110     0.000    A    3.50000E-01   2.76144E-01
  opls_807  C807    12.0110     0.000    A    3.55000E-01   2.92880E-01
  opls_804  O804    15.9990     0.000    A    2.90000E-01   5.85760E-01
  opls_829  H829     1.0080     0.000    A    2.50000E-01   1.25520E-01
[ moleculetype ]
; Name               nrexcl
UNK                   3
[ atoms ]
;   nr       type  resnr residue  atom   cgnr     charge       mass  
     1   opls_800      1    UNK   C00      1    -0.0437    12.0110 
     2   opls_801      1    UNK   O01      1    -0.3008    15.9990 
     3   opls_802      1    UNK   C02      1      0.571    12.0110 
     4   opls_803      1    UNK   O03      1    -0.5068    15.9990 
     5   opls_804      1    UNK   O04      1    -0.3134    15.9990 
     6   opls_805      1    UNK   C05      1     0.0258    12.0110 
     7   opls_806      1    UNK   C06      1    -0.1928    12.0110 
     8   opls_807      1    UNK   C07      1     0.3705    12.0110 
     9   opls_808      1    UNK   C08      1    -0.2967    12.0110 
    10   opls_809      1    UNK   O09      1    -0.4502    15.9990 
    11   opls_810      1    UNK   C0A      1     0.0305    12.0110 
    12   opls_811      1    UNK   C0B      1     0.1524    12.0110 
    13   opls_812      1    UNK   N0C      1    -0.3657    14.0070 
    14   opls_813      1    UNK   C0D      1    -0.1893    12.0110 
    15   opls_814      1    UNK   C0E      1     0.0777    12.0110 
    16   opls_815      1    UNK   C0F      1    -0.2846    12.0110 
    17   opls_816      1    UNK   O0G      1    -0.3859    15.9990 
    18   opls_817      1    UNK   C0H      1     -0.048    12.0110 
    19   opls_818      1    UNK   H0I      1     0.1094     1.0080 
    20   opls_819      1    UNK   H0J      1     0.1094     1.0080 
    21   opls_820      1    UNK   H0K      1     0.1094     1.0080 
    22   opls_821      1    UNK   H0M      1     0.1365     1.0080 
    23   opls_822      1    UNK   H0N      1     0.1365     1.0080 
    24   opls_823      1    UNK   H0O      1     0.1527     1.0080 
    25   opls_824      1    UNK   H0P      1     0.1244     1.0080 
    26   opls_825      1    UNK   H0Q      1     0.1244     1.0080 
    27   opls_826      1    UNK   H0R      1     0.1244     1.0080 
    28   opls_827      1    UNK   H0S      1     0.1506     1.0080 
    29   opls_828      1    UNK   H0T      1     0.1201     1.0080 
    30   opls_829      1    UNK   H0U      1     0.1201     1.0080 
    31   opls_830      1    UNK   H0V      1     0.0782     1.0080 
    32   opls_831      1    UNK   H0W      1     0.1011     1.0080 
    33   opls_832      1    UNK   H0X      2     0.1011     1.0080 
    34   opls_833      1    UNK   H0Y      2     0.1011     1.0080 
    35   opls_834      1    UNK   H0Z      2     0.0835     1.0080 
    36   opls_835      1    UNK   H10      2     0.0835     1.0080 
    37   opls_836      1    UNK   H11      2     0.0835     1.0080 
[ bonds ]
    2     1     1      0.1410 267776.000
    3     2     1      0.1327 179075.200
    4     3     1      0.1229 476976.000
    5     3     1      0.1327 179075.200
    6     5     1      0.1410 267776.000
    7     6     1      0.1529 224262.400
    8     7     1      0.1522 265265.600
    9     8     1      0.1522 265265.600
   10     8     1      0.1229 476976.000
   11     7     1      0.1529 224262.400
   12    11     1      0.1470 326352.000
   13    12     1      0.1157 543920.000
   14    11     1      0.1529 224262.400
   15    14     1      0.1529 224262.400
   16    15     1      0.1529 224262.400
   17    15     1      0.1410 267776.000
   18    17     1      0.1410 267776.000
   19     1     1      0.1090 284512.000
   20     1     1      0.1090 284512.000
   21     1     1      0.1090 284512.000
   22     6     1      0.1090 284512.000
   23     6     1      0.1090 284512.000
   24     7     1      0.1090 284512.000
   25     9     1      0.1090 284512.000
   26     9     1      0.1090 284512.000
   27     9     1      0.1090 284512.000
   28    11     1      0.1090 284512.000
   29    14     1      0.1090 284512.000
   30    14     1      0.1090 284512.000
   31    15     1      0.1090 284512.000
   32    16     1      0.1090 284512.000
   33    16     1      0.1090 284512.000
   34    16     1      0.1090 284512.000
   35    18     1      0.1090 284512.000
   36    18     1      0.1090 284512.000
   37    18     1      0.1090 284512.000

[ angles ]
;  ai    aj    ak funct            c0            c1            c2            c3 
    1     2     3     1    116.900    694.544
    2     3     4     1    123.400    694.544
    2     3     5     1    118.180    584.923
    3     5     6     1    116.900    694.544
    5     6     7     1    109.500    418.400
    6     7     8     1    111.100    527.184
    7     8     9     1    116.000    585.760
    7     8    10     1    120.400    669.440
    6     7    11     1    112.700    488.273
    7    11    12     1    112.700    488.273
   11    12    13     1    180.000   1255.200
    7    11    14     1    112.700    488.273
   11    14    15     1    112.700    488.273
   14    15    16     1    112.700    488.273
   14    15    17     1    109.500    418.400
   15    17    18     1    109.500    502.080
    2     1    19     1    109.500    292.880
    2     1    20     1    109.500    292.880
    2     1    21     1    109.500    292.880
    5     6    22     1    109.500    292.880
    5     6    23     1    109.500    292.880
    6     7    24     1    110.700    313.800
    8     9    25     1    109.500    292.880
    8     9    26     1    109.500    292.880
    8     9    27     1    109.500    292.880
    7    11    28     1    110.700    313.800
   11    14    29     1    110.700    313.800
   11    14    30     1    110.700    313.800
   14    15    31     1    110.700    313.800
   15    16    32     1    110.700    313.800
   15    16    33     1    110.700    313.800
   15    16    34     1    110.700    313.800
   17    18    35     1    109.500    292.880
   17    18    36     1    109.500    292.880
   17    18    37     1    109.500    292.880
    8     7    11     1    111.100    527.184
   36    18    37     1    107.800    276.144
   12    11    28     1    108.500    292.880
    9     8    10     1    120.400    669.440
   20     1    21     1    107.800    276.144
    7     6    22     1    110.700    313.800
   25     9    26     1    107.800    276.144
   16    15    31     1    110.700    313.800
    7     6    23     1    110.700    313.800
   17    15    31     1    109.500    292.880
    4     3     5     1    123.400    694.544
   33    16    34     1    107.800    276.144
   32    16    34     1    107.800    276.144
   19     1    21     1    107.800    276.144
   22     6    23     1    107.800    276.144
   35    18    36     1    107.800    276.144
   15    14    29     1    110.700    313.800
   15    14    30     1    110.700    313.800
   29    14    30     1    107.800    276.144
   12    11    14     1    112.700    488.273
   25     9    27     1    107.800    276.144
   11     7    24     1    110.700    313.800
   19     1    20     1    107.800    276.144
    8     7    24     1    109.500    292.880
   32    16    33     1    107.800    276.144
   14    11    28     1    110.700    313.800
   16    15    17     1    109.500    418.400
   35    18    37     1    107.800    276.144
   26     9    27     1    107.800    276.144

[ dihedrals ]
; IMPROPER DIHEDRAL ANGLES 
;  ai    aj    ak    al funct            c0            c1            c2            c3            c4            c5
    10     8     7     9    4        180.000     43.932     2  
     5     3     2     4    4        180.000     43.932     2  

[ dihedrals ]
; PROPER DIHEDRAL ANGLES
;  ai    aj    ak    al funct            c0            c1            c2            c3            c4            c5
    8    7    6    5        3      -12.929  12.929   0.000  -0.000  -0.000   0.000
    9    8    7    6        3       0.818  -7.906   0.602   6.485  -0.000   0.000
   11    7    8    9        3       0.818  -7.906   0.602   6.485  -0.000   0.000
   11    7    8   10        3       0.000   0.000   0.000  -0.000  -0.000   0.000
   14   11    7    8        3      -4.960   6.286   1.310  -2.636  -0.000   0.000
   14   11    7    6        3       2.301  -1.464   0.837  -1.674  -0.000   0.000
   16   15   14   11        3       2.301  -1.464   0.837  -1.674  -0.000   0.000
   15   14   11    7        3       2.301  -1.464   0.837  -1.674  -0.000   0.000
   15   14   11   12        3      -2.720   0.000   2.720  -0.000  -0.000   0.000
   11    7    6    5        3       2.874   0.582   2.092  -5.548  -0.000   0.000
   14   11   12   13        3       0.000   0.000   0.000  -0.000  -0.000   0.000
    7    6    5    3        3      -2.197   5.201   0.527  -3.531  -0.000   0.000
    6    5    3    4        3      21.439   0.000  -21.439  -0.000  -0.000   0.000
    6    5    3    2        3      31.206  -9.768  -21.439  -0.000  -0.000   0.000
   18   17   15   14        3       1.715   2.845   1.046  -5.607  -0.000   0.000
   18   17   15   16        3       1.715   2.845   1.046  -5.607  -0.000   0.000
   12   11    7    8        3      -4.960   6.286   1.310  -2.636  -0.000   0.000
   12   11    7    6        3      -2.720   0.000   2.720  -0.000  -0.000   0.000
   26    9    8    7        3       0.575   1.726   0.000  -2.301  -0.000   0.000
   27    9    8    7        3       0.575   1.726   0.000  -2.301  -0.000   0.000
   24    7    8    9        3       0.575   1.726   0.000  -2.301  -0.000   0.000
   25    9    8    7        3       0.575   1.726   0.000  -2.301  -0.000   0.000
   24    7    8   10        3       0.000   0.000   0.000  -0.000  -0.000   0.000
   26    9    8   10        3       0.000   0.000   0.000  -0.000  -0.000   0.000
   27    9    8   10        3       0.000   0.000   0.000  -0.000  -0.000   0.000
   25    9    8   10        3       0.000   0.000   0.000  -0.000  -0.000   0.000
   28   11    7    8        3      -0.209  -0.628   0.000   0.837  -0.000   0.000
   22    6    7    8        3      -0.209  -0.628   0.000   0.837  -0.000   0.000
   23    6    7    8        3      -0.209  -0.628   0.000   0.837  -0.000   0.000
   29   14   15   16        3       0.628   1.883   0.000  -2.510  -0.000   0.000
   22    6    7   11        3       0.628   1.883   0.000  -2.510  -0.000   0.000
   29   14   11    7        3       0.628   1.883   0.000  -2.510  -0.000   0.000
   24    7   11   14        3       0.628   1.883   0.000  -2.510  -0.000   0.000
   23    6    7   11        3       0.628   1.883   0.000  -2.510  -0.000   0.000
   31   15   14   11        3       0.628   1.883   0.000  -2.510  -0.000   0.000
   28   11   14   15        3       0.628   1.883   0.000  -2.510  -0.000   0.000
   33   16   15   14        3       0.628   1.883   0.000  -2.510  -0.000   0.000
   30   14   15   16        3       0.628   1.883   0.000  -2.510  -0.000   0.000
   28   11    7    6        3       0.628   1.883   0.000  -2.510  -0.000   0.000
   30   14   11    7        3       0.628   1.883   0.000  -2.510  -0.000   0.000
   32   16   15   14        3       0.628   1.883   0.000  -2.510  -0.000   0.000
   34   16   15   14        3       0.628   1.883   0.000  -2.510  -0.000   0.000
   24    7   11   12        3       0.766   2.297   0.000  -3.063  -0.000   0.000
   29   14   11   12        3       0.766   2.297   0.000  -3.063  -0.000   0.000
   30   14   11   12        3       0.766   2.297   0.000  -3.063  -0.000   0.000
   24    7    6   23        3       0.628   1.883   0.000  -2.510  -0.000   0.000
   34   16   15   31        3       0.628   1.883   0.000  -2.510  -0.000   0.000
   28   11    7   24        3       0.628   1.883   0.000  -2.510  -0.000   0.000
   31   15   14   29        3       0.628   1.883   0.000  -2.510  -0.000   0.000
   31   15   14   30        3       0.628   1.883   0.000  -2.510  -0.000   0.000
   33   16   15   31        3       0.628   1.883   0.000  -2.510  -0.000   0.000
   24    7    6   22        3       0.628   1.883   0.000  -2.510  -0.000   0.000
   30   14   11   28        3       0.628   1.883   0.000  -2.510  -0.000   0.000
   32   16   15   31        3       0.628   1.883   0.000  -2.510  -0.000   0.000
   29   14   11   28        3       0.628   1.883   0.000  -2.510  -0.000   0.000
   33   16   15   17        3       0.979   2.937   0.000  -3.916  -0.000   0.000
   34   16   15   17        3       0.979   2.937   0.000  -3.916  -0.000   0.000
   29   14   15   17        3       0.979   2.937   0.000  -3.916  -0.000   0.000
   32   16   15   17        3       0.979   2.937   0.000  -3.916  -0.000   0.000
   30   14   15   17        3       0.979   2.937   0.000  -3.916  -0.000   0.000
   24    7    6    5        3       0.979   2.937   0.000  -3.916  -0.000   0.000
   28   11   12   13        3       0.000   0.000   0.000  -0.000  -0.000   0.000
   21    1    2    3        3       0.414   1.243   0.000  -1.657  -0.000   0.000
   19    1    2    3        3       0.414   1.243   0.000  -1.657  -0.000   0.000
   20    1    2    3        3       0.414   1.243   0.000  -1.657  -0.000   0.000
   22    6    5    3        3       0.414   1.243   0.000  -1.657  -0.000   0.000
   23    6    5    3        3       0.414   1.243   0.000  -1.657  -0.000   0.000
   37   18   17   15        3       1.590   4.770   0.000  -6.360  -0.000   0.000
   31   15   17   18        3       1.590   4.770   0.000  -6.360  -0.000   0.000
   35   18   17   15        3       1.590   4.770   0.000  -6.360  -0.000   0.000
   36   18   17   15        3       1.590   4.770   0.000  -6.360  -0.000   0.000
   13   12   11    7        3       0.000   0.000   0.000  -0.000  -0.000   0.000
   10    8    7    6        3       0.000   0.000   0.000  -0.000  -0.000   0.000
    4    3    2    1        3      21.439   0.000  -21.439  -0.000  -0.000   0.000
    5    3    2    1        3      31.206  -9.768  -21.439  -0.000  -0.000   0.000
   17   15   14   11        3       2.874   0.582   2.092  -5.548  -0.000   0.000

[ pairs ]
     1     4    1
     1     5    1
     2     6    1
     4     6    1
     3     7    1
     5     8    1
     6     9    1
     6    10    1
     5    11    1
     6    12    1
     9    11    1
     8    12    1
     7    13    1
     6    14    1
    10    11    1
     8    14    1
     7    15    1
     3    19    1
     3    20    1
     3    21    1
     3    22    1
     3    23    1
    13    14    1
    12    15    1
    11    16    1
    11    17    1
     5    24    1
     8    22    1
     8    23    1
    14    18    1
     7    25    1
    11    22    1
     9    24    1
     7    26    1
    16    18    1
    11    23    1
    10    24    1
     7    27    1
     6    28    1
    10    25    1
    12    24    1
    10    26    1
     8    28    1
     7    29    1
    10    27    1
     7    30    1
    14    24    1
    13    28    1
    12    29    1
    12    30    1
    11    31    1
    15    28    1
    16    29    1
    22    24    1
    17    29    1
    16    30    1
    14    32    1
    23    24    1
    17    30    1
    14    33    1
    14    34    1
    18    31    1
    17    32    1
    17    33    1
    15    35    1
    17    34    1
    15    36    1
    24    28    1
    15    37    1
    28    29    1
    28    30    1
    29    31    1
    30    31    1
    31    32    1
    31    33    1
    31    34    1

