LIGPARGEN GENERATED GRO FILE
   43
    1UNK    C00    1   0.100   0.100   0.000
    1UNK    C01    2  -0.052   0.100   0.000
    1UNK    C02    3  -0.110   0.100   0.141
    1UNK    C03    4  -0.263   0.100   0.134
    1UNK    C04    5  -0.329   0.100   0.271
    1UNK    C05    6  -0.483   0.100   0.265
    1UNK    C06    7  -0.538  -0.027   0.197
    1UNK    C07    8  -0.688  -0.024   0.176
    1UNK    O08    9  -0.765   0.038   0.250
    1UNK    C09   10  -0.743  -0.103   0.058
    1UNK    C0A   11  -0.703  -0.250   0.062
    1UNK    C0B   12  -0.759  -0.326  -0.057
    1UNK    O0C   13  -0.531   0.102   0.401
    1UNK    C0D   14  -0.545   0.226   0.457
    1UNK    O0E   15  -0.513   0.331   0.402
    1UNK    C0F   16  -0.604   0.214   0.595
    1UNK    C0G   17  -0.609   0.348   0.666
    1UNK    H0H   18   0.137   0.100  -0.103
    1UNK    H0I   19   0.139   0.011   0.050
    1UNK    H0J   20   0.139   0.189   0.051
    1UNK    H0K   21  -0.087   0.012  -0.055
    1UNK    H0M   22  -0.088   0.188  -0.055
    1UNK    H0N   23  -0.075   0.188   0.197
    1UNK    H0O   24  -0.076   0.011   0.196
    1UNK    H0P   25  -0.293   0.011   0.078
    1UNK    H0Q   26  -0.297   0.188   0.077
    1UNK    H0R   27  -0.295   0.188   0.328
    1UNK    H0S   28  -0.295   0.013   0.330
    1UNK    H0T   29  -0.519   0.188   0.210
    1UNK    H0U   30  -0.513  -0.116   0.255
    1UNK    H0V   31  -0.494  -0.035   0.097
    1UNK    H0W   32  -0.706  -0.055  -0.034
    1UNK    H0X   33  -0.852  -0.094   0.058
    1UNK    H0Y   34  -0.740  -0.296   0.155
    1UNK    H0Z   35  -0.594  -0.261   0.062
    1UNK    H10   36  -0.869  -0.322  -0.059
    1UNK    H11   37  -0.729  -0.431  -0.054
    1UNK    H12   38  -0.723  -0.283  -0.151
    1UNK    H13   39  -0.542   0.145   0.653
    1UNK    H14   40  -0.705   0.173   0.586
    1UNK    H15   41  -0.509   0.393   0.674
    1UNK    H16   42  -0.649   0.337   0.767
    1UNK    H17   43  -0.672   0.419   0.611
   1.00000   1.00000   1.00000

