
;
; GENERATED BY LigParGen Server
; Jorgensen Lab @ Yale University 
;
[ atomtypes ]
  opls_818  H818     1.0080     0.000    A    2.50000E-01   1.25520E-01
  opls_824  H824     1.0080     0.000    A    2.50000E-01   1.25520E-01
  opls_815  C815    12.0110     0.000    A    3.50000E-01   2.76144E-01
  opls_808  O808    15.9990     0.000    A    2.96000E-01   8.78640E-01
  opls_836  H836     1.0080     0.000    A    2.50000E-01   1.25520E-01
  opls_834  H834     1.0080     0.000    A    2.50000E-01   1.25520E-01
  opls_810  C810    12.0110     0.000    A    3.50000E-01   2.76144E-01
  opls_828  H828     1.0080     0.000    A    2.50000E-01   1.25520E-01
  opls_812  O812    15.9990     0.000    A    2.90000E-01   5.85760E-01
  opls_802  C802    12.0110     0.000    A    3.50000E-01   2.76144E-01
  opls_827  H827     1.0080     0.000    A    2.50000E-01   1.25520E-01
  opls_809  C809    12.0110     0.000    A    3.50000E-01   2.76144E-01
  opls_806  C806    12.0110     0.000    A    3.50000E-01   2.76144E-01
  opls_822  H822     1.0080     0.000    A    2.50000E-01   1.25520E-01
  opls_803  C803    12.0110     0.000    A    3.50000E-01   2.76144E-01
  opls_838  H838     1.0080     0.000    A    2.50000E-01   1.25520E-01
  opls_825  H825     1.0080     0.000    A    2.50000E-01   1.25520E-01
  opls_830  H830     1.0080     0.000    A    2.50000E-01   1.25520E-01
  opls_821  H821     1.0080     0.000    A    2.50000E-01   1.25520E-01
  opls_842  H842     1.0080     0.000    A    2.50000E-01   1.25520E-01
  opls_820  H820     1.0080     0.000    A    2.50000E-01   1.25520E-01
  opls_837  H837     1.0080     0.000    A    2.50000E-01   1.25520E-01
  opls_813  C813    12.0110     0.000    A    3.55000E-01   2.92880E-01
  opls_829  H829     1.0080     0.000    A    2.50000E-01   1.25520E-01
  opls_831  H831     1.0080     0.000    A    2.50000E-01   1.25520E-01
  opls_832  H832     1.0080     0.000    A    2.50000E-01   1.25520E-01
  opls_800  C800    12.0110     0.000    A    3.50000E-01   2.76144E-01
  opls_805  C805    12.0110     0.000    A    3.50000E-01   2.76144E-01
  opls_816  C816    12.0110     0.000    A    3.50000E-01   2.76144E-01
  opls_811  C811    12.0110     0.000    A    3.50000E-01   2.76144E-01
  opls_823  H823     1.0080     0.000    A    2.50000E-01   1.25520E-01
  opls_826  H826     1.0080     0.000    A    2.50000E-01   1.25520E-01
  opls_835  H835     1.0080     0.000    A    2.50000E-01   1.25520E-01
  opls_841  H841     1.0080     0.000    A    2.50000E-01   1.25520E-01
  opls_819  H819     1.0080     0.000    A    2.50000E-01   1.25520E-01
  opls_804  C804    12.0110     0.000    A    3.50000E-01   2.76144E-01
  opls_833  H833     1.0080     0.000    A    2.50000E-01   1.25520E-01
  opls_839  H839     1.0080     0.000    A    2.50000E-01   1.25520E-01
  opls_801  C801    12.0110     0.000    A    3.50000E-01   2.76144E-01
  opls_807  C807    12.0110     0.000    A    3.55000E-01   2.92880E-01
  opls_817  H817     1.0080     0.000    A    2.50000E-01   1.25520E-01
  opls_814  O814    15.9990     0.000    A    2.96000E-01   8.78640E-01
  opls_840  H840     1.0080     0.000    A    2.50000E-01   1.25520E-01
[ moleculetype ]
; Name               nrexcl
UNK                   3
[ atoms ]
;   nr       type  resnr residue  atom   cgnr     charge       mass  
     1   opls_800      1    UNK   C00      1    -0.2382    12.0110 
     2   opls_801      1    UNK   C01      1    -0.1804    12.0110 
     3   opls_802      1    UNK   C02      1     -0.176    12.0110 
     4   opls_803      1    UNK   C03      1    -0.1761    12.0110 
     5   opls_804      1    UNK   C04      1    -0.2062    12.0110 
     6   opls_805      1    UNK   C05      1     0.0806    12.0110 
     7   opls_806      1    UNK   C06      1    -0.2367    12.0110 
     8   opls_807      1    UNK   C07      1     0.3605    12.0110 
     9   opls_808      1    UNK   O08      1    -0.4361    15.9990 
    10   opls_809      1    UNK   C09      1    -0.2368    12.0110 
    11   opls_810      1    UNK   C0A      1    -0.1702    12.0110 
    12   opls_811      1    UNK   C0B      1    -0.2392    12.0110 
    13   opls_812      1    UNK   O0C      1    -0.3544    15.9990 
    14   opls_813      1    UNK   C0D      1     0.4481    12.0110 
    15   opls_814      1    UNK   O0E      1    -0.4547    15.9990 
    16   opls_815      1    UNK   C0F      1    -0.1885    12.0110 
    17   opls_816      1    UNK   C0G      1    -0.2356    12.0110 
    18   opls_817      1    UNK   H0H      1     0.0821     1.0080 
    19   opls_818      1    UNK   H0I      1     0.0821     1.0080 
    20   opls_819      1    UNK   H0J      1     0.0821     1.0080 
    21   opls_820      1    UNK   H0K      1     0.0876     1.0080 
    22   opls_821      1    UNK   H0M      1     0.0876     1.0080 
    23   opls_822      1    UNK   H0N      1     0.0936     1.0080 
    24   opls_823      1    UNK   H0O      1     0.0936     1.0080 
    25   opls_824      1    UNK   H0P      1     0.0892     1.0080 
    26   opls_825      1    UNK   H0Q      1     0.0892     1.0080 
    27   opls_826      1    UNK   H0R      1     0.1067     1.0080 
    28   opls_827      1    UNK   H0S      1     0.1067     1.0080 
    29   opls_828      1    UNK   H0T      1     0.1329     1.0080 
    30   opls_829      1    UNK   H0U      1     0.1335     1.0080 
    31   opls_830      1    UNK   H0V      1     0.1335     1.0080 
    32   opls_831      1    UNK   H0W      1     0.1219     1.0080 
    33   opls_832      1    UNK   H0X      2     0.1219     1.0080 
    34   opls_833      1    UNK   H0Y      2     0.0936     1.0080 
    35   opls_834      1    UNK   H0Z      2     0.0936     1.0080 
    36   opls_835      1    UNK   H10      2      0.086     1.0080 
    37   opls_836      1    UNK   H11      2      0.086     1.0080 
    38   opls_837      1    UNK   H12      2      0.086     1.0080 
    39   opls_838      1    UNK   H13      2     0.1334     1.0080 
    40   opls_839      1    UNK   H14      2     0.1334     1.0080 
    41   opls_840      1    UNK   H15      2     0.0947     1.0080 
    42   opls_841      1    UNK   H16      2     0.0947     1.0080 
    43   opls_842      1    UNK   H17      2     0.0947     1.0080 
[ bonds ]
    2     1     1      0.1529 224262.400
    3     2     1      0.1529 224262.400
    4     3     1      0.1529 224262.400
    5     4     1      0.1529 224262.400
    6     5     1      0.1529 224262.400
    7     6     1      0.1529 224262.400
    8     7     1      0.1522 265265.600
    9     8     1      0.1229 476976.000
   10     8     1      0.1522 265265.600
   11    10     1      0.1529 224262.400
   12    11     1      0.1529 224262.400
   13     6     1      0.1410 267776.000
   14    13     1      0.1327 179075.200
   15    14     1      0.1229 476976.000
   16    14     1      0.1522 265265.600
   17    16     1      0.1529 224262.400
   18     1     1      0.1090 284512.000
   19     1     1      0.1090 284512.000
   20     1     1      0.1090 284512.000
   21     2     1      0.1090 284512.000
   22     2     1      0.1090 284512.000
   23     3     1      0.1090 284512.000
   24     3     1      0.1090 284512.000
   25     4     1      0.1090 284512.000
   26     4     1      0.1090 284512.000
   27     5     1      0.1090 284512.000
   28     5     1      0.1090 284512.000
   29     6     1      0.1090 284512.000
   30     7     1      0.1090 284512.000
   31     7     1      0.1090 284512.000
   32    10     1      0.1090 284512.000
   33    10     1      0.1090 284512.000
   34    11     1      0.1090 284512.000
   35    11     1      0.1090 284512.000
   36    12     1      0.1090 284512.000
   37    12     1      0.1090 284512.000
   38    12     1      0.1090 284512.000
   39    16     1      0.1090 284512.000
   40    16     1      0.1090 284512.000
   41    17     1      0.1090 284512.000
   42    17     1      0.1090 284512.000
   43    17     1      0.1090 284512.000

[ angles ]
;  ai    aj    ak funct            c0            c1            c2            c3 
    1     2     3     1    112.700    488.273
    2     3     4     1    112.700    488.273
    3     4     5     1    112.700    488.273
    4     5     6     1    112.700    488.273
    5     6     7     1    112.700    488.273
    6     7     8     1    111.100    527.184
    7     8     9     1    120.400    669.440
    7     8    10     1    116.000    585.760
    8    10    11     1    111.100    527.184
   10    11    12     1    112.700    488.273
    5     6    13     1    109.500    418.400
    6    13    14     1    116.900    694.544
   13    14    15     1    123.400    694.544
   13    14    16     1    111.400    677.808
   14    16    17     1    111.100    527.184
    2     1    18     1    110.700    313.800
    2     1    19     1    110.700    313.800
    2     1    20     1    110.700    313.800
    1     2    21     1    110.700    313.800
    1     2    22     1    110.700    313.800
    2     3    23     1    110.700    313.800
    2     3    24     1    110.700    313.800
    3     4    25     1    110.700    313.800
    3     4    26     1    110.700    313.800
    4     5    27     1    110.700    313.800
    4     5    28     1    110.700    313.800
    5     6    29     1    110.700    313.800
    6     7    30     1    110.700    313.800
    6     7    31     1    110.700    313.800
    8    10    32     1    109.500    292.880
    8    10    33     1    109.500    292.880
   10    11    34     1    110.700    313.800
   10    11    35     1    110.700    313.800
   11    12    36     1    110.700    313.800
   11    12    37     1    110.700    313.800
   11    12    38     1    110.700    313.800
   14    16    39     1    109.500    292.880
   14    16    40     1    109.500    292.880
   16    17    41     1    110.700    313.800
   16    17    42     1    110.700    313.800
   16    17    43     1    110.700    313.800
   11    10    33     1    110.700    313.800
   13     6    29     1    109.500    292.880
   37    12    38     1    107.800    276.144
   15    14    16     1    120.400    669.440
   36    12    38     1    107.800    276.144
    3     2    21     1    110.700    313.800
   17    16    39     1    110.700    313.800
   17    16    40     1    110.700    313.800
   39    16    40     1    107.800    276.144
    5     4    26     1    110.700    313.800
   42    17    43     1    107.800    276.144
   12    11    35     1    110.700    313.800
   11    10    32     1    110.700    313.800
   41    17    43     1    107.800    276.144
   18     1    20     1    107.800    276.144
    4     3    23     1    110.700    313.800
    3     2    22     1    110.700    313.800
   23     3    24     1    107.800    276.144
    6     5    27     1    110.700    313.800
   18     1    19     1    107.800    276.144
   36    12    37     1    107.800    276.144
   34    11    35     1    107.800    276.144
    7     6    29     1    110.700    313.800
    5     4    25     1    110.700    313.800
    8     7    31     1    109.500    292.880
    4     3    24     1    110.700    313.800
   41    17    42     1    107.800    276.144
   30     7    31     1    107.800    276.144
    7     6    13     1    109.500    418.400
   25     4    26     1    107.800    276.144
   21     2    22     1    107.800    276.144
   12    11    34     1    110.700    313.800
   19     1    20     1    107.800    276.144
    8     7    30     1    109.500    292.880
    6     5    28     1    110.700    313.800
    9     8    10     1    120.400    669.440
   27     5    28     1    107.800    276.144
   32    10    33     1    107.800    276.144

[ dihedrals ]
; IMPROPER DIHEDRAL ANGLES 
;  ai    aj    ak    al funct            c0            c1            c2            c3            c4            c5
    10     8     7     9    4        180.000     43.932     2  
    16    14    13    15    4        180.000     43.932     2  

[ dihedrals ]
; PROPER DIHEDRAL ANGLES
;  ai    aj    ak    al funct            c0            c1            c2            c3            c4            c5
    8    7    6    5        3      -4.960   6.286   1.310  -2.636  -0.000   0.000
   14   13    6    7        3      -2.197   5.201   0.527  -3.531  -0.000   0.000
   14   13    6    5        3      -2.197   5.201   0.527  -3.531  -0.000   0.000
   10    8    7    6        3       0.818  -7.906   0.602   6.485  -0.000   0.000
   16   14   13    6        3      31.206  -9.768  -21.439  -0.000  -0.000   0.000
   11   10    8    7        3       0.818  -7.906   0.602   6.485  -0.000   0.000
   17   16   14   15        3       0.000   0.000   0.000  -0.000  -0.000   0.000
   11   10    8    9        3       0.000   0.000   0.000  -0.000  -0.000   0.000
   17   16   14   13        3      -1.157  -3.471   0.000   4.628  -0.000   0.000
   12   11   10    8        3      -4.960   6.286   1.310  -2.636  -0.000   0.000
    4    3    2    1        3       2.301  -1.464   0.837  -1.674  -0.000   0.000
    7    6    5    4        3       2.301  -1.464   0.837  -1.674  -0.000   0.000
    6    5    4    3        3       2.301  -1.464   0.837  -1.674  -0.000   0.000
    5    4    3    2        3       2.301  -1.464   0.837  -1.674  -0.000   0.000
   31    7    8   10        3       0.575   1.726   0.000  -2.301  -0.000   0.000
   32   10    8    7        3       0.575   1.726   0.000  -2.301  -0.000   0.000
   30    7    8   10        3       0.575   1.726   0.000  -2.301  -0.000   0.000
   33   10    8    7        3       0.575   1.726   0.000  -2.301  -0.000   0.000
   30    7    8    9        3       0.000   0.000   0.000  -0.000  -0.000   0.000
   31    7    8    9        3       0.000   0.000   0.000  -0.000  -0.000   0.000
   39   16   14   15        3       0.000   0.000   0.000  -0.000  -0.000   0.000
   32   10    8    9        3       0.000   0.000   0.000  -0.000  -0.000   0.000
   33   10    8    9        3       0.000   0.000   0.000  -0.000  -0.000   0.000
   40   16   14   15        3       0.000   0.000   0.000  -0.000  -0.000   0.000
   40   16   14   13        3       0.276   0.828   0.000  -1.105  -0.000   0.000
   39   16   14   13        3       0.276   0.828   0.000  -1.105  -0.000   0.000
   43   17   16   14        3      -0.209  -0.628   0.000   0.837  -0.000   0.000
   35   11   10    8        3      -0.209  -0.628   0.000   0.837  -0.000   0.000
   41   17   16   14        3      -0.209  -0.628   0.000   0.837  -0.000   0.000
   34   11   10    8        3      -0.209  -0.628   0.000   0.837  -0.000   0.000
   42   17   16   14        3      -0.209  -0.628   0.000   0.837  -0.000   0.000
   29    6    7    8        3      -0.209  -0.628   0.000   0.837  -0.000   0.000
   37   12   11   10        3       0.628   1.883   0.000  -2.510  -0.000   0.000
   24    3    4    5        3       0.628   1.883   0.000  -2.510  -0.000   0.000
   32   10   11   12        3       0.628   1.883   0.000  -2.510  -0.000   0.000
   26    4    3    2        3       0.628   1.883   0.000  -2.510  -0.000   0.000
   23    3    2    1        3       0.628   1.883   0.000  -2.510  -0.000   0.000
   21    2    3    4        3       0.628   1.883   0.000  -2.510  -0.000   0.000
   24    3    2    1        3       0.628   1.883   0.000  -2.510  -0.000   0.000
   20    1    2    3        3       0.628   1.883   0.000  -2.510  -0.000   0.000
   26    4    5    6        3       0.628   1.883   0.000  -2.510  -0.000   0.000
   27    5    4    3        3       0.628   1.883   0.000  -2.510  -0.000   0.000
   22    2    3    4        3       0.628   1.883   0.000  -2.510  -0.000   0.000
   38   12   11   10        3       0.628   1.883   0.000  -2.510  -0.000   0.000
   25    4    3    2        3       0.628   1.883   0.000  -2.510  -0.000   0.000
   33   10   11   12        3       0.628   1.883   0.000  -2.510  -0.000   0.000
   18    1    2    3        3       0.628   1.883   0.000  -2.510  -0.000   0.000
   27    5    6    7        3       0.628   1.883   0.000  -2.510  -0.000   0.000
   28    5    6    7        3       0.628   1.883   0.000  -2.510  -0.000   0.000
   31    7    6    5        3       0.628   1.883   0.000  -2.510  -0.000   0.000
   29    6    5    4        3       0.628   1.883   0.000  -2.510  -0.000   0.000
   36   12   11   10        3       0.628   1.883   0.000  -2.510  -0.000   0.000
   19    1    2    3        3       0.628   1.883   0.000  -2.510  -0.000   0.000
   25    4    5    6        3       0.628   1.883   0.000  -2.510  -0.000   0.000
   23    3    4    5        3       0.628   1.883   0.000  -2.510  -0.000   0.000
   28    5    4    3        3       0.628   1.883   0.000  -2.510  -0.000   0.000
   30    7    6    5        3       0.628   1.883   0.000  -2.510  -0.000   0.000
   29    6    5   28        3       0.628   1.883   0.000  -2.510  -0.000   0.000
   38   12   11   35        3       0.628   1.883   0.000  -2.510  -0.000   0.000
   23    3    2   22        3       0.628   1.883   0.000  -2.510  -0.000   0.000
   23    3    2   21        3       0.628   1.883   0.000  -2.510  -0.000   0.000
   43   17   16   39        3       0.628   1.883   0.000  -2.510  -0.000   0.000
   28    5    4   26        3       0.628   1.883   0.000  -2.510  -0.000   0.000
   28    5    4   25        3       0.628   1.883   0.000  -2.510  -0.000   0.000
   27    5    4   26        3       0.628   1.883   0.000  -2.510  -0.000   0.000
   43   17   16   40        3       0.628   1.883   0.000  -2.510  -0.000   0.000
   41   17   16   40        3       0.628   1.883   0.000  -2.510  -0.000   0.000
   29    6    5   27        3       0.628   1.883   0.000  -2.510  -0.000   0.000
   36   12   11   34        3       0.628   1.883   0.000  -2.510  -0.000   0.000
   42   17   16   39        3       0.628   1.883   0.000  -2.510  -0.000   0.000
   22    2    1   18        3       0.628   1.883   0.000  -2.510  -0.000   0.000
   21    2    1   19        3       0.628   1.883   0.000  -2.510  -0.000   0.000
   35   11   10   33        3       0.628   1.883   0.000  -2.510  -0.000   0.000
   24    3    2   22        3       0.628   1.883   0.000  -2.510  -0.000   0.000
   42   17   16   40        3       0.628   1.883   0.000  -2.510  -0.000   0.000
   35   11   10   32        3       0.628   1.883   0.000  -2.510  -0.000   0.000
   24    3    2   21        3       0.628   1.883   0.000  -2.510  -0.000   0.000
   26    4    3   24        3       0.628   1.883   0.000  -2.510  -0.000   0.000
   30    7    6   29        3       0.628   1.883   0.000  -2.510  -0.000   0.000
   22    2    1   20        3       0.628   1.883   0.000  -2.510  -0.000   0.000
   21    2    1   18        3       0.628   1.883   0.000  -2.510  -0.000   0.000
   27    5    4   25        3       0.628   1.883   0.000  -2.510  -0.000   0.000
   41   17   16   39        3       0.628   1.883   0.000  -2.510  -0.000   0.000
   25    4    3   24        3       0.628   1.883   0.000  -2.510  -0.000   0.000
   36   12   11   35        3       0.628   1.883   0.000  -2.510  -0.000   0.000
   37   12   11   35        3       0.628   1.883   0.000  -2.510  -0.000   0.000
   37   12   11   34        3       0.628   1.883   0.000  -2.510  -0.000   0.000
   25    4    3   23        3       0.628   1.883   0.000  -2.510  -0.000   0.000
   31    7    6   29        3       0.628   1.883   0.000  -2.510  -0.000   0.000
   34   11   10   33        3       0.628   1.883   0.000  -2.510  -0.000   0.000
   22    2    1   19        3       0.628   1.883   0.000  -2.510  -0.000   0.000
   34   11   10   32        3       0.628   1.883   0.000  -2.510  -0.000   0.000
   21    2    1   20        3       0.628   1.883   0.000  -2.510  -0.000   0.000
   38   12   11   34        3       0.628   1.883   0.000  -2.510  -0.000   0.000
   26    4    3   23        3       0.628   1.883   0.000  -2.510  -0.000   0.000
   30    7    6   13        3       0.979   2.937   0.000  -3.916  -0.000   0.000
   31    7    6   13        3       0.979   2.937   0.000  -3.916  -0.000   0.000
   28    5    6   13        3       0.979   2.937   0.000  -3.916  -0.000   0.000
   27    5    6   13        3       0.979   2.937   0.000  -3.916  -0.000   0.000
   29    6   13   14        3       0.414   1.243   0.000  -1.657  -0.000   0.000
    9    8    7    6        3       0.000   0.000   0.000  -0.000  -0.000   0.000
   15   14   13    6        3      21.439   0.000  -21.439  -0.000  -0.000   0.000
   13    6    7    8        3      -12.929  12.929   0.000  -0.000  -0.000   0.000
   13    6    5    4        3       2.874   0.582   2.092  -5.548  -0.000   0.000

[ pairs ]
     1     4    1
     2     5    1
     3     6    1
     4     7    1
     5     8    1
     6     9    1
     6    10    1
     4    13    1
     7    11    1
     5    14    1
     9    11    1
     8    12    1
     8    13    1
     7    14    1
     6    15    1
     3    18    1
     6    16    1
     3    19    1
     3    20    1
     1    23    1
     4    21    1
     1    24    1
     4    22    1
     2    25    1
     5    23    1
     2    26    1
     5    24    1
    13    17    1
     3    27    1
     6    25    1
     3    28    1
    15    17    1
     6    26    1
     4    29    1
     7    27    1
     7    28    1
     5    30    1
     5    31    1
     8    29    1
    18    21    1
     9    30    1
     7    32    1
    19    21    1
    18    22    1
    13    27    1
    10    30    1
     9    31    1
     7    33    1
    20    21    1
    19    22    1
    13    28    1
    10    31    1
     9    32    1
    20    22    1
     9    33    1
     8    34    1
    14    29    1
    13    30    1
     8    35    1
    21    23    1
    13    31    1
    12    32    1
    22    23    1
    21    24    1
    12    33    1
    22    24    1
    10    36    1
    10    37    1
    23    25    1
    10    38    1
    24    25    1
    23    26    1
    24    26    1
    25    27    1
    13    39    1
    26    27    1
    25    28    1
    13    40    1
    26    28    1
    15    39    1
    15    40    1
    14    41    1
    27    29    1
    14    42    1
    28    29    1
    14    43    1
    29    30    1
    29    31    1
    32    34    1
    33    34    1
    32    35    1
    33    35    1
    34    36    1
    35    36    1
    34    37    1
    35    37    1
    34    38    1
    35    38    1
    39    41    1
    40    41    1
    39    42    1
    40    42    1
    39    43    1
    40    43    1

