
;
; GENERATED BY LigParGen Server
; Jorgensen Lab @ Yale University 
;
[ atomtypes ]
  opls_818  H818     1.0080     0.000    A    2.50000E-01   1.25520E-01
  opls_804  C804    12.0110     0.000    A    3.45000E-01   3.47272E-01
  opls_824  H824     1.0080     0.000    A    2.50000E-01   1.25520E-01
  opls_802  C802    12.0110     0.000    A    3.45000E-01   3.47272E-01
  opls_805  C805    12.0110     0.000    A    3.50000E-01   2.76144E-01
  opls_836  H836     1.0080     0.000    A    2.50000E-01   1.25520E-01
  opls_828  H828     1.0080     0.000    A    2.50000E-01   1.25520E-01
  opls_813  H813     1.0080     0.000    A    2.50000E-01   1.25520E-01
  opls_803  C803    12.0110     0.000    A    3.45000E-01   3.47272E-01
  opls_815  H815     1.0080     0.000    A    2.50000E-01   1.25520E-01
  opls_801  C801    12.0110     0.000    A    3.50000E-01   2.76144E-01
  opls_830  H830     1.0080     0.000    A    2.50000E-01   1.25520E-01
  opls_822  H822     1.0080     0.000    A    2.50000E-01   1.25520E-01
  opls_807  C807    12.0110     0.000    A    3.50000E-01   2.76144E-01
  opls_825  H825     1.0080     0.000    A    2.50000E-01   1.25520E-01
  opls_826  H826     1.0080     0.000    A    2.50000E-01   1.25520E-01
  opls_814  H814     1.0080     0.000    A    2.50000E-01   1.25520E-01
  opls_821  H821     1.0080     0.000    A    2.50000E-01   1.25520E-01
  opls_820  H820     1.0080     0.000    A    2.50000E-01   1.25520E-01
  opls_829  H829     1.0080     0.000    A    2.50000E-01   1.25520E-01
  opls_834  H834     1.0080     0.000    A    2.50000E-01   1.25520E-01
  opls_831  H831     1.0080     0.000    A    2.50000E-01   1.25520E-01
  opls_832  H832     1.0080     0.000    A    2.50000E-01   1.25520E-01
  opls_809  C809    12.0110     0.000    A    3.50000E-01   2.76144E-01
  opls_816  H816     1.0080     0.000    A    2.50000E-01   1.25520E-01
  opls_800  C800    12.0110     0.000    A    3.50000E-01   2.76144E-01
  opls_823  H823     1.0080     0.000    A    2.50000E-01   1.25520E-01
  opls_833  H833     1.0080     0.000    A    2.50000E-01   1.25520E-01
  opls_806  C806    12.0110     0.000    A    3.45000E-01   3.47272E-01
  opls_835  H835     1.0080     0.000    A    2.50000E-01   1.25520E-01
  opls_819  H819     1.0080     0.000    A    2.50000E-01   1.25520E-01
  opls_810  C810    12.0110     0.000    A    3.50000E-01   2.76144E-01
  opls_827  H827     1.0080     0.000    A    2.50000E-01   1.25520E-01
  opls_811  O811    15.9990     0.000    A    2.90000E-01   5.85760E-01
  opls_812  C812    12.0110     0.000    A    3.50000E-01   2.76144E-01
  opls_808  C808    12.0110     0.000    A    3.50000E-01   2.76144E-01
  opls_817  H817     1.0080     0.000    A    2.50000E-01   1.25520E-01
[ moleculetype ]
; Name               nrexcl
UNK                   3
[ atoms ]
;   nr       type  resnr residue  atom   cgnr     charge       mass  
     1   opls_800      1    UNK   C00      1    -0.2391    12.0110 
     2   opls_801      1    UNK   C01      1    -0.1679    12.0110 
     3   opls_802      1    UNK   C02      1    -0.1284    12.0110 
     4   opls_803      1    UNK   C03      1    -0.2059    12.0110 
     5   opls_804      1    UNK   C04      1    -0.1311    12.0110 
     6   opls_805      1    UNK   C05      1    -0.2165    12.0110 
     7   opls_806      1    UNK   C06      1    -0.1147    12.0110 
     8   opls_807      1    UNK   C07      1    -0.0920    12.0110 
     9   opls_808      1    UNK   C08      1    -0.2367    12.0110 
    10   opls_809      1    UNK   C09      1    -0.1713    12.0110 
    11   opls_810      1    UNK   C0A      1     0.0056    12.0110 
    12   opls_811      1    UNK   O0B      1    -0.3801    15.9990 
    13   opls_812      1    UNK   C0C      1    -0.0527    12.0110 
    14   opls_813      1    UNK   H0D      1     0.0811     1.0080 
    15   opls_814      1    UNK   H0E      1     0.0811     1.0080 
    16   opls_815      1    UNK   H0F      1     0.0811     1.0080 
    17   opls_816      1    UNK   H0G      1     0.0893     1.0080 
    18   opls_817      1    UNK   H0H      1     0.0893     1.0080 
    19   opls_818      1    UNK   H0I      1     0.1165     1.0080 
    20   opls_819      1    UNK   H0J      1     0.0986     1.0080 
    21   opls_820      1    UNK   H0K      1     0.0986     1.0080 
    22   opls_821      1    UNK   H0M      1     0.0941     1.0080 
    23   opls_822      1    UNK   H0N      1     0.0825     1.0080 
    24   opls_823      1    UNK   H0O      1     0.0825     1.0080 
    25   opls_824      1    UNK   H0P      1     0.0825     1.0080 
    26   opls_825      1    UNK   H0Q      1     0.1065     1.0080 
    27   opls_826      1    UNK   H0R      1     0.1173     1.0080 
    28   opls_827      1    UNK   H0S      1     0.0804     1.0080 
    29   opls_828      1    UNK   H0T      1     0.0804     1.0080 
    30   opls_829      1    UNK   H0U      1     0.0804     1.0080 
    31   opls_830      1    UNK   H0V      1     0.0995     1.0080 
    32   opls_831      1    UNK   H0W      1     0.0995     1.0080 
    33   opls_832      1    UNK   H0X      2     0.0741     1.0080 
    34   opls_833      1    UNK   H0Y      2     0.0741     1.0080 
    35   opls_834      1    UNK   H0Z      2     0.0804     1.0080 
    36   opls_835      1    UNK   H10      2     0.0804     1.0080 
    37   opls_836      1    UNK   H11      2     0.0804     1.0080 
[ bonds ]
    2     1     1      0.1529 224262.400
    3     2     1      0.1510 234304.000
    4     3     1      0.1520 217568.000
    5     4     1      0.1520 217568.000
    6     5     1      0.1510 234304.000
    7     3     1      0.1520 217568.000
    8     7     1      0.1510 234304.000
    9     8     1      0.1529 224262.400
   10     8     1      0.1529 224262.400
   11    10     1      0.1529 224262.400
   12    11     1      0.1410 267776.000
   13    12     1      0.1410 267776.000
   14     1     1      0.1090 284512.000
   15     1     1      0.1090 284512.000
   16     1     1      0.1090 284512.000
   17     2     1      0.1090 284512.000
   18     2     1      0.1090 284512.000
   19     3     1      0.1088 284512.000
   20     4     1      0.1088 284512.000
   21     4     1      0.1088 284512.000
   22     5     1      0.1088 284512.000
   23     6     1      0.1090 284512.000
   24     6     1      0.1090 284512.000
   25     6     1      0.1090 284512.000
   26     7     1      0.1088 284512.000
   27     8     1      0.1090 284512.000
   28     9     1      0.1090 284512.000
   29     9     1      0.1090 284512.000
   30     9     1      0.1090 284512.000
   31    10     1      0.1090 284512.000
   32    10     1      0.1090 284512.000
   33    11     1      0.1090 284512.000
   34    11     1      0.1090 284512.000
   35    13     1      0.1090 284512.000
   36    13     1      0.1090 284512.000
   37    13     1      0.1090 284512.000
    7     5     1      0.1520 217568.000

[ angles ]
;  ai    aj    ak funct            c0            c1            c2            c3 
    1     2     3     1    112.700    488.273
    2     3     4     1    117.200    313.800
    3     4     5     1     83.000    251.040
    4     5     6     1    117.200    313.800
    2     3     7     1    117.200    313.800
    3     7     8     1    117.200    313.800
    7     8     9     1    112.700    488.273
    7     8    10     1    112.700    488.273
    8    10    11     1    112.700    488.273
   10    11    12     1    109.500    418.400
   11    12    13     1    109.500    502.080
    2     1    14     1    110.700    313.800
    2     1    15     1    110.700    313.800
    2     1    16     1    110.700    313.800
    1     2    17     1    110.700    313.800
    1     2    18     1    110.700    313.800
    2     3    19     1    114.300    292.880
    3     4    20     1    117.200    313.800
    3     4    21     1    117.200    313.800
    4     5    22     1    117.200    313.800
    5     6    23     1    110.700    313.800
    5     6    24     1    110.700    313.800
    5     6    25     1    110.700    313.800
    3     7    26     1    117.200    313.800
    7     8    27     1    110.700    313.800
    8     9    28     1    110.700    313.800
    8     9    29     1    110.700    313.800
    8     9    30     1    110.700    313.800
    8    10    31     1    110.700    313.800
    8    10    32     1    110.700    313.800
   10    11    33     1    110.700    313.800
   10    11    34     1    110.700    313.800
   12    13    35     1    109.500    292.880
   12    13    36     1    109.500    292.880
   12    13    37     1    109.500    292.880
    5     7     8     1    117.200    313.800
   29     9    30     1    107.800    276.144
   33    11    34     1    107.800    276.144
    8     7    26     1    114.300    292.880
    3     2    18     1    110.700    313.800
    7     3    19     1    117.200    313.800
    4     3     7     1     83.000    251.040
    6     5    22     1    114.300    292.880
    3     2    17     1    110.700    313.800
    4     3    19     1    117.200    313.800
   35    13    36     1    107.800    276.144
   11    10    32     1    110.700    313.800
    4     5     7     1     83.000    251.040
   28     9    30     1    107.800    276.144
   35    13    37     1    107.800    276.144
   12    11    33     1    109.500    292.880
   36    13    37     1    107.800    276.144
   10     8    27     1    110.700    313.800
    6     5     7     1    117.200    313.800
   15     1    16     1    107.800    276.144
   14     1    15     1    107.800    276.144
   12    11    34     1    109.500    292.880
   17     2    18     1    107.800    276.144
    3     7     5     1     83.000    251.040
   11    10    31     1    110.700    313.800
   23     6    24     1    107.800    276.144
    5     4    20     1    117.200    313.800
    5     7    26     1    117.200    313.800
   31    10    32     1    107.800    276.144
   24     6    25     1    107.800    276.144
   14     1    16     1    107.800    276.144
    5     4    21     1    117.200    313.800
   23     6    25     1    107.800    276.144
    7     5    22     1    117.200    313.800
    9     8    10     1    112.700    488.273
   20     4    21     1    114.300    292.880
    9     8    27     1    110.700    313.800
   28     9    29     1    107.800    276.144

[ dihedrals ]
; IMPROPER DIHEDRAL ANGLES 
;  ai    aj    ak    al funct            c0            c1            c2            c3            c4            c5

[ dihedrals ]
; PROPER DIHEDRAL ANGLES
;  ai    aj    ak    al funct            c0            c1            c2            c3            c4            c5
   11   10    8    9        3       2.301  -1.464   0.837  -1.674  -0.000   0.000
   11   10    8    7        3       2.301  -1.464   0.837  -1.674  -0.000   0.000
   10    8    7    5        3       0.000   0.000   0.000  -0.000  -0.000   0.000
    9    8    7    5        3       0.000   0.000   0.000  -0.000  -0.000   0.000
    9    8    7    3        3       0.000   0.000   0.000  -0.000  -0.000   0.000
   10    8    7    3        3       0.000   0.000   0.000  -0.000  -0.000   0.000
    8    7    3    2        3       0.000   0.000   0.000  -0.000  -0.000   0.000
    8    7    5    6        3       0.000   0.000   0.000  -0.000  -0.000   0.000
    6    5    4    3        3       0.000   0.000   0.000  -0.000  -0.000   0.000
    8    7    3    4        3       0.000   0.000   0.000  -0.000  -0.000   0.000
    8    7    5    4        3       0.000   0.000   0.000  -0.000  -0.000   0.000
    6    5    7    3        3       0.000   0.000   0.000  -0.000  -0.000   0.000
   13   12   11   10        3       1.715   2.845   1.046  -5.607  -0.000   0.000
    7    3    2    1        3       0.000   0.000   0.000  -0.000  -0.000   0.000
    4    3    2    1        3       0.000   0.000   0.000  -0.000  -0.000   0.000
    5    4    3    2        3       0.000   0.000   0.000  -0.000  -0.000   0.000
    5    7    3    2        3       0.000   0.000   0.000  -0.000  -0.000   0.000
   34   11   10    8        3       0.628   1.883   0.000  -2.510  -0.000   0.000
   28    9    8   10        3       0.628   1.883   0.000  -2.510  -0.000   0.000
   30    9    8   10        3       0.628   1.883   0.000  -2.510  -0.000   0.000
   27    8   10   11        3       0.628   1.883   0.000  -2.510  -0.000   0.000
   31   10    8    9        3       0.628   1.883   0.000  -2.510  -0.000   0.000
   33   11   10    8        3       0.628   1.883   0.000  -2.510  -0.000   0.000
   29    9    8   10        3       0.628   1.883   0.000  -2.510  -0.000   0.000
   32   10    8    9        3       0.628   1.883   0.000  -2.510  -0.000   0.000
   29    9    8    7        3       0.628   1.883   0.000  -2.510  -0.000   0.000
   30    9    8    7        3       0.628   1.883   0.000  -2.510  -0.000   0.000
   32   10    8    7        3       0.628   1.883   0.000  -2.510  -0.000   0.000
   16    1    2    3        3       0.628   1.883   0.000  -2.510  -0.000   0.000
   15    1    2    3        3       0.628   1.883   0.000  -2.510  -0.000   0.000
   31   10    8    7        3       0.628   1.883   0.000  -2.510  -0.000   0.000
   28    9    8    7        3       0.628   1.883   0.000  -2.510  -0.000   0.000
   14    1    2    3        3       0.628   1.883   0.000  -2.510  -0.000   0.000
   32   10    8   27        3       0.628   1.883   0.000  -2.510  -0.000   0.000
   18    2    1   14        3       0.628   1.883   0.000  -2.510  -0.000   0.000
   17    2    1   15        3       0.628   1.883   0.000  -2.510  -0.000   0.000
   18    2    1   15        3       0.628   1.883   0.000  -2.510  -0.000   0.000
   17    2    1   16        3       0.628   1.883   0.000  -2.510  -0.000   0.000
   30    9    8   27        3       0.628   1.883   0.000  -2.510  -0.000   0.000
   34   11   10   31        3       0.628   1.883   0.000  -2.510  -0.000   0.000
   33   11   10   32        3       0.628   1.883   0.000  -2.510  -0.000   0.000
   17    2    1   14        3       0.628   1.883   0.000  -2.510  -0.000   0.000
   34   11   10   32        3       0.628   1.883   0.000  -2.510  -0.000   0.000
   29    9    8   27        3       0.628   1.883   0.000  -2.510  -0.000   0.000
   33   11   10   31        3       0.628   1.883   0.000  -2.510  -0.000   0.000
   18    2    1   16        3       0.628   1.883   0.000  -2.510  -0.000   0.000
   31   10    8   27        3       0.628   1.883   0.000  -2.510  -0.000   0.000
   28    9    8   27        3       0.628   1.883   0.000  -2.510  -0.000   0.000
   32   10   11   12        3       0.979   2.937   0.000  -3.916  -0.000   0.000
   31   10   11   12        3       0.979   2.937   0.000  -3.916  -0.000   0.000
   27    8    7    5        3       0.628   1.883   0.000  -2.510  -0.000   0.000
   24    6    5    7        3       0.628   1.883   0.000  -2.510  -0.000   0.000
   24    6    5    4        3       0.628   1.883   0.000  -2.510  -0.000   0.000
   25    6    5    7        3       0.628   1.883   0.000  -2.510  -0.000   0.000
   17    2    3    7        3       0.628   1.883   0.000  -2.510  -0.000   0.000
   18    2    3    4        3       0.628   1.883   0.000  -2.510  -0.000   0.000
   23    6    5    7        3       0.628   1.883   0.000  -2.510  -0.000   0.000
   17    2    3    4        3       0.628   1.883   0.000  -2.510  -0.000   0.000
   23    6    5    4        3       0.628   1.883   0.000  -2.510  -0.000   0.000
   27    8    7    3        3       0.628   1.883   0.000  -2.510  -0.000   0.000
   18    2    3    7        3       0.628   1.883   0.000  -2.510  -0.000   0.000
   25    6    5    4        3       0.628   1.883   0.000  -2.510  -0.000   0.000
   23    6    5   22        3       0.628   1.883   0.000  -2.510  -0.000   0.000
   24    6    5   22        3       0.628   1.883   0.000  -2.510  -0.000   0.000
   25    6    5   22        3       0.628   1.883   0.000  -2.510  -0.000   0.000
   27    8    7   26        3       0.628   1.883   0.000  -2.510  -0.000   0.000
   33   11   12   13        3       1.590   4.770   0.000  -6.360  -0.000   0.000
   37   13   12   11        3       1.590   4.770   0.000  -6.360  -0.000   0.000
   35   13   12   11        3       1.590   4.770   0.000  -6.360  -0.000   0.000
   36   13   12   11        3       1.590   4.770   0.000  -6.360  -0.000   0.000
   34   11   12   13        3       1.590   4.770   0.000  -6.360  -0.000   0.000
   26    7    8   10        3       0.628   1.883   0.000  -2.510  -0.000   0.000
   19    3    2    1        3       0.628   1.883   0.000  -2.510  -0.000   0.000
   26    7    8    9        3       0.628   1.883   0.000  -2.510  -0.000   0.000
   19    3    2   17        3       0.628   1.883   0.000  -2.510  -0.000   0.000
   19    3    2   18        3       0.628   1.883   0.000  -2.510  -0.000   0.000
   21    4    5    6        3       0.000   0.000   0.000  -0.000  -0.000   0.000
   20    4    5    6        3       0.000   0.000   0.000  -0.000  -0.000   0.000
   22    5    7    8        3       0.000   0.000   0.000  -0.000  -0.000   0.000
   20    4    3    2        3       0.000   0.000   0.000  -0.000  -0.000   0.000
   26    7    5    6        3       0.000   0.000   0.000  -0.000  -0.000   0.000
   26    7    3    2        3       0.000   0.000   0.000  -0.000  -0.000   0.000
   21    4    3    2        3       0.000   0.000   0.000  -0.000  -0.000   0.000
   19    3    7    8        3       0.000   0.000   0.000  -0.000  -0.000   0.000
   22    5    4    3        3       0.000   0.000   0.000  -0.000  -0.000   0.000
   20    4    3    7        3       0.000   0.000   0.000  -0.000  -0.000   0.000
   20    4    5    7        3       0.000   0.000   0.000  -0.000  -0.000   0.000
   22    5    7    3        3       0.000   0.000   0.000  -0.000  -0.000   0.000
   19    3    4    5        3       0.000   0.000   0.000  -0.000  -0.000   0.000
   26    7    3    4        3       0.000   0.000   0.000  -0.000  -0.000   0.000
   26    7    5    4        3       0.000   0.000   0.000  -0.000  -0.000   0.000
   21    4    5    7        3       0.000   0.000   0.000  -0.000  -0.000   0.000
   19    3    7    5        3       0.000   0.000   0.000  -0.000  -0.000   0.000
   21    4    3    7        3       0.000   0.000   0.000  -0.000  -0.000   0.000
   26    7    5   22        3       0.000   0.000   0.000  -0.000  -0.000   0.000
   22    5    4   20        3       0.000   0.000   0.000  -0.000  -0.000   0.000
   26    7    3   19        3       0.000   0.000   0.000  -0.000  -0.000   0.000
   20    4    3   19        3       0.000   0.000   0.000  -0.000  -0.000   0.000
   22    5    4   21        3       0.000   0.000   0.000  -0.000  -0.000   0.000
   21    4    3   19        3       0.000   0.000   0.000  -0.000  -0.000   0.000
   12   11   10    8        3       2.874   0.582   2.092  -5.548  -0.000   0.000

[ pairs ]
     1     4    1
     2     5    1
     1     7    1
     3     6    1
     2     8    1
     4     8    1
     3     9    1
     3    10    1
     6     8    1
     5     9    1
     5    10    1
     3    14    1
     7    11    1
     3    15    1
     3    16    1
     9    11    1
     8    12    1
     1    19    1
     4    17    1
     4    18    1
     2    20    1
    10    13    1
     2    21    1
     7    17    1
     5    19    1
     7    18    1
     3    22    1
     6    20    1
     8    19    1
     7    20    1
     6    21    1
     4    23    1
     7    21    1
     4    24    1
     2    26    1
     4    25    1
     8    22    1
     7    23    1
     4    26    1
     3    27    1
    14    17    1
     7    24    1
    15    17    1
    14    18    1
     7    25    1
     6    26    1
     5    27    1
    16    17    1
    15    18    1
    16    18    1
     9    26    1
     7    28    1
    17    19    1
    10    26    1
     7    29    1
    18    19    1
     7    30    1
    11    27    1
    10    28    1
     7    31    1
    19    20    1
    10    29    1
     7    32    1
    19    21    1
    10    30    1
     9    31    1
     9    32    1
     8    33    1
    20    22    1
     8    34    1
    21    22    1
    12    31    1
    12    32    1
    22    23    1
    19    26    1
    22    24    1
    13    33    1
    11    35    1
    22    25    1
    13    34    1
    11    36    1
    22    26    1
    11    37    1
    26    27    1
    27    28    1
    27    29    1
    27    30    1
    27    31    1
    27    32    1
    31    33    1
    32    33    1
    31    34    1
    32    34    1

