LIGPARGEN GENERATED GRO FILE
   37
    1UNK    C00    1   0.100   0.100   0.000
    1UNK    C01    2  -0.052   0.100   0.000
    1UNK    C02    3  -0.106   0.100   0.142
    1UNK    C03    4  -0.262   0.094   0.151
    1UNK    C04    5  -0.246   0.013   0.282
    1UNK    C05    6  -0.257   0.098   0.407
    1UNK    C06    7  -0.106  -0.033   0.226
    1UNK    C07    8   0.012  -0.075   0.316
    1UNK    C08    9   0.070   0.042   0.396
    1UNK    C09   10  -0.028  -0.189   0.412
    1UNK    C0A   11  -0.069  -0.319   0.343
    1UNK    O0B   12   0.039  -0.366   0.263
    1UNK    C0C   13   0.006  -0.488   0.196
    1UNK    H0D   14   0.138   0.108  -0.102
    1UNK    H0E   15   0.139   0.008   0.044
    1UNK    H0F   16   0.139   0.184   0.058
    1UNK    H0G   17  -0.089   0.013  -0.056
    1UNK    H0H   18  -0.087   0.190  -0.052
    1UNK    H0I   19  -0.068   0.187   0.197
    1UNK    H0J   20  -0.309   0.036   0.070
    1UNK    H0K   21  -0.312   0.190   0.159
    1UNK    H0M   22  -0.317  -0.071   0.290
    1UNK    H0N   23  -0.191   0.185   0.404
    1UNK    H0O   24  -0.232   0.040   0.497
    1UNK    H0P   25  -0.359   0.135   0.419
    1UNK    H0Q   26  -0.121  -0.118   0.156
    1UNK    H0R   27   0.092  -0.111   0.251
    1UNK    H0S   28   0.002   0.076   0.474
    1UNK    H0T   29   0.095   0.127   0.333
    1UNK    H0U   30   0.162   0.010   0.446
    1UNK    H0V   31  -0.111  -0.157   0.477
    1UNK    H0W   32   0.057  -0.211   0.476
    1UNK    H0X   33  -0.158  -0.305   0.281
    1UNK    H0Y   34  -0.092  -0.394   0.419
    1UNK    H0Z   35   0.092  -0.518   0.137
    1UNK    H10   36  -0.079  -0.472   0.129
    1UNK    H11   37  -0.016  -0.566   0.269
   1.00000   1.00000   1.00000

