
;
; GENERATED BY LigParGen Server
; Jorgensen Lab @ Yale University 
;
[ atomtypes ]
  opls_808  H808     1.0080     0.000    A    0.00000E+00   0.00000E+00
  opls_806  C806    12.0110     0.000    A    3.55000E-01   3.17984E-01
  opls_801  C801    12.0110     0.000    A    3.55000E-01   3.17984E-01
  opls_810  H810     1.0080     0.000    A    2.42000E-01   1.25520E-01
  opls_803 Cl803    35.4500     0.000    A    3.40000E-01   1.25520E+00
  opls_805  C805    12.0110     0.000    A    3.55000E-01   3.17984E-01
  opls_800  O800    15.9990     0.000    A    3.12000E-01   7.11280E-01
  opls_807  S807    32.0600     0.000    A    3.60000E-01   1.48532E+00
  opls_804  S804    32.0600     0.000    A    3.60000E-01   1.48532E+00
  opls_802  C802    12.0110     0.000    A    3.55000E-01   3.17984E-01
  opls_809  H809     1.0080     0.000    A    2.42000E-01   1.25520E-01
[ moleculetype ]
; Name               nrexcl
UNK                   3
[ atoms ]
;   nr       type  resnr residue  atom   cgnr     charge       mass  
     1   opls_800      1    UNK   O00      1    -0.4644    15.9990 
     2   opls_801      1    UNK   C01      1     0.1152    12.0110 
     3   opls_802      1    UNK   C02      1    -0.2278    12.0110 
     4   opls_803      1    UNK   Cl0      1    -0.0343    35.4500 
     5   opls_804      1    UNK   S04      1     0.0809    32.0600 
     6   opls_805      1    UNK   C05      1    -0.1769    12.0110 
     7   opls_806      1    UNK   C06      1    -0.1947    12.0110 
     8   opls_807      1    UNK   S07      1     0.0713    32.0600 
     9   opls_808      1    UNK   H08      1     0.4417     1.0080 
    10   opls_809      1    UNK   H09      1     0.1943     1.0080 
    11   opls_810      1    UNK   H0A      1     0.1948     1.0080 
[ bonds ]
    2     1     1      0.1370 376560.000
    3     2     1      0.1340 459403.200
    4     3     1      0.1725 251040.000
    5     3     1      0.1760 209200.000
    6     5     1      0.1760 209200.000
    7     6     1      0.1340 459403.200
    8     2     1      0.1760 209200.000
    9     1     1      0.0945 462750.400
   10     6     1      0.1080 307105.600
   11     7     1      0.1080 307105.600
    8     7     1      0.1760 209200.000

[ angles ]
;  ai    aj    ak funct            c0            c1            c2            c3 
    1     2     3     1    123.000    585.760
    2     3     4     1    121.500    627.600
    2     3     5     1    119.400    711.280
    3     5     6     1    104.200    518.816
    5     6     7     1    119.400    711.280
    1     2     8     1    118.760    505.678
    2     1     9     1    109.000    292.880
    5     6    10     1    118.760    505.678
    6     7    11     1    120.000    292.880
    2     8     7     1    104.200    518.816
    6     7     8     1    119.400    711.280
    8     7    11     1    118.760    505.678
    7     6    10     1    120.000    292.880
    4     3     5     1    118.760    505.678
    3     2     8     1    119.400    711.280

[ dihedrals ]
; IMPROPER DIHEDRAL ANGLES 
;  ai    aj    ak    al funct            c0            c1            c2            c3            c4            c5
    11     7     6     8    4        180.000     10.460     2  
    10     6     5     7    4        180.000     10.460     2  
     5     3     2     4    4        180.000     10.460     2  
     8     2     1     3    4        180.000     10.460     2  

[ dihedrals ]
; PROPER DIHEDRAL ANGLES
;  ai    aj    ak    al funct            c0            c1            c2            c3            c4            c5
    7    6    5    3        3       0.941   2.314   2.410  -5.665  -0.000   0.000
    6    7    8    2        3       0.941   2.314   2.410  -5.665  -0.000   0.000
    6    5    3    2        3       0.941   2.314   2.410  -5.665  -0.000   0.000
    7    8    2    3        3       0.941   2.314   2.410  -5.665  -0.000   0.000
    6    5    3    4        3       0.941   2.314   2.410  -5.665  -0.000   0.000
    7    8    2    1        3      30.334   0.000  -30.334  -0.000  -0.000   0.000
    4    3    2    1        3      58.576   0.000  -58.576  -0.000  -0.000   0.000
   11    7    6   10        3      58.576   0.000  -58.576  -0.000  -0.000   0.000
   10    6    7    8        3      58.576   0.000  -58.576  -0.000  -0.000   0.000
   11    7    6    5        3      58.576   0.000  -58.576  -0.000  -0.000   0.000
   10    6    5    3        3      30.334   0.000  -30.334  -0.000  -0.000   0.000
   11    7    8    2        3      30.334   0.000  -30.334  -0.000  -0.000   0.000
    9    1    2    3        3       7.037   0.000  -7.037  -0.000  -0.000   0.000
    9    1    2    8        3       7.037   0.000  -7.037  -0.000  -0.000   0.000
    8    2    3    4        3      58.576   0.000  -58.576  -0.000  -0.000   0.000
    5    3    2    1        3      58.576   0.000  -58.576  -0.000  -0.000   0.000
    8    7    6    5        3      58.576   0.000  -58.576  -0.000  -0.000   0.000
    8    2    3    5        3      58.576   0.000  -58.576  -0.000  -0.000   0.000

[ pairs ]
     1     4    1
     1     5    1
     2     6    1
     1     7    1
     4     6    1
     3     7    1
     4     8    1
     3     9    1
     5     8    1
     3    10    1
     2    11    1
     5    11    1
     8     9    1
     8    10    1
    10    11    1

