LIGPARGEN GENERATED GRO FILE
   11
    1UNK    O00    1   0.100   0.100   0.000
    1UNK    C01    2  -0.039   0.100   0.000
    1UNK    C02    3  -0.109   0.100   0.115
    1UNK    Cl0    4  -0.022   0.100   0.267
    1UNK    S04    5  -0.281   0.100   0.131
    1UNK    C05    6  -0.324   0.014  -0.012
    1UNK    C06    7  -0.256   0.014  -0.127
    1UNK    S07    8  -0.110   0.107  -0.158
    1UNK    H08    9   0.129   0.100   0.093
    1UNK    H09   10  -0.417  -0.042  -0.008
    1UNK    H0A   11  -0.294  -0.044  -0.210
   1.00000   1.00000   1.00000

