
;
; GENERATED BY LigParGen Server
; Jorgensen Lab @ Yale University 
;
[ atomtypes ]
  opls_818  H818     1.0080     0.000    A    2.50000E-01   1.25520E-01
  opls_802  S802    32.0600     0.000    A    3.55000E-01   1.04600E+00
  opls_814  C814    12.0110     0.000    A    3.50000E-01   2.76144E-01
  opls_824  H824     1.0080     0.000    A    2.50000E-01   1.25520E-01
  opls_805  C805    12.0110     0.000    A    3.50000E-01   2.76144E-01
  opls_833  H833     1.0080     0.000    A    2.50000E-01   1.25520E-01
  opls_843  H843     1.0080     0.000    A    2.50000E-01   1.25520E-01
  opls_836  H836     1.0080     0.000    A    2.50000E-01   1.25520E-01
  opls_834  H834     1.0080     0.000    A    2.50000E-01   1.25520E-01
  opls_810  C810    12.0110     0.000    A    3.50000E-01   2.76144E-01
  opls_828  H828     1.0080     0.000    A    2.50000E-01   1.25520E-01
  opls_801  O801    15.9990     0.000    A    2.90000E-01   5.85760E-01
  opls_806  N806    14.0070     0.000    A    3.30000E-01   7.11280E-01
  opls_811  C811    12.0110     0.000    A    3.50000E-01   2.76144E-01
  opls_804  O804    15.9990     0.000    A    2.96000E-01   7.11280E-01
  opls_809  C809    12.0110     0.000    A    3.50000E-01   2.76144E-01
  opls_838  H838     1.0080     0.000    A    2.50000E-01   1.25520E-01
  opls_822  H822     1.0080     0.000    A    2.50000E-01   1.25520E-01
  opls_807  C807    12.0110     0.000    A    3.50000E-01   2.76144E-01
  opls_825  H825     1.0080     0.000    A    2.50000E-01   1.25520E-01
  opls_830  H830     1.0080     0.000    A    2.50000E-01   1.25520E-01
  opls_803  O803    15.9990     0.000    A    2.96000E-01   7.11280E-01
  opls_821  H821     1.0080     0.000    A    2.50000E-01   1.25520E-01
  opls_842  H842     1.0080     0.000    A    2.50000E-01   1.25520E-01
  opls_820  H820     1.0080     0.000    A    2.50000E-01   1.25520E-01
  opls_837  H837     1.0080     0.000    A    2.50000E-01   1.25520E-01
  opls_829  H829     1.0080     0.000    A    2.50000E-01   1.25520E-01
  opls_831  H831     1.0080     0.000    A    2.50000E-01   1.25520E-01
  opls_832  H832     1.0080     0.000    A    2.50000E-01   1.25520E-01
  opls_800  C800    12.0110     0.000    A    3.50000E-01   2.76144E-01
  opls_846  H846     1.0080     0.000    A    2.50000E-01   1.25520E-01
  opls_815  C815    12.0110     0.000    A    3.50000E-01   2.76144E-01
  opls_823  H823     1.0080     0.000    A    2.50000E-01   1.25520E-01
  opls_813  C813    12.0110     0.000    A    3.50000E-01   2.76144E-01
  opls_826  H826     1.0080     0.000    A    2.50000E-01   1.25520E-01
  opls_835  H835     1.0080     0.000    A    2.50000E-01   1.25520E-01
  opls_841  H841     1.0080     0.000    A    2.50000E-01   1.25520E-01
  opls_819  H819     1.0080     0.000    A    2.50000E-01   1.25520E-01
  opls_816  C816    12.0110     0.000    A    3.50000E-01   2.76144E-01
  opls_827  H827     1.0080     0.000    A    2.50000E-01   1.25520E-01
  opls_839  H839     1.0080     0.000    A    2.50000E-01   1.25520E-01
  opls_817  C817    12.0110     0.000    A    3.50000E-01   2.76144E-01
  opls_812  C812    12.0110     0.000    A    3.50000E-01   2.76144E-01
  opls_808  C808    12.0110     0.000    A    3.50000E-01   2.76144E-01
  opls_840  H840     1.0080     0.000    A    2.50000E-01   1.25520E-01
  opls_844  H844     1.0080     0.000    A    2.50000E-01   1.25520E-01
  opls_845  H845     1.0080     0.000    A    2.50000E-01   1.25520E-01
[ moleculetype ]
; Name               nrexcl
UNK                   3
[ atoms ]
;   nr       type  resnr residue  atom   cgnr     charge       mass  
     1   opls_800      1    UNK   C00      1     0.0216    12.0110 
     2   opls_801      1    UNK   O01      1    -0.5564    15.9990 
     3   opls_802      1    UNK   S02      1      1.346    32.0600 
     4   opls_803      1    UNK   O03      1    -0.5628    15.9990 
     5   opls_804      1    UNK   O04      1    -0.5628    15.9990 
     6   opls_805      1    UNK   C05      1    -0.2541    12.0110 
     7   opls_806      1    UNK   N06      1    -0.4847    14.0070 
     8   opls_807      1    UNK   C07      1    -0.0953    12.0110 
     9   opls_808      1    UNK   C08      1     0.0093    12.0110 
    10   opls_809      1    UNK   C09      1    -0.1859    12.0110 
    11   opls_810      1    UNK   C0A      1    -0.1769    12.0110 
    12   opls_811      1    UNK   C0B      1    -0.1784    12.0110 
    13   opls_812      1    UNK   C0C      1    -0.1755    12.0110 
    14   opls_813      1    UNK   C0D      1    -0.1665    12.0110 
    15   opls_814      1    UNK   C0E      1    -0.0537    12.0110 
    16   opls_815      1    UNK   C0F      1     -0.228    12.0110 
    17   opls_816      1    UNK   C0G      1    -0.2313    12.0110 
    18   opls_817      1    UNK   C0H      1    -0.2279    12.0110 
    19   opls_818      1    UNK   H0I      1     0.1151     1.0080 
    20   opls_819      1    UNK   H0J      1     0.1151     1.0080 
    21   opls_820      1    UNK   H0K      1     0.1151     1.0080 
    22   opls_821      1    UNK   H0M      1     0.1465     1.0080 
    23   opls_822      1    UNK   H0N      1     0.1465     1.0080 
    24   opls_823      1    UNK   H0O      1     0.0979     1.0080 
    25   opls_824      1    UNK   H0P      1     0.0979     1.0080 
    26   opls_825      1    UNK   H0Q      1     0.0979     1.0080 
    27   opls_826      1    UNK   H0R      1      0.088     1.0080 
    28   opls_827      1    UNK   H0S      1      0.088     1.0080 
    29   opls_828      1    UNK   H0T      1     0.1006     1.0080 
    30   opls_829      1    UNK   H0U      1     0.1006     1.0080 
    31   opls_830      1    UNK   H0V      1     0.0922     1.0080 
    32   opls_831      1    UNK   H0W      1     0.0922     1.0080 
    33   opls_832      1    UNK   H0X      2     0.0897     1.0080 
    34   opls_833      1    UNK   H0Y      2     0.0897     1.0080 
    35   opls_834      1    UNK   H0Z      2     0.0905     1.0080 
    36   opls_835      1    UNK   H10      2     0.0905     1.0080 
    37   opls_836      1    UNK   H11      2     0.0886     1.0080 
    38   opls_837      1    UNK   H12      2     0.0886     1.0080 
    39   opls_838      1    UNK   H13      2     0.0811     1.0080 
    40   opls_839      1    UNK   H14      2     0.0811     1.0080 
    41   opls_840      1    UNK   H15      2     0.0811     1.0080 
    42   opls_841      1    UNK   H16      2     0.0815     1.0080 
    43   opls_842      1    UNK   H17      2     0.0815     1.0080 
    44   opls_843      1    UNK   H18      2     0.0815     1.0080 
    45   opls_844      1    UNK   H19      2     0.0815     1.0080 
    46   opls_845      1    UNK   H1A      2     0.0815     1.0080 
    47   opls_846      1    UNK   H1B      2     0.0815     1.0080 
[ bonds ]
    2     1     1      0.1410 267776.000
    3     2     1      0.1660 245994.096
    4     3     1      0.1440 585760.000
    5     3     1      0.1440 585760.000
    6     3     1      0.1770 284512.000
    7     6     1      0.1448 319657.600
    8     7     1      0.1448 319657.600
    9     7     1      0.1448 319657.600
   10     9     1      0.1529 224262.400
   11    10     1      0.1529 224262.400
   12    11     1      0.1529 224262.400
   13    12     1      0.1529 224262.400
   14    13     1      0.1529 224262.400
   15    14     1      0.1529 224262.400
   16    15     1      0.1529 224262.400
   17    15     1      0.1529 224262.400
   18    15     1      0.1529 224262.400
   19     1     1      0.1090 284512.000
   20     1     1      0.1090 284512.000
   21     1     1      0.1090 284512.000
   22     6     1      0.1090 284512.000
   23     6     1      0.1090 284512.000
   24     8     1      0.1090 284512.000
   25     8     1      0.1090 284512.000
   26     8     1      0.1090 284512.000
   27     9     1      0.1090 284512.000
   28     9     1      0.1090 284512.000
   29    10     1      0.1090 284512.000
   30    10     1      0.1090 284512.000
   31    11     1      0.1090 284512.000
   32    11     1      0.1090 284512.000
   33    12     1      0.1090 284512.000
   34    12     1      0.1090 284512.000
   35    13     1      0.1090 284512.000
   36    13     1      0.1090 284512.000
   37    14     1      0.1090 284512.000
   38    14     1      0.1090 284512.000
   39    16     1      0.1090 284512.000
   40    16     1      0.1090 284512.000
   41    16     1      0.1090 284512.000
   42    17     1      0.1090 284512.000
   43    17     1      0.1090 284512.000
   44    17     1      0.1090 284512.000
   45    18     1      0.1090 284512.000
   46    18     1      0.1090 284512.000
   47    18     1      0.1090 284512.000

[ angles ]
;  ai    aj    ak funct            c0            c1            c2            c3 
    1     2     3     1    114.540    581.660
    2     3     4     1    104.360    658.311
    2     3     5     1    104.360    658.311
    2     3     6     1    104.360    658.311
    3     6     7     1    114.700    418.400
    6     7     8     1    107.200    433.462
    6     7     9     1    107.200    433.462
    7     9    10     1    109.470    470.282
    9    10    11     1    112.700    488.273
   10    11    12     1    112.700    488.273
   11    12    13     1    112.700    488.273
   12    13    14     1    112.700    488.273
   13    14    15     1    112.700    488.273
   14    15    16     1    112.700    488.273
   14    15    17     1    112.700    488.273
   14    15    18     1    112.700    488.273
    2     1    19     1    109.500    292.880
    2     1    20     1    109.500    292.880
    2     1    21     1    109.500    292.880
    3     6    22     1    109.500    292.880
    3     6    23     1    109.500    292.880
    7     8    24     1    109.500    292.880
    7     8    25     1    109.500    292.880
    7     8    26     1    109.500    292.880
    7     9    27     1    109.500    292.880
    7     9    28     1    109.500    292.880
    9    10    29     1    110.700    313.800
    9    10    30     1    110.700    313.800
   10    11    31     1    110.700    313.800
   10    11    32     1    110.700    313.800
   11    12    33     1    110.700    313.800
   11    12    34     1    110.700    313.800
   12    13    35     1    110.700    313.800
   12    13    36     1    110.700    313.800
   13    14    37     1    110.700    313.800
   13    14    38     1    110.700    313.800
   15    16    39     1    110.700    313.800
   15    16    40     1    110.700    313.800
   15    16    41     1    110.700    313.800
   15    17    42     1    110.700    313.800
   15    17    43     1    110.700    313.800
   15    17    44     1    110.700    313.800
   15    18    45     1    110.700    313.800
   15    18    46     1    110.700    313.800
   15    18    47     1    110.700    313.800
   24     8    26     1    107.800    276.144
   29    10    30     1    107.800    276.144
   27     9    28     1    107.800    276.144
   25     8    26     1    107.800    276.144
   19     1    21     1    107.800    276.144
   33    12    34     1    107.800    276.144
   42    17    43     1    107.800    276.144
   11    10    30     1    110.700    313.800
   20     1    21     1    107.800    276.144
   12    11    31     1    110.700    313.800
   39    16    40     1    107.800    276.144
   14    13    35     1    110.700    313.800
   37    14    38     1    107.800    276.144
   11    10    29     1    110.700    313.800
   13    12    34     1    110.700    313.800
   45    18    46     1    107.800    276.144
    8     7     9     1    107.200    433.462
   12    11    32     1    110.700    313.800
    4     3     5     1    119.000    870.272
   22     6    23     1    107.800    276.144
   15    14    37     1    110.700    313.800
   42    17    44     1    107.800    276.144
   35    13    36     1    107.800    276.144
   14    13    36     1    110.700    313.800
    5     3     6     1    108.900    619.232
   43    17    44     1    107.800    276.144
   45    18    47     1    107.800    276.144
    7     6    22     1    109.500    292.880
   40    16    41     1    107.800    276.144
   16    15    18     1    112.700    488.273
   46    18    47     1    107.800    276.144
   39    16    41     1    107.800    276.144
   13    12    33     1    110.700    313.800
   10     9    28     1    110.700    313.800
   31    11    32     1    107.800    276.144
    4     3     6     1    108.900    619.232
   15    14    38     1    110.700    313.800
   24     8    25     1    107.800    276.144
   19     1    20     1    107.800    276.144
    7     6    23     1    109.500    292.880
   16    15    17     1    112.700    488.273
   10     9    27     1    110.700    313.800
   17    15    18     1    112.700    488.273

[ dihedrals ]
; IMPROPER DIHEDRAL ANGLES 
;  ai    aj    ak    al funct            c0            c1            c2            c3            c4            c5

[ dihedrals ]
; PROPER DIHEDRAL ANGLES
;  ai    aj    ak    al funct            c0            c1            c2            c3            c4            c5
   14   13   12   11        3       2.301  -1.464   0.837  -1.674  -0.000   0.000
   18   15   14   13        3       2.301  -1.464   0.837  -1.674  -0.000   0.000
   12   11   10    9        3       2.301  -1.464   0.837  -1.674  -0.000   0.000
   13   12   11   10        3       2.301  -1.464   0.837  -1.674  -0.000   0.000
   17   15   14   13        3       2.301  -1.464   0.837  -1.674  -0.000   0.000
   15   14   13   12        3       2.301  -1.464   0.837  -1.674  -0.000   0.000
   16   15   14   13        3       2.301  -1.464   0.837  -1.674  -0.000   0.000
   11   10    9    7        3       3.335  -1.552   2.820  -4.602  -0.000   0.000
   10    9    7    8        3       1.789   3.492   0.536  -5.816  -0.000   0.000
   10    9    7    6        3       1.789   3.492   0.536  -5.816  -0.000   0.000
    9    7    6    3        3       2.784   0.278   0.828  -3.891  -0.000   0.000
    8    7    6    3        3       2.784   0.278   0.828  -3.891  -0.000   0.000
    6    3    2    1        3       1.715   2.845   1.046  -5.607  -0.000   0.000
   40   16   15   17        3       0.628   1.883   0.000  -2.510  -0.000   0.000
   30   10   11   12        3       0.628   1.883   0.000  -2.510  -0.000   0.000
   37   14   15   16        3       0.628   1.883   0.000  -2.510  -0.000   0.000
   39   16   15   18        3       0.628   1.883   0.000  -2.510  -0.000   0.000
   45   18   15   16        3       0.628   1.883   0.000  -2.510  -0.000   0.000
   41   16   15   18        3       0.628   1.883   0.000  -2.510  -0.000   0.000
   36   13   12   11        3       0.628   1.883   0.000  -2.510  -0.000   0.000
   37   14   15   17        3       0.628   1.883   0.000  -2.510  -0.000   0.000
   33   12   13   14        3       0.628   1.883   0.000  -2.510  -0.000   0.000
   46   18   15   17        3       0.628   1.883   0.000  -2.510  -0.000   0.000
   38   14   15   16        3       0.628   1.883   0.000  -2.510  -0.000   0.000
   31   11   10    9        3       0.628   1.883   0.000  -2.510  -0.000   0.000
   43   17   15   16        3       0.628   1.883   0.000  -2.510  -0.000   0.000
   47   18   15   16        3       0.628   1.883   0.000  -2.510  -0.000   0.000
   43   17   15   18        3       0.628   1.883   0.000  -2.510  -0.000   0.000
   34   12   11   10        3       0.628   1.883   0.000  -2.510  -0.000   0.000
   34   12   13   14        3       0.628   1.883   0.000  -2.510  -0.000   0.000
   44   17   15   14        3       0.628   1.883   0.000  -2.510  -0.000   0.000
   46   18   15   14        3       0.628   1.883   0.000  -2.510  -0.000   0.000
   40   16   15   18        3       0.628   1.883   0.000  -2.510  -0.000   0.000
   41   16   15   17        3       0.628   1.883   0.000  -2.510  -0.000   0.000
   38   14   15   18        3       0.628   1.883   0.000  -2.510  -0.000   0.000
   31   11   12   13        3       0.628   1.883   0.000  -2.510  -0.000   0.000
   41   16   15   14        3       0.628   1.883   0.000  -2.510  -0.000   0.000
   32   11   10    9        3       0.628   1.883   0.000  -2.510  -0.000   0.000
   36   13   14   15        3       0.628   1.883   0.000  -2.510  -0.000   0.000
   33   12   11   10        3       0.628   1.883   0.000  -2.510  -0.000   0.000
   46   18   15   16        3       0.628   1.883   0.000  -2.510  -0.000   0.000
   45   18   15   17        3       0.628   1.883   0.000  -2.510  -0.000   0.000
   47   18   15   14        3       0.628   1.883   0.000  -2.510  -0.000   0.000
   29   10   11   12        3       0.628   1.883   0.000  -2.510  -0.000   0.000
   47   18   15   17        3       0.628   1.883   0.000  -2.510  -0.000   0.000
   27    9   10   11        3       0.628   1.883   0.000  -2.510  -0.000   0.000
   38   14   15   17        3       0.628   1.883   0.000  -2.510  -0.000   0.000
   28    9   10   11        3       0.628   1.883   0.000  -2.510  -0.000   0.000
   40   16   15   14        3       0.628   1.883   0.000  -2.510  -0.000   0.000
   37   14   13   12        3       0.628   1.883   0.000  -2.510  -0.000   0.000
   44   17   15   18        3       0.628   1.883   0.000  -2.510  -0.000   0.000
   42   17   15   18        3       0.628   1.883   0.000  -2.510  -0.000   0.000
   44   17   15   16        3       0.628   1.883   0.000  -2.510  -0.000   0.000
   39   16   15   17        3       0.628   1.883   0.000  -2.510  -0.000   0.000
   32   11   12   13        3       0.628   1.883   0.000  -2.510  -0.000   0.000
   42   17   15   16        3       0.628   1.883   0.000  -2.510  -0.000   0.000
   39   16   15   14        3       0.628   1.883   0.000  -2.510  -0.000   0.000
   37   14   15   18        3       0.628   1.883   0.000  -2.510  -0.000   0.000
   42   17   15   14        3       0.628   1.883   0.000  -2.510  -0.000   0.000
   38   14   13   12        3       0.628   1.883   0.000  -2.510  -0.000   0.000
   35   13   14   15        3       0.628   1.883   0.000  -2.510  -0.000   0.000
   45   18   15   14        3       0.628   1.883   0.000  -2.510  -0.000   0.000
   35   13   12   11        3       0.628   1.883   0.000  -2.510  -0.000   0.000
   43   17   15   14        3       0.628   1.883   0.000  -2.510  -0.000   0.000
   30   10    9   27        3       0.628   1.883   0.000  -2.510  -0.000   0.000
   29   10    9   28        3       0.628   1.883   0.000  -2.510  -0.000   0.000
   29   10    9   27        3       0.628   1.883   0.000  -2.510  -0.000   0.000
   37   14   13   35        3       0.628   1.883   0.000  -2.510  -0.000   0.000
   31   11   10   29        3       0.628   1.883   0.000  -2.510  -0.000   0.000
   38   14   13   35        3       0.628   1.883   0.000  -2.510  -0.000   0.000
   34   12   11   31        3       0.628   1.883   0.000  -2.510  -0.000   0.000
   33   12   11   32        3       0.628   1.883   0.000  -2.510  -0.000   0.000
   33   12   11   31        3       0.628   1.883   0.000  -2.510  -0.000   0.000
   32   11   10   29        3       0.628   1.883   0.000  -2.510  -0.000   0.000
   37   14   13   36        3       0.628   1.883   0.000  -2.510  -0.000   0.000
   31   11   10   30        3       0.628   1.883   0.000  -2.510  -0.000   0.000
   38   14   13   36        3       0.628   1.883   0.000  -2.510  -0.000   0.000
   36   13   12   34        3       0.628   1.883   0.000  -2.510  -0.000   0.000
   34   12   11   32        3       0.628   1.883   0.000  -2.510  -0.000   0.000
   30   10    9   28        3       0.628   1.883   0.000  -2.510  -0.000   0.000
   35   13   12   34        3       0.628   1.883   0.000  -2.510  -0.000   0.000
   36   13   12   33        3       0.628   1.883   0.000  -2.510  -0.000   0.000
   32   11   10   30        3       0.628   1.883   0.000  -2.510  -0.000   0.000
   35   13   12   33        3       0.628   1.883   0.000  -2.510  -0.000   0.000
   29   10    9    7        3      -4.096   5.088   2.966  -3.958  -0.000   0.000
   30   10    9    7        3      -4.096   5.088   2.966  -3.958  -0.000   0.000
   22    6    7    9        3       1.172   3.515   0.000  -4.686  -0.000   0.000
   26    8    7    9        3       1.172   3.515   0.000  -4.686  -0.000   0.000
   24    8    7    6        3       1.172   3.515   0.000  -4.686  -0.000   0.000
   25    8    7    9        3       1.172   3.515   0.000  -4.686  -0.000   0.000
   26    8    7    6        3       1.172   3.515   0.000  -4.686  -0.000   0.000
   23    6    7    9        3       1.172   3.515   0.000  -4.686  -0.000   0.000
   27    9    7    8        3       1.172   3.515   0.000  -4.686  -0.000   0.000
   27    9    7    6        3       1.172   3.515   0.000  -4.686  -0.000   0.000
   24    8    7    9        3       1.172   3.515   0.000  -4.686  -0.000   0.000
   23    6    7    8        3       1.172   3.515   0.000  -4.686  -0.000   0.000
   25    8    7    6        3       1.172   3.515   0.000  -4.686  -0.000   0.000
   28    9    7    8        3       1.172   3.515   0.000  -4.686  -0.000   0.000
   22    6    7    8        3       1.172   3.515   0.000  -4.686  -0.000   0.000
   28    9    7    6        3       1.172   3.515   0.000  -4.686  -0.000   0.000
   20    1    2    3        3       1.590   4.770   0.000  -6.360  -0.000   0.000
   19    1    2    3        3       1.590   4.770   0.000  -6.360  -0.000   0.000
   21    1    2    3        3       1.590   4.770   0.000  -6.360  -0.000   0.000
   23    6    3    2        3       0.732   2.197   0.000  -2.929  -0.000   0.000
   22    6    3    2        3       0.732   2.197   0.000  -2.929  -0.000   0.000
   23    6    3    5        3       0.732   2.197   0.000  -2.929  -0.000   0.000
   23    6    3    4        3       0.732   2.197   0.000  -2.929  -0.000   0.000
   22    6    3    4        3       0.732   2.197   0.000  -2.929  -0.000   0.000
   22    6    3    5        3       0.732   2.197   0.000  -2.929  -0.000   0.000
    7    6    3    2        3       0.000   0.000   0.000  -0.000  -0.000   0.000
    7    6    3    4        3       0.000   0.000   0.000  -0.000  -0.000   0.000
    7    6    3    5        3       0.000   0.000   0.000  -0.000  -0.000   0.000
    5    3    2    1        3       0.000   0.000   0.000  -0.000  -0.000   0.000
    4    3    2    1        3       0.000   0.000   0.000  -0.000  -0.000   0.000

[ pairs ]
     1     4    1
     1     5    1
     1     6    1
     2     7    1
     4     7    1
     3     8    1
     5     7    1
     3     9    1
     6    10    1
     8    10    1
     7    11    1
     9    12    1
     3    19    1
    10    13    1
     3    20    1
     3    21    1
     2    22    1
    11    14    1
     2    23    1
     4    22    1
    12    15    1
     5    22    1
     4    23    1
     5    23    1
    13    16    1
    13    17    1
     8    22    1
     6    24    1
    13    18    1
     9    22    1
     8    23    1
     6    25    1
     9    23    1
     6    26    1
     9    24    1
     6    27    1
     9    25    1
     6    28    1
     9    26    1
     8    27    1
     8    28    1
     7    29    1
     7    30    1
    11    27    1
    11    28    1
     9    31    1
    12    29    1
     9    32    1
    12    30    1
    10    33    1
    13    31    1
    10    34    1
    13    32    1
    11    35    1
    14    33    1
    11    36    1
    14    34    1
    12    37    1
    15    35    1
    12    38    1
    15    36    1
    16    37    1
    14    39    1
    17    37    1
    16    38    1
    14    40    1
    18    37    1
    17    38    1
    14    41    1
    27    29    1
    18    38    1
    17    39    1
    14    42    1
    28    29    1
    27    30    1
    18    39    1
    17    40    1
    14    43    1
    28    30    1
    18    40    1
    17    41    1
    16    42    1
    14    44    1
    18    41    1
    16    43    1
    14    45    1
    29    31    1
    18    42    1
    16    44    1
    14    46    1
    30    31    1
    29    32    1
    18    43    1
    16    45    1
    14    47    1
    30    32    1
    18    44    1
    17    45    1
    16    46    1
    17    46    1
    16    47    1
    31    33    1
    17    47    1
    32    33    1
    31    34    1
    32    34    1
    33    35    1
    34    35    1
    33    36    1
    34    36    1
    35    37    1
    36    37    1
    35    38    1
    36    38    1

