LIGPARGEN GENERATED GRO FILE
   47
    1UNK    C00    1   0.100   0.100   0.000
    1UNK    O01    2  -0.042   0.100   0.000
    1UNK    S02    3  -0.112   0.100   0.147
    1UNK    O03    4  -0.081  -0.027   0.210
    1UNK    O04    5  -0.078   0.226   0.210
    1UNK    C05    6  -0.289   0.101   0.094
    1UNK    N06    7  -0.392   0.095   0.202
    1UNK    C07    8  -0.381   0.212   0.290
    1UNK    C08    9  -0.527   0.082   0.144
    1UNK    C09   10  -0.633   0.067   0.255
    1UNK    C0A   11  -0.773   0.046   0.201
    1UNK    C0B   12  -0.871   0.032   0.319
    1UNK    C0C   13  -1.016   0.022   0.276
    1UNK    C0D   14  -1.043  -0.102   0.189
    1UNK    C0E   15  -1.190  -0.119   0.142
    1UNK    C0F   16  -1.233  -0.000   0.054
    1UNK    C0G   17  -1.198  -0.248   0.057
    1UNK    C0H   18  -1.285  -0.132   0.262
    1UNK    H0I   19   0.135   0.114  -0.102
    1UNK    H0J   20   0.137   0.004   0.038
    1UNK    H0K   21   0.139   0.182   0.062
    1UNK    H0M   22  -0.298   0.013   0.030
    1UNK    H0N   23  -0.301   0.191   0.033
    1UNK    H0O   24  -0.282   0.218   0.336
    1UNK    H0P   25  -0.449   0.205   0.376
    1UNK    H0Q   26  -0.401   0.306   0.236
    1UNK    H0R   27  -0.530  -0.008   0.081
    1UNK    H0S   28  -0.552   0.167   0.080
    1UNK    H0T   29  -0.636   0.157   0.317
    1UNK    H0U   30  -0.606  -0.018   0.320
    1UNK    H0V   31  -0.775  -0.044   0.138
    1UNK    H0W   32  -0.803   0.131   0.138
    1UNK    H0X   33  -0.861   0.120   0.384
    1UNK    H0Y   34  -0.843  -0.056   0.379
    1UNK    H0Z   35  -1.044   0.113   0.222
    1UNK    H10   36  -1.078   0.018   0.366
    1UNK    H11   37  -1.012  -0.191   0.245
    1UNK    H12   38  -0.980  -0.099   0.100
    1UNK    H13   39  -1.166   0.012  -0.032
    1UNK    H14   40  -1.232   0.094   0.110
    1UNK    H15   41  -1.334  -0.014   0.016
    1UNK    H16   42  -1.133  -0.241  -0.031
    1UNK    H17   43  -1.300  -0.266   0.022
    1UNK    H18   44  -1.166  -0.335   0.115
    1UNK    H19   45  -1.288  -0.040   0.322
    1UNK    H1A   46  -1.254  -0.214   0.328
    1UNK    H1B   47  -1.387  -0.153   0.229
   1.00000   1.00000   1.00000

