LIGPARGEN GENERATED GRO FILE
   34
    1UNK    C00    1   0.100   0.100   0.000
    1UNK    C01    2  -0.052   0.100   0.000
    1UNK    C02    3  -0.108   0.100   0.142
    1UNK    C03    4  -0.086   0.221   0.236
    1UNK    C04    5  -0.236   0.213   0.274
    1UNK    O05    6  -0.267   0.145   0.398
    1UNK    C06    7  -0.403   0.144   0.446
    1UNK    C07    8  -0.454   0.286   0.470
    1UNK    C08    9  -0.491   0.060   0.354
    1UNK    S09   10  -0.617  -0.009   0.456
    1UNK    O0A   11  -0.651  -0.140   0.404
    1UNK    O0B   12  -0.718   0.093   0.478
    1UNK    C0C   13  -0.519  -0.027   0.601
    1UNK    C0D   14  -0.406   0.070   0.582
    1UNK    O0E   15  -0.323   0.089   0.671
    1UNK    C0F   16  -0.258   0.134   0.144
    1UNK    H0G   17   0.137   0.092  -0.103
    1UNK    H0H   18   0.140   0.016   0.058
    1UNK    H0I   19   0.139   0.193   0.043
    1UNK    H0J   20  -0.088   0.011  -0.053
    1UNK    H0K   21  -0.087   0.187  -0.056
    1UNK    H0M   22  -0.086   0.005   0.193
    1UNK    H0N   23  -0.059   0.314   0.184
    1UNK    H0O   24  -0.015   0.204   0.317
    1UNK    H0P   25  -0.280   0.313   0.273
    1UNK    H0Q   26  -0.465   0.341   0.376
    1UNK    H0R   27  -0.385   0.342   0.532
    1UNK    H0S   28  -0.552   0.288   0.519
    1UNK    H0T   29  -0.436  -0.024   0.312
    1UNK    H0U   30  -0.536   0.118   0.273
    1UNK    H0V   31  -0.480  -0.128   0.605
    1UNK    H0W   32  -0.579  -0.002   0.688
    1UNK    H0X   33  -0.294   0.198   0.062
    1UNK    H0Y   34  -0.322   0.046   0.147
   1.00000   1.00000   1.00000

