
;
; GENERATED BY LigParGen Server
; Jorgensen Lab @ Yale University 
;
[ atomtypes ]
  opls_803  O803    15.9990     0.000    A    2.90000E-01   5.85760E-01
  opls_824  H824     1.0080     0.000    A    2.50000E-01   1.25520E-01
  opls_816  O816    15.9990     0.000    A    2.96000E-01   8.78640E-01
  opls_818  C818    12.0110     0.000    A    3.50000E-01   2.76144E-01
  opls_843  H843     1.0080     0.000    A    2.50000E-01   1.25520E-01
  opls_836  H836     1.0080     0.000    A    2.50000E-01   1.25520E-01
  opls_834  H834     1.0080     0.000    A    2.50000E-01   1.25520E-01
  opls_810  C810    12.0110     0.000    A    3.50000E-01   2.76144E-01
  opls_828  H828     1.0080     0.000    A    2.50000E-01   1.25520E-01
  opls_812  C812    12.0110     0.000    A    3.50000E-01   2.76144E-01
  opls_817  O817    15.9990     0.000    A    2.90000E-01   5.85760E-01
  opls_802  C802    12.0110     0.000    A    3.50000E-01   2.76144E-01
  opls_827  H827     1.0080     0.000    A    2.50000E-01   1.25520E-01
  opls_809  C809    12.0110     0.000    A    3.50000E-01   2.76144E-01
  opls_838  H838     1.0080     0.000    A    2.50000E-01   1.25520E-01
  opls_822  H822     1.0080     0.000    A    2.50000E-01   1.25520E-01
  opls_807  C807    12.0110     0.000    A    3.50000E-01   2.76144E-01
  opls_825  H825     1.0080     0.000    A    2.50000E-01   1.25520E-01
  opls_830  H830     1.0080     0.000    A    2.50000E-01   1.25520E-01
  opls_814  O814    15.9990     0.000    A    2.90000E-01   5.85760E-01
  opls_821  H821     1.0080     0.000    A    2.50000E-01   1.25520E-01
  opls_842  H842     1.0080     0.000    A    2.50000E-01   1.25520E-01
  opls_820  H820     1.0080     0.000    A    2.50000E-01   1.25520E-01
  opls_806  N806    14.0070     0.000    A    3.30000E-01   7.11280E-01
  opls_837  H837     1.0080     0.000    A    2.50000E-01   1.25520E-01
  opls_829  H829     1.0080     0.000    A    2.50000E-01   1.25520E-01
  opls_831  H831     1.0080     0.000    A    2.50000E-01   1.25520E-01
  opls_832  H832     1.0080     0.000    A    2.50000E-01   1.25520E-01
  opls_800  C800    12.0110     0.000    A    3.50000E-01   2.76144E-01
  opls_805  C805    12.0110     0.000    A    3.50000E-01   2.76144E-01
  opls_811  C811    12.0110     0.000    A    3.50000E-01   2.76144E-01
  opls_815  C815    12.0110     0.000    A    3.55000E-01   2.92880E-01
  opls_823  H823     1.0080     0.000    A    2.50000E-01   1.25520E-01
  opls_813  C813    12.0110     0.000    A    3.50000E-01   2.76144E-01
  opls_826  H826     1.0080     0.000    A    2.50000E-01   1.25520E-01
  opls_835  H835     1.0080     0.000    A    2.50000E-01   1.25520E-01
  opls_841  H841     1.0080     0.000    A    2.50000E-01   1.25520E-01
  opls_819  H819     1.0080     0.000    A    2.50000E-01   1.25520E-01
  opls_804  C804    12.0110     0.000    A    3.50000E-01   2.76144E-01
  opls_833  H833     1.0080     0.000    A    2.50000E-01   1.25520E-01
  opls_839  H839     1.0080     0.000    A    2.50000E-01   1.25520E-01
  opls_801  C801    12.0110     0.000    A    3.50000E-01   2.76144E-01
  opls_808  C808    12.0110     0.000    A    3.50000E-01   2.76144E-01
  opls_840  H840     1.0080     0.000    A    2.50000E-01   1.25520E-01
[ moleculetype ]
; Name               nrexcl
UNK                   3
[ atoms ]
;   nr       type  resnr residue  atom   cgnr     charge       mass  
     1   opls_800      1    UNK   C00      1    -0.2388    12.0110 
     2   opls_801      1    UNK   C01      1    -0.1549    12.0110 
     3   opls_802      1    UNK   C02      1     0.0137    12.0110 
     4   opls_803      1    UNK   O03      1    -0.3396    15.9990 
     5   opls_804      1    UNK   C04      1    -0.0069    12.0110 
     6   opls_805      1    UNK   C05      1     0.0704    12.0110 
     7   opls_806      1    UNK   N06      1    -0.5766    14.0070 
     8   opls_807      1    UNK   C07      1    -0.0583    12.0110 
     9   opls_808      1    UNK   C08      1     -0.054    12.0110 
    10   opls_809      1    UNK   C09      1    -0.0082    12.0110 
    11   opls_810      1    UNK   C0A      1     -0.243    12.0110 
    12   opls_811      1    UNK   C0B      1      0.117    12.0110 
    13   opls_812      1    UNK   C0C      1    -0.2669    12.0110 
    14   opls_813      1    UNK   C0D      1     0.0295    12.0110 
    15   opls_814      1    UNK   O0E      1    -0.3876    15.9990 
    16   opls_815      1    UNK   C0F      1     0.6169    12.0110 
    17   opls_816      1    UNK   O0G      1    -0.3891    15.9990 
    18   opls_817      1    UNK   O0H      1    -0.3735    15.9990 
    19   opls_818      1    UNK   C0I      1    -0.1629    12.0110 
    20   opls_819      1    UNK   H0J      1     0.0851     1.0080 
    21   opls_820      1    UNK   H0K      1     0.0851     1.0080 
    22   opls_821      1    UNK   H0M      1     0.0851     1.0080 
    23   opls_822      1    UNK   H0N      1     0.1062     1.0080 
    24   opls_823      1    UNK   H0O      1     0.0982     1.0080 
    25   opls_824      1    UNK   H0P      1     0.0982     1.0080 
    26   opls_825      1    UNK   H0Q      1     0.0933     1.0080 
    27   opls_826      1    UNK   H0R      1     0.0933     1.0080 
    28   opls_827      1    UNK   H0S      1     0.0853     1.0080 
    29   opls_828      1    UNK   H0T      1     0.0904     1.0080 
    30   opls_829      1    UNK   H0U      1     0.0904     1.0080 
    31   opls_830      1    UNK   H0V      1     0.0904     1.0080 
    32   opls_831      1    UNK   H0W      1     0.0819     1.0080 
    33   opls_832      1    UNK   H0X      2     0.0819     1.0080 
    34   opls_833      1    UNK   H0Y      2     0.0819     1.0080 
    35   opls_834      1    UNK   H0Z      2     0.0904     1.0080 
    36   opls_835      1    UNK   H10      2     0.0904     1.0080 
    37   opls_836      1    UNK   H11      2     0.0904     1.0080 
    38   opls_837      1    UNK   H12      2     0.1308     1.0080 
    39   opls_838      1    UNK   H13      2     0.1262     1.0080 
    40   opls_839      1    UNK   H14      2     0.1262     1.0080 
    41   opls_840      1    UNK   H15      2     0.1159     1.0080 
    42   opls_841      1    UNK   H16      2     0.1159     1.0080 
    43   opls_842      1    UNK   H17      2     0.0899     1.0080 
    44   opls_843      1    UNK   H18      2     0.0899     1.0080 
[ bonds ]
    2     1     1      0.1529 224262.400
    3     2     1      0.1529 224262.400
    4     3     1      0.1410 267776.000
    5     4     1      0.1410 267776.000
    6     5     1      0.1529 224262.400
    7     6     1      0.1448 319657.600
    8     7     1      0.1448 319657.600
    9     7     1      0.1448 319657.600
   10     6     1      0.1529 224262.400
   11    10     1      0.1529 224262.400
   12    10     1      0.1529 224262.400
   13    12     1      0.1529 224262.400
   14    13     1      0.1529 224262.400
   15    14     1      0.1410 267776.000
   16    15     1      0.1327 179075.200
   17    16     1      0.1229 476976.000
   18    12     1      0.1410 267776.000
   19     2     1      0.1529 224262.400
   20     1     1      0.1090 284512.000
   21     1     1      0.1090 284512.000
   22     1     1      0.1090 284512.000
   23     2     1      0.1090 284512.000
   24     3     1      0.1090 284512.000
   25     3     1      0.1090 284512.000
   26     5     1      0.1090 284512.000
   27     5     1      0.1090 284512.000
   28     6     1      0.1090 284512.000
   29     8     1      0.1090 284512.000
   30     8     1      0.1090 284512.000
   31     8     1      0.1090 284512.000
   32     9     1      0.1090 284512.000
   33     9     1      0.1090 284512.000
   34     9     1      0.1090 284512.000
   35    11     1      0.1090 284512.000
   36    11     1      0.1090 284512.000
   37    11     1      0.1090 284512.000
   38    12     1      0.1090 284512.000
   39    13     1      0.1090 284512.000
   40    13     1      0.1090 284512.000
   41    14     1      0.1090 284512.000
   42    14     1      0.1090 284512.000
   43    19     1      0.1090 284512.000
   44    19     1      0.1090 284512.000
   19    10     1      0.1529 224262.400
   18    16     1      0.1327 179075.200

[ angles ]
;  ai    aj    ak funct            c0            c1            c2            c3 
    1     2     3     1    112.700    488.273
    2     3     4     1    109.500    418.400
    3     4     5     1    109.500    502.080
    4     5     6     1    109.500    418.400
    5     6     7     1    109.470    470.282
    6     7     8     1    107.200    433.462
    6     7     9     1    107.200    433.462
    5     6    10     1    112.700    488.273
    6    10    11     1    112.700    488.273
    6    10    12     1    112.700    488.273
   10    12    13     1    112.700    488.273
   12    13    14     1    112.700    488.273
   13    14    15     1    109.500    418.400
   14    15    16     1    116.900    694.544
   15    16    17     1    123.400    694.544
   10    12    18     1    109.500    418.400
    1     2    19     1    112.700    488.273
    2     1    20     1    110.700    313.800
    2     1    21     1    110.700    313.800
    2     1    22     1    110.700    313.800
    1     2    23     1    110.700    313.800
    2     3    24     1    110.700    313.800
    2     3    25     1    110.700    313.800
    4     5    26     1    109.500    292.880
    4     5    27     1    109.500    292.880
    5     6    28     1    110.700    313.800
    7     8    29     1    109.500    292.880
    7     8    30     1    109.500    292.880
    7     8    31     1    109.500    292.880
    7     9    32     1    109.500    292.880
    7     9    33     1    109.500    292.880
    7     9    34     1    109.500    292.880
   10    11    35     1    110.700    313.800
   10    11    36     1    110.700    313.800
   10    11    37     1    110.700    313.800
   10    12    38     1    110.700    313.800
   12    13    39     1    110.700    313.800
   12    13    40     1    110.700    313.800
   13    14    41     1    110.700    313.800
   13    14    42     1    110.700    313.800
    2    19    43     1    110.700    313.800
    2    19    44     1    110.700    313.800
    6    10    19     1    112.700    488.273
   29     8    30     1    107.800    276.144
   35    11    36     1    107.800    276.144
   13    12    38     1    110.700    313.800
   10    19    43     1    110.700    313.800
   14    13    40     1    110.700    313.800
   29     8    31     1    107.800    276.144
    4     3    24     1    109.500    292.880
    6     5    26     1    110.700    313.800
   30     8    31     1    107.800    276.144
   20     1    21     1    107.800    276.144
   11    10    12     1    112.700    488.273
   15    16    18     1    118.180    584.923
   24     3    25     1    107.800    276.144
   14    13    39     1    110.700    313.800
   12    18    16     1    116.900    694.544
    8     7     9     1    107.200    433.462
   18    12    38     1    109.500    292.880
   15    14    41     1    109.500    292.880
   36    11    37     1    107.800    276.144
   12    10    19     1    112.700    488.273
   41    14    42     1    107.800    276.144
   32     9    33     1    107.800    276.144
   20     1    22     1    107.800    276.144
   10     6    28     1    110.700    313.800
   19     2    23     1    110.700    313.800
   10    19    44     1    110.700    313.800
   43    19    44     1    107.800    276.144
    2    19    10     1    112.700    488.273
    7     6    28     1    109.500    292.880
   17    16    18     1    123.400    694.544
    6     5    27     1    110.700    313.800
   11    10    19     1    112.700    488.273
    4     3    25     1    109.500    292.880
   32     9    34     1    107.800    276.144
   21     1    22     1    107.800    276.144
    7     6    10     1    109.470    470.282
   35    11    37     1    107.800    276.144
   39    13    40     1    107.800    276.144
   15    14    42     1    109.500    292.880
   33     9    34     1    107.800    276.144
    3     2    23     1    110.700    313.800
   26     5    27     1    107.800    276.144
    3     2    19     1    112.700    488.273
   13    12    18     1    109.500    418.400

[ dihedrals ]
; IMPROPER DIHEDRAL ANGLES 
;  ai    aj    ak    al funct            c0            c1            c2            c3            c4            c5
    17    16    18    15    4        180.000     43.932     2  

[ dihedrals ]
; PROPER DIHEDRAL ANGLES
;  ai    aj    ak    al funct            c0            c1            c2            c3            c4            c5
   16   18   12   10        3      -2.197   5.201   0.527  -3.531  -0.000   0.000
   16   18   12   13        3      -2.197   5.201   0.527  -3.531  -0.000   0.000
   16   15   14   13        3      -2.197   5.201   0.527  -3.531  -0.000   0.000
   12   10   19    2        3       2.301  -1.464   0.837  -1.674  -0.000   0.000
   11   10   19    2        3       2.301  -1.464   0.837  -1.674  -0.000   0.000
   10   19    2    3        3       2.301  -1.464   0.837  -1.674  -0.000   0.000
   13   12   10   11        3       2.301  -1.464   0.837  -1.674  -0.000   0.000
   10   19    2    1        3       2.301  -1.464   0.837  -1.674  -0.000   0.000
   14   13   12   10        3       2.301  -1.464   0.837  -1.674  -0.000   0.000
   11   10    6    5        3       2.301  -1.464   0.837  -1.674  -0.000   0.000
    6   10   19    2        3       2.301  -1.464   0.837  -1.674  -0.000   0.000
   12   10    6    5        3       2.301  -1.464   0.837  -1.674  -0.000   0.000
   19   10    6    5        3       2.301  -1.464   0.837  -1.674  -0.000   0.000
   13   12   10    6        3       2.301  -1.464   0.837  -1.674  -0.000   0.000
   19   10   12   13        3       2.301  -1.464   0.837  -1.674  -0.000   0.000
   12   10    6    7        3       3.335  -1.552   2.820  -4.602  -0.000   0.000
   19   10    6    7        3       3.335  -1.552   2.820  -4.602  -0.000   0.000
   11   10    6    7        3       3.335  -1.552   2.820  -4.602  -0.000   0.000
   19   10   12   18        3       2.874   0.582   2.092  -5.548  -0.000   0.000
   10    6    5    4        3       2.874   0.582   2.092  -5.548  -0.000   0.000
   19    2    3    4        3       2.874   0.582   2.092  -5.548  -0.000   0.000
   10    6    7    9        3       1.789   3.492   0.536  -5.816  -0.000   0.000
   10    6    7    8        3       1.789   3.492   0.536  -5.816  -0.000   0.000
    6    5    4    3        3       1.715   2.845   1.046  -5.607  -0.000   0.000
    9    7    6    5        3       1.789   3.492   0.536  -5.816  -0.000   0.000
    8    7    6    5        3       1.789   3.492   0.536  -5.816  -0.000   0.000
    5    4    3    2        3       1.715   2.845   1.046  -5.607  -0.000   0.000
   36   11   10   12        3       0.628   1.883   0.000  -2.510  -0.000   0.000
   43   19   10   11        3       0.628   1.883   0.000  -2.510  -0.000   0.000
   36   11   10   19        3       0.628   1.883   0.000  -2.510  -0.000   0.000
   44   19   10    6        3       0.628   1.883   0.000  -2.510  -0.000   0.000
   20    1    2   19        3       0.628   1.883   0.000  -2.510  -0.000   0.000
   38   12   13   14        3       0.628   1.883   0.000  -2.510  -0.000   0.000
   37   11   10   19        3       0.628   1.883   0.000  -2.510  -0.000   0.000
   21    1    2    3        3       0.628   1.883   0.000  -2.510  -0.000   0.000
   41   14   13   12        3       0.628   1.883   0.000  -2.510  -0.000   0.000
   28    6   10   19        3       0.628   1.883   0.000  -2.510  -0.000   0.000
   22    1    2   19        3       0.628   1.883   0.000  -2.510  -0.000   0.000
   40   13   12   10        3       0.628   1.883   0.000  -2.510  -0.000   0.000
   21    1    2   19        3       0.628   1.883   0.000  -2.510  -0.000   0.000
   25    3    2    1        3       0.628   1.883   0.000  -2.510  -0.000   0.000
   37   11   10   12        3       0.628   1.883   0.000  -2.510  -0.000   0.000
   24    3    2    1        3       0.628   1.883   0.000  -2.510  -0.000   0.000
   25    3    2   19        3       0.628   1.883   0.000  -2.510  -0.000   0.000
   36   11   10    6        3       0.628   1.883   0.000  -2.510  -0.000   0.000
   23    2   19   10        3       0.628   1.883   0.000  -2.510  -0.000   0.000
   22    1    2    3        3       0.628   1.883   0.000  -2.510  -0.000   0.000
   38   12   10    6        3       0.628   1.883   0.000  -2.510  -0.000   0.000
   43   19   10   12        3       0.628   1.883   0.000  -2.510  -0.000   0.000
   35   11   10   19        3       0.628   1.883   0.000  -2.510  -0.000   0.000
   28    6   10   11        3       0.628   1.883   0.000  -2.510  -0.000   0.000
   26    5    6   10        3       0.628   1.883   0.000  -2.510  -0.000   0.000
   37   11   10    6        3       0.628   1.883   0.000  -2.510  -0.000   0.000
   27    5    6   10        3       0.628   1.883   0.000  -2.510  -0.000   0.000
   44   19   10   12        3       0.628   1.883   0.000  -2.510  -0.000   0.000
   44   19    2    3        3       0.628   1.883   0.000  -2.510  -0.000   0.000
   44   19    2    1        3       0.628   1.883   0.000  -2.510  -0.000   0.000
   39   13   12   10        3       0.628   1.883   0.000  -2.510  -0.000   0.000
   28    6   10   12        3       0.628   1.883   0.000  -2.510  -0.000   0.000
   43   19    2    3        3       0.628   1.883   0.000  -2.510  -0.000   0.000
   42   14   13   12        3       0.628   1.883   0.000  -2.510  -0.000   0.000
   35   11   10   12        3       0.628   1.883   0.000  -2.510  -0.000   0.000
   20    1    2    3        3       0.628   1.883   0.000  -2.510  -0.000   0.000
   38   12   10   11        3       0.628   1.883   0.000  -2.510  -0.000   0.000
   43   19    2    1        3       0.628   1.883   0.000  -2.510  -0.000   0.000
   24    3    2   19        3       0.628   1.883   0.000  -2.510  -0.000   0.000
   43   19   10    6        3       0.628   1.883   0.000  -2.510  -0.000   0.000
   35   11   10    6        3       0.628   1.883   0.000  -2.510  -0.000   0.000
   38   12   10   19        3       0.628   1.883   0.000  -2.510  -0.000   0.000
   44   19   10   11        3       0.628   1.883   0.000  -2.510  -0.000   0.000
   28    6    5   27        3       0.628   1.883   0.000  -2.510  -0.000   0.000
   41   14   13   39        3       0.628   1.883   0.000  -2.510  -0.000   0.000
   28    6    5   26        3       0.628   1.883   0.000  -2.510  -0.000   0.000
   24    3    2   23        3       0.628   1.883   0.000  -2.510  -0.000   0.000
   42   14   13   40        3       0.628   1.883   0.000  -2.510  -0.000   0.000
   23    2    1   22        3       0.628   1.883   0.000  -2.510  -0.000   0.000
   39   13   12   38        3       0.628   1.883   0.000  -2.510  -0.000   0.000
   42   14   13   39        3       0.628   1.883   0.000  -2.510  -0.000   0.000
   23    2    1   20        3       0.628   1.883   0.000  -2.510  -0.000   0.000
   23    2    1   21        3       0.628   1.883   0.000  -2.510  -0.000   0.000
   25    3    2   23        3       0.628   1.883   0.000  -2.510  -0.000   0.000
   40   13   12   38        3       0.628   1.883   0.000  -2.510  -0.000   0.000
   44   19    2   23        3       0.628   1.883   0.000  -2.510  -0.000   0.000
   41   14   13   40        3       0.628   1.883   0.000  -2.510  -0.000   0.000
   43   19    2   23        3       0.628   1.883   0.000  -2.510  -0.000   0.000
   27    5    6    7        3      -4.096   5.088   2.966  -3.958  -0.000   0.000
   26    5    6    7        3      -4.096   5.088   2.966  -3.958  -0.000   0.000
   39   13   12   18        3       0.979   2.937   0.000  -3.916  -0.000   0.000
   39   13   14   15        3       0.979   2.937   0.000  -3.916  -0.000   0.000
   40   13   12   18        3       0.979   2.937   0.000  -3.916  -0.000   0.000
   40   13   14   15        3       0.979   2.937   0.000  -3.916  -0.000   0.000
   28    6    5    4        3       0.979   2.937   0.000  -3.916  -0.000   0.000
   23    2    3    4        3       0.979   2.937   0.000  -3.916  -0.000   0.000
   33    9    7    8        3       1.172   3.515   0.000  -4.686  -0.000   0.000
   34    9    7    8        3       1.172   3.515   0.000  -4.686  -0.000   0.000
   29    8    7    6        3       1.172   3.515   0.000  -4.686  -0.000   0.000
   28    6    7    9        3       1.172   3.515   0.000  -4.686  -0.000   0.000
   28    6    7    8        3       1.172   3.515   0.000  -4.686  -0.000   0.000
   30    8    7    6        3       1.172   3.515   0.000  -4.686  -0.000   0.000
   34    9    7    6        3       1.172   3.515   0.000  -4.686  -0.000   0.000
   31    8    7    6        3       1.172   3.515   0.000  -4.686  -0.000   0.000
   30    8    7    9        3       1.172   3.515   0.000  -4.686  -0.000   0.000
   29    8    7    9        3       1.172   3.515   0.000  -4.686  -0.000   0.000
   31    8    7    9        3       1.172   3.515   0.000  -4.686  -0.000   0.000
   32    9    7    8        3       1.172   3.515   0.000  -4.686  -0.000   0.000
   33    9    7    6        3       1.172   3.515   0.000  -4.686  -0.000   0.000
   32    9    7    6        3       1.172   3.515   0.000  -4.686  -0.000   0.000
   41   14   15   16        3       0.414   1.243   0.000  -1.657  -0.000   0.000
   38   12   18   16        3       0.414   1.243   0.000  -1.657  -0.000   0.000
   42   14   15   16        3       0.414   1.243   0.000  -1.657  -0.000   0.000
   25    3    4    5        3       1.590   4.770   0.000  -6.360  -0.000   0.000
   27    5    4    3        3       1.590   4.770   0.000  -6.360  -0.000   0.000
   24    3    4    5        3       1.590   4.770   0.000  -6.360  -0.000   0.000
   26    5    4    3        3       1.590   4.770   0.000  -6.360  -0.000   0.000
    7    6    5    4        3      16.736  -16.736   0.000  -0.000  -0.000   0.000
   17   16   18   12        3      21.439   0.000  -21.439  -0.000  -0.000   0.000
   17   16   15   14        3      21.439   0.000  -21.439  -0.000  -0.000   0.000
   15   16   18   12        3      31.206  -9.768  -21.439  -0.000  -0.000   0.000
   18   16   15   14        3      31.206  -9.768  -21.439  -0.000  -0.000   0.000
    4    3    2    1        3       2.874   0.582   2.092  -5.548  -0.000   0.000
   18   12   10    6        3       2.874   0.582   2.092  -5.548  -0.000   0.000
   15   14   13   12        3       2.874   0.582   2.092  -5.548  -0.000   0.000
   18   12   13   14        3       2.874   0.582   2.092  -5.548  -0.000   0.000
   18   12   10   11        3       2.874   0.582   2.092  -5.548  -0.000   0.000

[ pairs ]
     1     4    1
     2     5    1
     2     6    1
     3     6    1
     4     7    1
     1    10    1
     5     8    1
     3    10    1
     2    11    1
     5     9    1
     4    10    1
     2    12    1
     5    11    1
     5    12    1
     8    10    1
     7    11    1
     9    10    1
     7    12    1
     6    13    1
     4    19    1
     3    20    1
    11    13    1
    10    14    1
     6    18    1
     5    19    1
     3    21    1
     3    22    1
     1    24    1
    10    16    1
     7    19    1
     1    25    1
    12    15    1
     4    23    1
    13    16    1
    12    17    1
    11    18    1
     5    24    1
     3    26    1
     5    25    1
     3    27    1
    14    17    1
    14    18    1
    13    19    1
     4    28    1
    10    23    1
     7    26    1
     7    27    1
     6    29    1
    10    26    1
     8    28    1
     6    30    1
    18    19    1
    10    27    1
     9    28    1
     6    31    1
     9    29    1
     6    32    1
    19    20    1
    11    28    1
     9    30    1
     6    33    1
    19    21    1
    12    28    1
     9    31    1
     8    32    1
     6    34    1
    19    22    1
     8    33    1
     6    35    1
     8    34    1
     6    36    1
    20    23    1
    19    24    1
     6    37    1
    21    23    1
    19    25    1
     6    38    1
     1    43    1
    22    23    1
     1    44    1
     3    43    1
    23    24    1
    19    28    1
    12    35    1
     3    44    1
    23    25    1
    12    36    1
    12    37    1
    11    38    1
    10    39    1
     6    43    1
    10    40    1
     6    44    1
    14    38    1
    12    41    1
    26    28    1
    19    35    1
    16    38    1
    15    39    1
    12    42    1
    11    43    1
    27    28    1
    19    36    1
    15    40    1
    12    43    1
    11    44    1
    19    37    1
    12    44    1
    19    38    1
    18    39    1
    16    41    1
    18    40    1
    16    42    1
    23    43    1
    23    44    1
    38    39    1
    38    40    1
    39    41    1
    40    41    1
    39    42    1
    40    42    1

