LIGPARGEN GENERATED GRO FILE
   44
    1UNK    C00    1   0.100   0.100   0.000
    1UNK    C01    2  -0.053   0.100   0.000
    1UNK    C02    3  -0.108   0.100   0.142
    1UNK    O03    4  -0.250   0.092   0.142
    1UNK    C04    5  -0.314   0.217   0.127
    1UNK    C05    6  -0.355   0.254  -0.018
    1UNK    N06    7  -0.503   0.247  -0.050
    1UNK    C07    8  -0.567   0.118  -0.021
    1UNK    C08    9  -0.579   0.351   0.021
    1UNK    C09   10  -0.257   0.207  -0.136
    1UNK    C0A   11  -0.267   0.317  -0.247
    1UNK    C0B   12  -0.301   0.070  -0.201
    1UNK    C0C   13  -0.227   0.015  -0.322
    1UNK    C0D   14  -0.122  -0.084  -0.282
    1UNK    O0E   15  -0.174  -0.184  -0.194
    1UNK    C0F   16  -0.270  -0.157  -0.101
    1UNK    O0G   17  -0.307  -0.242  -0.022
    1UNK    O0H   18  -0.318  -0.031  -0.100
    1UNK    C0I   19  -0.107   0.213  -0.089
    1UNK    H0J   20   0.138   0.006   0.042
    1UNK    H0K   21   0.141   0.183   0.058
    1UNK    H0M   22   0.139   0.107  -0.102
    1UNK    H0N   23  -0.082   0.005  -0.042
    1UNK    H0O   24  -0.072   0.185   0.201
    1UNK    H0P   25  -0.071   0.010   0.194
    1UNK    H0Q   26  -0.252   0.297   0.169
    1UNK    H0R   27  -0.402   0.215   0.193
    1UNK    H0S   28  -0.338   0.363  -0.016
    1UNK    H0T   29  -0.537   0.039  -0.089
    1UNK    H0U   30  -0.675   0.125  -0.037
    1UNK    H0V   31  -0.551   0.084   0.082
    1UNK    H0W   32  -0.543   0.451  -0.007
    1UNK    H0X   33  -0.573   0.341   0.130
    1UNK    H0Y   34  -0.684   0.348  -0.007
    1UNK    H0Z   35  -0.368   0.324  -0.288
    1UNK    H10   36  -0.198   0.298  -0.330
    1UNK    H11   37  -0.240   0.416  -0.207
    1UNK    H12   38  -0.401   0.090  -0.240
    1UNK    H13   39  -0.187   0.093  -0.388
    1UNK    H14   40  -0.301  -0.041  -0.381
    1UNK    H15   41  -0.034  -0.036  -0.237
    1UNK    H16   42  -0.085  -0.136  -0.371
    1UNK    H17   43  -0.088   0.309  -0.039
    1UNK    H18   44  -0.044   0.216  -0.179
   1.00000   1.00000   1.00000

