LIGPARGEN GENERATED GRO FILE
   37
    1UNK    C00    1   0.100   0.100   0.000
    1UNK    C01    2  -0.052   0.100   0.000
    1UNK    C02    3  -0.126   0.100   0.136
    1UNK    C03    4  -0.080  -0.017   0.222
    1UNK    C04    5  -0.135   0.019   0.356
    1UNK    O05    6  -0.167  -0.064   0.440
    1UNK    C06    7  -0.134   0.170   0.378
    1UNK    C07    8  -0.007   0.197   0.461
    1UNK    C08    9  -0.256   0.206   0.465
    1UNK    C09   10  -0.132   0.229   0.228
    1UNK    C0A   11  -0.014   0.326   0.209
    1UNK    C0B   12  -0.264   0.309   0.200
    1UNK    C0C   13  -0.287   0.375   0.064
    1UNK    C0D   14  -0.418   0.449   0.048
    1UNK    O0E   15  -0.205   0.375  -0.027
    1UNK    H0F   16   0.136   0.095  -0.103
    1UNK    H0G   17   0.141   0.013   0.052
    1UNK    H0H   18   0.142   0.190   0.044
    1UNK    H0I   19  -0.083   0.009  -0.053
    1UNK    H0J   20  -0.087   0.182  -0.063
    1UNK    H0K   21  -0.231   0.078   0.110
    1UNK    H0M   22   0.028  -0.025   0.232
    1UNK    H0N   23  -0.122  -0.112   0.187
    1UNK    H0O   24  -0.011   0.146   0.558
    1UNK    H0P   25   0.005   0.304   0.482
    1UNK    H0Q   26   0.084   0.160   0.412
    1UNK    H0R   27  -0.249   0.159   0.564
    1UNK    H0S   28  -0.349   0.171   0.421
    1UNK    H0T   29  -0.261   0.314   0.482
    1UNK    H0U   30   0.083   0.278   0.230
    1UNK    H0V   31  -0.023   0.412   0.276
    1UNK    H0W   32  -0.007   0.365   0.107
    1UNK    H0X   33  -0.272   0.391   0.273
    1UNK    H0Y   34  -0.350   0.242   0.215
    1UNK    H0Z   35  -0.489   0.419   0.125
    1UNK    H10   36  -0.461   0.425  -0.050
    1UNK    H11   37  -0.399   0.556   0.056
   1.00000   1.00000   1.00000

