LIGPARGEN GENERATED GRO FILE
   47
    1UNK    C00    1   0.100   0.100   0.000
    1UNK    C01    2  -0.052   0.100   0.000
    1UNK    C02    3  -0.109   0.100   0.143
    1UNK    C03    4  -0.266   0.100   0.155
    1UNK    C04    5  -0.318  -0.029   0.087
    1UNK    C05    6  -0.309   0.102   0.308
    1UNK    C06    7  -0.256  -0.019   0.387
    1UNK    C07    8  -0.273   0.235   0.378
    1UNK    C08    9  -0.330   0.244   0.520
    1UNK    C09   10  -0.320   0.360   0.300
    1UNK    C0A   11  -0.285   0.357   0.151
    1UNK    C0B   12  -0.339   0.480   0.075
    1UNK    C0C   13  -0.272   0.610   0.118
    1UNK    C0D   14  -0.329   0.225   0.084
    1UNK    C0E   15  -0.482   0.215   0.070
    1UNK    C0F   16  -0.538   0.190  -0.068
    1UNK    O0G   17  -0.559   0.227   0.165
    1UNK    H0H   18   0.138   0.087  -0.102
    1UNK    H0I   19   0.140   0.019   0.061
    1UNK    H0J   20   0.139   0.195   0.038
    1UNK    H0K   21  -0.087   0.011  -0.054
    1UNK    H0M   22  -0.086   0.188  -0.056
    1UNK    H0N   23  -0.066   0.185   0.196
    1UNK    H0O   24  -0.069   0.011   0.193
    1UNK    H0P   25  -0.261  -0.117   0.119
    1UNK    H0Q   26  -0.310  -0.024  -0.022
    1UNK    H0R   27  -0.423  -0.048   0.111
    1UNK    H0S   28  -0.418   0.092   0.311
    1UNK    H0T   29  -0.148  -0.016   0.400
    1UNK    H0U   30  -0.283  -0.114   0.339
    1UNK    H0V   31  -0.301  -0.023   0.487
    1UNK    H0W   32  -0.164   0.241   0.388
    1UNK    H0X   33  -0.439   0.229   0.520
    1UNK    H0Y   34  -0.311   0.343   0.564
    1UNK    H0Z   35  -0.285   0.170   0.587
    1UNK    H10   36  -0.274   0.448   0.347
    1UNK    H11   37  -0.428   0.373   0.313
    1UNK    H12   38  -0.175   0.363   0.143
    1UNK    H13   39  -0.447   0.489   0.089
    1UNK    H14   40  -0.321   0.466  -0.032
    1UNK    H15   41  -0.294   0.635   0.222
    1UNK    H16   42  -0.307   0.693   0.055
    1UNK    H17   43  -0.163   0.603   0.107
    1UNK    H18   44  -0.291   0.228  -0.019
    1UNK    H19   45  -0.462   0.151  -0.135
    1UNK    H1A   46  -0.578   0.283  -0.108
    1UNK    H1B   47  -0.618   0.115  -0.060
   1.00000   1.00000   1.00000

