LIGPARGEN GENERATED GRO FILE
   35
    1UNK    C00    1   0.100   0.100   0.000
    1UNK    C01    2  -0.052   0.100   0.000
    1UNK    C02    3  -0.111   0.100   0.139
    1UNK    C03    4  -0.260   0.080   0.148
    1UNK    C04    5  -0.348   0.139   0.253
    1UNK    C05    6  -0.417   0.025   0.328
    1UNK    C06    7  -0.319  -0.077   0.390
    1UNK    C07    8  -0.173  -0.071   0.340
    1UNK    C08    9  -0.078  -0.003   0.440
    1UNK    C09   10  -0.114   0.134   0.494
    1UNK    C0A   11  -0.010  -0.095   0.540
    1UNK    C0B   12   0.070  -0.033   0.429
    1UNK    C0C   13  -0.166  -0.029   0.195
    1UNK    H0D   14   0.138   0.088  -0.102
    1UNK    H0E   15   0.139   0.018   0.061
    1UNK    H0F   16   0.139   0.194   0.040
    1UNK    H0G   17  -0.086   0.012  -0.056
    1UNK    H0H   18  -0.087   0.188  -0.054
    1UNK    H0I   19  -0.064   0.172   0.204
    1UNK    H0J   20  -0.315   0.063   0.056
    1UNK    H0K   21  -0.424   0.203   0.206
    1UNK    H0M   22  -0.293   0.204   0.321
    1UNK    H0N   23  -0.480  -0.029   0.257
    1UNK    H0O   24  -0.484   0.064   0.405
    1UNK    H0P   25  -0.359  -0.177   0.365
    1UNK    H0Q   26  -0.323  -0.071   0.499
    1UNK    H0R   27  -0.141  -0.176   0.339
    1UNK    H0S   28  -0.219   0.139   0.525
    1UNK    H0T   29  -0.094   0.212   0.421
    1UNK    H0U   30  -0.056   0.159   0.583
    1UNK    H0V   31  -0.029  -0.202   0.536
    1UNK    H0W   32   0.007  -0.060   0.641
    1UNK    H0X   33   0.104  -0.097   0.348
    1UNK    H0Y   34   0.141   0.044   0.455
    1UNK    H0Z   35  -0.163  -0.118   0.131
   1.00000   1.00000   1.00000

