
;
; GENERATED BY LigParGen Server
; Jorgensen Lab @ Yale University 
;
[ atomtypes ]
  opls_818  H818     1.0080     0.000    A    2.50000E-01   1.25520E-01
  opls_824  H824     1.0080     0.000    A    2.50000E-01   1.25520E-01
  opls_809  O809    15.9990     0.000    A    2.90000E-01   5.85760E-01
  opls_810  C810    12.0110     0.000    A    3.50000E-01   2.76144E-01
  opls_813  H813     1.0080     0.000    A    2.50000E-01   1.25520E-01
  opls_802  C802    12.0110     0.000    A    3.50000E-01   2.76144E-01
  opls_815  H815     1.0080     0.000    A    2.50000E-01   1.25520E-01
  opls_801  C801    12.0110     0.000    A    3.50000E-01   2.76144E-01
  opls_822  H822     1.0080     0.000    A    2.50000E-01   1.25520E-01
  opls_807  C807    12.0110     0.000    A    3.50000E-01   2.76144E-01
  opls_814  H814     1.0080     0.000    A    2.50000E-01   1.25520E-01
  opls_805  C805    12.0110     0.000    A    3.50000E-01   2.76144E-01
  opls_820  H820     1.0080     0.000    A    2.50000E-01   1.25520E-01
  opls_811  H811     1.0080     0.000    A    2.50000E-01   1.25520E-01
  opls_821  H821     1.0080     0.000    A    2.50000E-01   1.25520E-01
  opls_816  H816     1.0080     0.000    A    2.50000E-01   1.25520E-01
  opls_800  C800    12.0110     0.000    A    3.50000E-01   2.76144E-01
  opls_823  H823     1.0080     0.000    A    2.50000E-01   1.25520E-01
  opls_803  F803    18.9984     0.000    A    2.90000E-01   2.51040E-01
  opls_819  H819     1.0080     0.000    A    2.50000E-01   1.25520E-01
  opls_804  C804    12.0110     0.000    A    3.50000E-01   2.76144E-01
  opls_808  C808    12.0110     0.000    A    3.50000E-01   2.76144E-01
  opls_817  H817     1.0080     0.000    A    2.50000E-01   1.25520E-01
  opls_812  H812     1.0080     0.000    A    2.50000E-01   1.25520E-01
  opls_806  F806    18.9984     0.000    A    2.90000E-01   2.51040E-01
[ moleculetype ]
; Name               nrexcl
UNK                   3
[ atoms ]
;   nr       type  resnr residue  atom   cgnr     charge       mass  
     1   opls_800      1    UNK   C00      1    -0.2384    12.0110 
     2   opls_801      1    UNK   C01      1     -0.136    12.0110 
     3   opls_802      1    UNK   C02      1     0.0094    12.0110 
     4   opls_803      1    UNK   F03      1    -0.1871    18.9984 
     5   opls_804      1    UNK   C04      1    -0.1168    12.0110 
     6   opls_805      1    UNK   C05      1     0.0188    12.0110 
     7   opls_806      1    UNK   F06      1    -0.1867    18.9984 
     8   opls_807      1    UNK   C07      1    -0.2123    12.0110 
     9   opls_808      1    UNK   C08      1    -0.0032    12.0110 
    10   opls_809      1    UNK   O09      1    -0.3853    15.9990 
    11   opls_810      1    UNK   C0A      1     0.0064    12.0110 
    12   opls_811      1    UNK   H0B      1     0.0932     1.0080 
    13   opls_812      1    UNK   H0C      1     0.0932     1.0080 
    14   opls_813      1    UNK   H0D      1     0.0932     1.0080 
    15   opls_814      1    UNK   H0E      1     0.1132     1.0080 
    16   opls_815      1    UNK   H0F      1     0.0927     1.0080 
    17   opls_816      1    UNK   H0G      1     0.0927     1.0080 
    18   opls_817      1    UNK   H0H      1     0.0973     1.0080 
    19   opls_818      1    UNK   H0I      1     0.0973     1.0080 
    20   opls_819      1    UNK   H0J      1      0.116     1.0080 
    21   opls_820      1    UNK   H0K      1      0.116     1.0080 
    22   opls_821      1    UNK   H0M      1     0.0992     1.0080 
    23   opls_822      1    UNK   H0N      1     0.0992     1.0080 
    24   opls_823      1    UNK   H0O      1      0.114     1.0080 
    25   opls_824      1    UNK   H0P      1      0.114     1.0080 
[ bonds ]
    2     1     1      0.1529 224262.400
    3     2     1      0.1529 224262.400
    4     3     1      0.1360 307105.600
    5     2     1      0.1529 224262.400
    6     5     1      0.1529 224262.400
    7     6     1      0.1360 307105.600
    8     5     1      0.1529 224262.400
    9     8     1      0.1529 224262.400
   10     9     1      0.1410 267776.000
   11     5     1      0.1529 224262.400
   12     1     1      0.1090 284512.000
   13     1     1      0.1090 284512.000
   14     1     1      0.1090 284512.000
   15     2     1      0.1090 284512.000
   16     3     1      0.1090 284512.000
   17     3     1      0.1090 284512.000
   18     6     1      0.1090 284512.000
   19     6     1      0.1090 284512.000
   20     8     1      0.1090 284512.000
   21     8     1      0.1090 284512.000
   22     9     1      0.1090 284512.000
   23     9     1      0.1090 284512.000
   24    11     1      0.1090 284512.000
   25    11     1      0.1090 284512.000
   11    10     1      0.1410 267776.000

[ angles ]
;  ai    aj    ak funct            c0            c1            c2            c3 
    1     2     3     1    112.700    488.273
    2     3     4     1    109.500    418.400
    1     2     5     1    112.700    488.273
    2     5     6     1    112.700    488.273
    5     6     7     1    109.500    418.400
    2     5     8     1    112.700    488.273
    5     8     9     1    112.700    488.273
    8     9    10     1    109.500    418.400
    2     5    11     1    112.700    488.273
    2     1    12     1    110.700    313.800
    2     1    13     1    110.700    313.800
    2     1    14     1    110.700    313.800
    1     2    15     1    110.700    313.800
    2     3    16     1    110.700    313.800
    2     3    17     1    110.700    313.800
    5     6    18     1    110.700    313.800
    5     6    19     1    110.700    313.800
    5     8    20     1    110.700    313.800
    5     8    21     1    110.700    313.800
    8     9    22     1    110.700    313.800
    8     9    23     1    110.700    313.800
    5    11    24     1    110.700    313.800
    5    11    25     1    110.700    313.800
    9     8    21     1    110.700    313.800
   13     1    14     1    107.800    276.144
    7     6    18     1    107.000    334.720
    6     5    11     1    112.700    488.273
   10     9    23     1    109.500    292.880
   24    11    25     1    107.800    276.144
   18     6    19     1    107.800    276.144
    3     2    15     1    110.700    313.800
    9     8    20     1    110.700    313.800
   12     1    14     1    107.800    276.144
   10    11    25     1    109.500    292.880
    8     5    11     1    112.700    488.273
    5    11    10     1    109.500    418.400
   22     9    23     1    107.800    276.144
    7     6    19     1    107.000    334.720
   12     1    13     1    107.800    276.144
   10    11    24     1    109.500    292.880
    3     2     5     1    112.700    488.273
    6     5     8     1    112.700    488.273
   10     9    22     1    109.500    292.880
    9    10    11     1    109.500    502.080
   20     8    21     1    107.800    276.144
    4     3    16     1    107.000    334.720
    4     3    17     1    107.000    334.720
   16     3    17     1    107.800    276.144
    5     2    15     1    110.700    313.800

[ dihedrals ]
; IMPROPER DIHEDRAL ANGLES 
;  ai    aj    ak    al funct            c0            c1            c2            c3            c4            c5

[ dihedrals ]
; PROPER DIHEDRAL ANGLES
;  ai    aj    ak    al funct            c0            c1            c2            c3            c4            c5
    8    5    2    1        3       2.301  -1.464   0.837  -1.674  -0.000   0.000
    8    5    2    3        3       2.301  -1.464   0.837  -1.674  -0.000   0.000
   11    5    8    9        3       2.301  -1.464   0.837  -1.674  -0.000   0.000
    9    8    5    6        3       2.301  -1.464   0.837  -1.674  -0.000   0.000
   11    5    2    1        3       2.301  -1.464   0.837  -1.674  -0.000   0.000
   11    5    2    3        3       2.301  -1.464   0.837  -1.674  -0.000   0.000
    6    5    2    1        3       2.301  -1.464   0.837  -1.674  -0.000   0.000
    9    8    5    2        3       2.301  -1.464   0.837  -1.674  -0.000   0.000
    6    5    2    3        3       2.301  -1.464   0.837  -1.674  -0.000   0.000
   11    5    6    7        3      -0.209   1.883   1.674  -3.347  -0.000   0.000
    8    5    6    7        3      -0.209   1.883   1.674  -3.347  -0.000   0.000
    5    2    3    4        3      -0.209   1.883   1.674  -3.347  -0.000   0.000
    9   10   11    5        3       1.715   2.845   1.046  -5.607  -0.000   0.000
   11   10    9    8        3       1.715   2.845   1.046  -5.607  -0.000   0.000
    4    3    2    1        3      -0.209   1.883   1.674  -3.347  -0.000   0.000
    7    6    5    2        3      -0.209   1.883   1.674  -3.347  -0.000   0.000
   12    1    2    5        3       0.628   1.883   0.000  -2.510  -0.000   0.000
   25   11    5    2        3       0.628   1.883   0.000  -2.510  -0.000   0.000
   18    6    5    2        3       0.628   1.883   0.000  -2.510  -0.000   0.000
   25   11    5    6        3       0.628   1.883   0.000  -2.510  -0.000   0.000
   19    6    5   11        3       0.628   1.883   0.000  -2.510  -0.000   0.000
   18    6    5    8        3       0.628   1.883   0.000  -2.510  -0.000   0.000
   21    8    5    2        3       0.628   1.883   0.000  -2.510  -0.000   0.000
   19    6    5    2        3       0.628   1.883   0.000  -2.510  -0.000   0.000
   16    3    2    1        3       0.628   1.883   0.000  -2.510  -0.000   0.000
   16    3    2    5        3       0.628   1.883   0.000  -2.510  -0.000   0.000
   21    8    5   11        3       0.628   1.883   0.000  -2.510  -0.000   0.000
   25   11    5    8        3       0.628   1.883   0.000  -2.510  -0.000   0.000
   17    3    2    5        3       0.628   1.883   0.000  -2.510  -0.000   0.000
   17    3    2    1        3       0.628   1.883   0.000  -2.510  -0.000   0.000
   14    1    2    5        3       0.628   1.883   0.000  -2.510  -0.000   0.000
   13    1    2    5        3       0.628   1.883   0.000  -2.510  -0.000   0.000
   15    2    5    6        3       0.628   1.883   0.000  -2.510  -0.000   0.000
   19    6    5    8        3       0.628   1.883   0.000  -2.510  -0.000   0.000
   20    8    5    2        3       0.628   1.883   0.000  -2.510  -0.000   0.000
   13    1    2    3        3       0.628   1.883   0.000  -2.510  -0.000   0.000
   18    6    5   11        3       0.628   1.883   0.000  -2.510  -0.000   0.000
   20    8    5   11        3       0.628   1.883   0.000  -2.510  -0.000   0.000
   15    2    5    8        3       0.628   1.883   0.000  -2.510  -0.000   0.000
   21    8    5    6        3       0.628   1.883   0.000  -2.510  -0.000   0.000
   14    1    2    3        3       0.628   1.883   0.000  -2.510  -0.000   0.000
   15    2    5   11        3       0.628   1.883   0.000  -2.510  -0.000   0.000
   23    9    8    5        3       0.628   1.883   0.000  -2.510  -0.000   0.000
   22    9    8    5        3       0.628   1.883   0.000  -2.510  -0.000   0.000
   24   11    5    8        3       0.628   1.883   0.000  -2.510  -0.000   0.000
   24   11    5    2        3       0.628   1.883   0.000  -2.510  -0.000   0.000
   20    8    5    6        3       0.628   1.883   0.000  -2.510  -0.000   0.000
   24   11    5    6        3       0.628   1.883   0.000  -2.510  -0.000   0.000
   12    1    2    3        3       0.628   1.883   0.000  -2.510  -0.000   0.000
   15    2    3    4        3       0.837   2.510   0.000  -3.347  -0.000   0.000
   15    2    1   12        3       0.628   1.883   0.000  -2.510  -0.000   0.000
   17    3    2   15        3       0.628   1.883   0.000  -2.510  -0.000   0.000
   23    9    8   20        3       0.628   1.883   0.000  -2.510  -0.000   0.000
   22    9    8   21        3       0.628   1.883   0.000  -2.510  -0.000   0.000
   23    9    8   21        3       0.628   1.883   0.000  -2.510  -0.000   0.000
   15    2    1   13        3       0.628   1.883   0.000  -2.510  -0.000   0.000
   22    9    8   20        3       0.628   1.883   0.000  -2.510  -0.000   0.000
   16    3    2   15        3       0.628   1.883   0.000  -2.510  -0.000   0.000
   15    2    1   14        3       0.628   1.883   0.000  -2.510  -0.000   0.000
   20    8    9   10        3       0.979   2.937   0.000  -3.916  -0.000   0.000
   21    8    9   10        3       0.979   2.937   0.000  -3.916  -0.000   0.000
   25   11   10    9        3       1.590   4.770   0.000  -6.360  -0.000   0.000
   23    9   10   11        3       1.590   4.770   0.000  -6.360  -0.000   0.000
   22    9   10   11        3       1.590   4.770   0.000  -6.360  -0.000   0.000
   24   11   10    9        3       1.590   4.770   0.000  -6.360  -0.000   0.000
   10   11    5    6        3       2.874   0.582   2.092  -5.548  -0.000   0.000
   10   11    5    8        3       2.874   0.582   2.092  -5.548  -0.000   0.000
   10    9    8    5        3       2.874   0.582   2.092  -5.548  -0.000   0.000
   10   11    5    2        3       2.874   0.582   2.092  -5.548  -0.000   0.000

[ pairs ]
     1     4    1
     1     6    1
     4     5    1
     3     6    1
     2     7    1
     1     8    1
     3     8    1
     2     9    1
     2    10    1
     1    11    1
     3    11    1
     7     8    1
     6     9    1
     3    12    1
     6    10    1
     3    13    1
     5    12    1
     3    14    1
     1    16    1
     7    11    1
     5    13    1
     1    17    1
     5    14    1
     4    15    1
     2    18    1
     6    15    1
     5    16    1
     2    19    1
     5    17    1
     2    20    1
     8    15    1
     2    21    1
    11    15    1
     8    18    1
     6    20    1
     2    24    1
    12    15    1
     8    19    1
     6    21    1
     5    22    1
     2    25    1
    13    15    1
     5    23    1
    14    15    1
    11    18    1
    11    19    1
    10    20    1
     6    24    1
    15    16    1
    11    20    1
    10    21    1
     6    25    1
    15    17    1
    11    21    1
     8    24    1
    11    22    1
     9    24    1
     8    25    1
    11    23    1
     9    25    1
    20    22    1
    21    22    1
    20    23    1
    21    23    1

