LIGPARGEN GENERATED GRO FILE
   47
    1UNK    C00    1   0.100   0.100   0.000
    1UNK    O01    2  -0.042   0.100   0.000
    1UNK    C02    3  -0.102   0.100   0.130
    1UNK    C03    4  -0.062   0.224   0.211
    1UNK    C04    5  -0.257   0.092   0.109
    1UNK    C05    6  -0.305   0.215   0.028
    1UNK    C06    7  -0.455   0.222  -0.001
    1UNK    C07    8  -0.490   0.352  -0.073
    1UNK    C08    9  -0.431   0.375  -0.209
    1UNK    O09   10  -0.564   0.435  -0.021
    1UNK    C0A   11  -0.299  -0.038   0.035
    1UNK    C0B   12  -0.261  -0.177   0.096
    1UNK    C0C   13  -0.320  -0.189   0.238
    1UNK    C0D   14  -0.302  -0.297   0.001
    1UNK    C0E   15  -0.226  -0.288  -0.133
    1UNK    C0F   16  -0.264  -0.434   0.062
    1UNK    C0G   17  -0.453  -0.299  -0.028
    1UNK    H0H   18   0.134   0.076  -0.101
    1UNK    H0I   19   0.140   0.025   0.069
    1UNK    H0J   20   0.138   0.200   0.025
    1UNK    H0K   21  -0.069   0.011   0.184
    1UNK    H0M   22  -0.076   0.316   0.154
    1UNK    H0N   23   0.045   0.221   0.236
    1UNK    H0O   24  -0.118   0.230   0.305
    1UNK    H0P   25  -0.306   0.094   0.207
    1UNK    H0Q   26  -0.251   0.219  -0.067
    1UNK    H0R   27  -0.279   0.307   0.082
    1UNK    H0S   28  -0.512   0.218   0.092
    1UNK    H0T   29  -0.489   0.140  -0.065
    1UNK    H0U   30  -0.388   0.283  -0.249
    1UNK    H0V   31  -0.353   0.451  -0.202
    1UNK    H0W   32  -0.509   0.408  -0.278
    1UNK    H0X   33  -0.259  -0.032  -0.067
    1UNK    H0Y   34  -0.408  -0.037   0.026
    1UNK    H0Z   35  -0.151  -0.181   0.107
    1UNK    H10   36  -0.426  -0.161   0.239
    1UNK    H11   37  -0.267  -0.122   0.307
    1UNK    H12   38  -0.311  -0.289   0.279
    1UNK    H13   39  -0.118  -0.288  -0.118
    1UNK    H14   40  -0.252  -0.198  -0.190
    1UNK    H15   41  -0.250  -0.373  -0.198
    1UNK    H16   42  -0.157  -0.439   0.086
    1UNK    H17   43  -0.285  -0.516  -0.008
    1UNK    H18   44  -0.320  -0.457   0.153
    1UNK    H19   45  -0.485  -0.211  -0.085
    1UNK    H1A   46  -0.512  -0.303   0.064
    1UNK    H1B   47  -0.481  -0.387  -0.088
   1.00000   1.00000   1.00000

