
;
; GENERATED BY LigParGen Server
; Jorgensen Lab @ Yale University 
;
[ atomtypes ]
  opls_818  H818     1.0080     0.000    A    2.50000E-01   1.25520E-01
  opls_814  C814    12.0110     0.000    A    3.50000E-01   2.76144E-01
  opls_824  H824     1.0080     0.000    A    2.50000E-01   1.25520E-01
  opls_815  C815    12.0110     0.000    A    3.50000E-01   2.76144E-01
  opls_804  C804    12.0110     0.000    A    3.50000E-01   2.76144E-01
  opls_843  H843     1.0080     0.000    A    2.50000E-01   1.25520E-01
  opls_836  H836     1.0080     0.000    A    2.50000E-01   1.25520E-01
  opls_834  H834     1.0080     0.000    A    2.50000E-01   1.25520E-01
  opls_810  C810    12.0110     0.000    A    3.50000E-01   2.76144E-01
  opls_828  H828     1.0080     0.000    A    2.50000E-01   1.25520E-01
  opls_801  O801    15.9990     0.000    A    2.90000E-01   5.85760E-01
  opls_844  H844     1.0080     0.000    A    2.50000E-01   1.25520E-01
  opls_802  C802    12.0110     0.000    A    3.50000E-01   2.76144E-01
  opls_827  H827     1.0080     0.000    A    2.50000E-01   1.25520E-01
  opls_812  C812    12.0110     0.000    A    3.50000E-01   2.76144E-01
  opls_806  C806    12.0110     0.000    A    3.50000E-01   2.76144E-01
  opls_822  H822     1.0080     0.000    A    2.50000E-01   1.25520E-01
  opls_803  C803    12.0110     0.000    A    3.50000E-01   2.76144E-01
  opls_838  H838     1.0080     0.000    A    2.50000E-01   1.25520E-01
  opls_825  H825     1.0080     0.000    A    2.50000E-01   1.25520E-01
  opls_830  H830     1.0080     0.000    A    2.50000E-01   1.25520E-01
  opls_809  O809    15.9990     0.000    A    2.96000E-01   8.78640E-01
  opls_821  H821     1.0080     0.000    A    2.50000E-01   1.25520E-01
  opls_842  H842     1.0080     0.000    A    2.50000E-01   1.25520E-01
  opls_820  H820     1.0080     0.000    A    2.50000E-01   1.25520E-01
  opls_837  H837     1.0080     0.000    A    2.50000E-01   1.25520E-01
  opls_829  H829     1.0080     0.000    A    2.50000E-01   1.25520E-01
  opls_831  H831     1.0080     0.000    A    2.50000E-01   1.25520E-01
  opls_832  H832     1.0080     0.000    A    2.50000E-01   1.25520E-01
  opls_800  C800    12.0110     0.000    A    3.50000E-01   2.76144E-01
  opls_805  C805    12.0110     0.000    A    3.50000E-01   2.76144E-01
  opls_846  H846     1.0080     0.000    A    2.50000E-01   1.25520E-01
  opls_811  C811    12.0110     0.000    A    3.50000E-01   2.76144E-01
  opls_823  H823     1.0080     0.000    A    2.50000E-01   1.25520E-01
  opls_813  C813    12.0110     0.000    A    3.50000E-01   2.76144E-01
  opls_826  H826     1.0080     0.000    A    2.50000E-01   1.25520E-01
  opls_835  H835     1.0080     0.000    A    2.50000E-01   1.25520E-01
  opls_841  H841     1.0080     0.000    A    2.50000E-01   1.25520E-01
  opls_819  H819     1.0080     0.000    A    2.50000E-01   1.25520E-01
  opls_816  C816    12.0110     0.000    A    3.50000E-01   2.76144E-01
  opls_833  H833     1.0080     0.000    A    2.50000E-01   1.25520E-01
  opls_839  H839     1.0080     0.000    A    2.50000E-01   1.25520E-01
  opls_808  C808    12.0110     0.000    A    3.50000E-01   2.76144E-01
  opls_807  C807    12.0110     0.000    A    3.55000E-01   2.92880E-01
  opls_817  H817     1.0080     0.000    A    2.50000E-01   1.25520E-01
  opls_840  H840     1.0080     0.000    A    2.50000E-01   1.25520E-01
  opls_845  H845     1.0080     0.000    A    2.50000E-01   1.25520E-01
[ moleculetype ]
; Name               nrexcl
UNK                   3
[ atoms ]
;   nr       type  resnr residue  atom   cgnr     charge       mass  
     1   opls_800      1    UNK   C00      1    -0.0476    12.0110 
     2   opls_801      1    UNK   O01      1    -0.3881    15.9990 
     3   opls_802      1    UNK   C02      1     0.0746    12.0110 
     4   opls_803      1    UNK   C03      1    -0.2801    12.0110 
     5   opls_804      1    UNK   C04      1    -0.0902    12.0110 
     6   opls_805      1    UNK   C05      1    -0.1687    12.0110 
     7   opls_806      1    UNK   C06      1    -0.2351    12.0110 
     8   opls_807      1    UNK   C07      1     0.3627    12.0110 
     9   opls_808      1    UNK   C08      1    -0.3014    12.0110 
    10   opls_809      1    UNK   O09      1    -0.4539    15.9990 
    11   opls_810      1    UNK   C0A      1    -0.1742    12.0110 
    12   opls_811      1    UNK   C0B      1    -0.0925    12.0110 
    13   opls_812      1    UNK   C0C      1    -0.2371    12.0110 
    14   opls_813      1    UNK   C0D      1    -0.0447    12.0110 
    15   opls_814      1    UNK   C0E      1    -0.2326    12.0110 
    16   opls_815      1    UNK   C0F      1    -0.2305    12.0110 
    17   opls_816      1    UNK   C0G      1    -0.2295    12.0110 
    18   opls_817      1    UNK   H0H      1     0.0803     1.0080 
    19   opls_818      1    UNK   H0I      1     0.0803     1.0080 
    20   opls_819      1    UNK   H0J      1     0.0803     1.0080 
    21   opls_820      1    UNK   H0K      1     0.0902     1.0080 
    22   opls_821      1    UNK   H0M      1     0.0926     1.0080 
    23   opls_822      1    UNK   H0N      1     0.0926     1.0080 
    24   opls_823      1    UNK   H0O      1     0.0926     1.0080 
    25   opls_824      1    UNK   H0P      1     0.1078     1.0080 
    26   opls_825      1    UNK   H0Q      1     0.1021     1.0080 
    27   opls_826      1    UNK   H0R      1     0.1021     1.0080 
    28   opls_827      1    UNK   H0S      1     0.1189     1.0080 
    29   opls_828      1    UNK   H0T      1     0.1189     1.0080 
    30   opls_829      1    UNK   H0U      1     0.1167     1.0080 
    31   opls_830      1    UNK   H0V      1     0.1167     1.0080 
    32   opls_831      1    UNK   H0W      1     0.1167     1.0080 
    33   opls_832      1    UNK   H0X      2     0.0958     1.0080 
    34   opls_833      1    UNK   H0Y      2     0.0958     1.0080 
    35   opls_834      1    UNK   H0Z      2     0.0959     1.0080 
    36   opls_835      1    UNK   H10      2     0.0804     1.0080 
    37   opls_836      1    UNK   H11      2     0.0804     1.0080 
    38   opls_837      1    UNK   H12      2     0.0804     1.0080 
    39   opls_838      1    UNK   H13      2     0.0819     1.0080 
    40   opls_839      1    UNK   H14      2     0.0819     1.0080 
    41   opls_840      1    UNK   H15      2     0.0819     1.0080 
    42   opls_841      1    UNK   H16      2     0.0811     1.0080 
    43   opls_842      1    UNK   H17      2     0.0811     1.0080 
    44   opls_843      1    UNK   H18      2     0.0811     1.0080 
    45   opls_844      1    UNK   H19      2     0.0809     1.0080 
    46   opls_845      1    UNK   H1A      2     0.0809     1.0080 
    47   opls_846      1    UNK   H1B      2     0.0809     1.0080 
[ bonds ]
    2     1     1      0.1410 267776.000
    3     2     1      0.1410 267776.000
    4     3     1      0.1529 224262.400
    5     3     1      0.1529 224262.400
    6     5     1      0.1529 224262.400
    7     6     1      0.1529 224262.400
    8     7     1      0.1522 265265.600
    9     8     1      0.1522 265265.600
   10     8     1      0.1229 476976.000
   11     5     1      0.1529 224262.400
   12    11     1      0.1529 224262.400
   13    12     1      0.1529 224262.400
   14    12     1      0.1529 224262.400
   15    14     1      0.1529 224262.400
   16    14     1      0.1529 224262.400
   17    14     1      0.1529 224262.400
   18     1     1      0.1090 284512.000
   19     1     1      0.1090 284512.000
   20     1     1      0.1090 284512.000
   21     3     1      0.1090 284512.000
   22     4     1      0.1090 284512.000
   23     4     1      0.1090 284512.000
   24     4     1      0.1090 284512.000
   25     5     1      0.1090 284512.000
   26     6     1      0.1090 284512.000
   27     6     1      0.1090 284512.000
   28     7     1      0.1090 284512.000
   29     7     1      0.1090 284512.000
   30     9     1      0.1090 284512.000
   31     9     1      0.1090 284512.000
   32     9     1      0.1090 284512.000
   33    11     1      0.1090 284512.000
   34    11     1      0.1090 284512.000
   35    12     1      0.1090 284512.000
   36    13     1      0.1090 284512.000
   37    13     1      0.1090 284512.000
   38    13     1      0.1090 284512.000
   39    15     1      0.1090 284512.000
   40    15     1      0.1090 284512.000
   41    15     1      0.1090 284512.000
   42    16     1      0.1090 284512.000
   43    16     1      0.1090 284512.000
   44    16     1      0.1090 284512.000
   45    17     1      0.1090 284512.000
   46    17     1      0.1090 284512.000
   47    17     1      0.1090 284512.000

[ angles ]
;  ai    aj    ak funct            c0            c1            c2            c3 
    1     2     3     1    109.500    502.080
    2     3     4     1    109.500    418.400
    2     3     5     1    109.500    418.400
    3     5     6     1    112.700    488.273
    5     6     7     1    112.700    488.273
    6     7     8     1    111.100    527.184
    7     8     9     1    116.000    585.760
    7     8    10     1    120.400    669.440
    3     5    11     1    112.700    488.273
    5    11    12     1    112.700    488.273
   11    12    13     1    112.700    488.273
   11    12    14     1    112.700    488.273
   12    14    15     1    112.700    488.273
   12    14    16     1    112.700    488.273
   12    14    17     1    112.700    488.273
    2     1    18     1    109.500    292.880
    2     1    19     1    109.500    292.880
    2     1    20     1    109.500    292.880
    2     3    21     1    109.500    292.880
    3     4    22     1    110.700    313.800
    3     4    23     1    110.700    313.800
    3     4    24     1    110.700    313.800
    3     5    25     1    110.700    313.800
    5     6    26     1    110.700    313.800
    5     6    27     1    110.700    313.800
    6     7    28     1    110.700    313.800
    6     7    29     1    110.700    313.800
    8     9    30     1    109.500    292.880
    8     9    31     1    109.500    292.880
    8     9    32     1    109.500    292.880
    5    11    33     1    110.700    313.800
    5    11    34     1    110.700    313.800
   11    12    35     1    110.700    313.800
   12    13    36     1    110.700    313.800
   12    13    37     1    110.700    313.800
   12    13    38     1    110.700    313.800
   14    15    39     1    110.700    313.800
   14    15    40     1    110.700    313.800
   14    15    41     1    110.700    313.800
   14    16    42     1    110.700    313.800
   14    16    43     1    110.700    313.800
   14    16    44     1    110.700    313.800
   14    17    45     1    110.700    313.800
   14    17    46     1    110.700    313.800
   14    17    47     1    110.700    313.800
   45    17    47     1    107.800    276.144
   42    16    44     1    107.800    276.144
   39    15    41     1    107.800    276.144
   33    11    34     1    107.800    276.144
   13    12    14     1    112.700    488.273
   23     4    24     1    107.800    276.144
   39    15    40     1    107.800    276.144
   36    13    37     1    107.800    276.144
   45    17    46     1    107.800    276.144
   15    14    16     1    112.700    488.273
   22     4    24     1    107.800    276.144
    6     5    11     1    112.700    488.273
   42    16    43     1    107.800    276.144
   36    13    38     1    107.800    276.144
    4     3     5     1    112.700    488.273
   18     1    19     1    107.800    276.144
    8     7    28     1    109.500    292.880
   28     7    29     1    107.800    276.144
    7     6    27     1    110.700    313.800
   37    13    38     1    107.800    276.144
    9     8    10     1    120.400    669.440
   30     9    31     1    107.800    276.144
   22     4    23     1    107.800    276.144
   15    14    17     1    112.700    488.273
    8     7    29     1    109.500    292.880
   43    16    44     1    107.800    276.144
   30     9    32     1    107.800    276.144
    4     3    21     1    110.700    313.800
   18     1    20     1    107.800    276.144
   46    17    47     1    107.800    276.144
   31     9    32     1    107.800    276.144
   12    11    34     1    110.700    313.800
   12    11    33     1    110.700    313.800
   14    12    35     1    110.700    313.800
   11     5    25     1    110.700    313.800
   16    14    17     1    112.700    488.273
    7     6    26     1    110.700    313.800
   26     6    27     1    107.800    276.144
   40    15    41     1    107.800    276.144
   13    12    35     1    110.700    313.800
    6     5    25     1    110.700    313.800
    5     3    21     1    110.700    313.800
   19     1    20     1    107.800    276.144

[ dihedrals ]
; IMPROPER DIHEDRAL ANGLES 
;  ai    aj    ak    al funct            c0            c1            c2            c3            c4            c5
    10     8     7     9    4        180.000     43.932     2  

[ dihedrals ]
; PROPER DIHEDRAL ANGLES
;  ai    aj    ak    al funct            c0            c1            c2            c3            c4            c5
    8    7    6    5        3      -4.960   6.286   1.310  -2.636  -0.000   0.000
    9    8    7    6        3       0.818  -7.906   0.602   6.485  -0.000   0.000
   15   14   12   13        3       2.301  -1.464   0.837  -1.674  -0.000   0.000
   17   14   12   11        3       2.301  -1.464   0.837  -1.674  -0.000   0.000
    6    5    3    4        3       2.301  -1.464   0.837  -1.674  -0.000   0.000
   11    5    3    4        3       2.301  -1.464   0.837  -1.674  -0.000   0.000
   16   14   12   11        3       2.301  -1.464   0.837  -1.674  -0.000   0.000
   14   12   11    5        3       2.301  -1.464   0.837  -1.674  -0.000   0.000
   17   14   12   13        3       2.301  -1.464   0.837  -1.674  -0.000   0.000
   15   14   12   11        3       2.301  -1.464   0.837  -1.674  -0.000   0.000
   13   12   11    5        3       2.301  -1.464   0.837  -1.674  -0.000   0.000
   12   11    5    3        3       2.301  -1.464   0.837  -1.674  -0.000   0.000
    7    6    5    3        3       2.301  -1.464   0.837  -1.674  -0.000   0.000
   11    5    6    7        3       2.301  -1.464   0.837  -1.674  -0.000   0.000
   12   11    5    6        3       2.301  -1.464   0.837  -1.674  -0.000   0.000
   16   14   12   13        3       2.301  -1.464   0.837  -1.674  -0.000   0.000
    6    5    3    2        3       2.874   0.582   2.092  -5.548  -0.000   0.000
   11    5    3    2        3       2.874   0.582   2.092  -5.548  -0.000   0.000
    5    3    2    1        3       1.715   2.845   1.046  -5.607  -0.000   0.000
    4    3    2    1        3       1.715   2.845   1.046  -5.607  -0.000   0.000
   30    9    8    7        3       0.575   1.726   0.000  -2.301  -0.000   0.000
   32    9    8    7        3       0.575   1.726   0.000  -2.301  -0.000   0.000
   28    7    8    9        3       0.575   1.726   0.000  -2.301  -0.000   0.000
   29    7    8    9        3       0.575   1.726   0.000  -2.301  -0.000   0.000
   31    9    8    7        3       0.575   1.726   0.000  -2.301  -0.000   0.000
   28    7    8   10        3       0.000   0.000   0.000  -0.000  -0.000   0.000
   29    7    8   10        3       0.000   0.000   0.000  -0.000  -0.000   0.000
   32    9    8   10        3       0.000   0.000   0.000  -0.000  -0.000   0.000
   30    9    8   10        3       0.000   0.000   0.000  -0.000  -0.000   0.000
   31    9    8   10        3       0.000   0.000   0.000  -0.000  -0.000   0.000
   27    6    7    8        3      -0.209  -0.628   0.000   0.837  -0.000   0.000
   26    6    7    8        3      -0.209  -0.628   0.000   0.837  -0.000   0.000
   21    3    5   11        3       0.628   1.883   0.000  -2.510  -0.000   0.000
   39   15   14   17        3       0.628   1.883   0.000  -2.510  -0.000   0.000
   40   15   14   16        3       0.628   1.883   0.000  -2.510  -0.000   0.000
   24    4    3    5        3       0.628   1.883   0.000  -2.510  -0.000   0.000
   21    3    5    6        3       0.628   1.883   0.000  -2.510  -0.000   0.000
   37   13   12   11        3       0.628   1.883   0.000  -2.510  -0.000   0.000
   43   16   14   15        3       0.628   1.883   0.000  -2.510  -0.000   0.000
   34   11    5    3        3       0.628   1.883   0.000  -2.510  -0.000   0.000
   38   13   12   14        3       0.628   1.883   0.000  -2.510  -0.000   0.000
   38   13   12   11        3       0.628   1.883   0.000  -2.510  -0.000   0.000
   35   12   11    5        3       0.628   1.883   0.000  -2.510  -0.000   0.000
   46   17   14   16        3       0.628   1.883   0.000  -2.510  -0.000   0.000
   35   12   14   15        3       0.628   1.883   0.000  -2.510  -0.000   0.000
   35   12   14   17        3       0.628   1.883   0.000  -2.510  -0.000   0.000
   26    6    5   11        3       0.628   1.883   0.000  -2.510  -0.000   0.000
   47   17   14   12        3       0.628   1.883   0.000  -2.510  -0.000   0.000
   47   17   14   15        3       0.628   1.883   0.000  -2.510  -0.000   0.000
   41   15   14   17        3       0.628   1.883   0.000  -2.510  -0.000   0.000
   36   13   12   14        3       0.628   1.883   0.000  -2.510  -0.000   0.000
   33   11   12   13        3       0.628   1.883   0.000  -2.510  -0.000   0.000
   22    4    3    5        3       0.628   1.883   0.000  -2.510  -0.000   0.000
   33   11    5    6        3       0.628   1.883   0.000  -2.510  -0.000   0.000
   29    7    6    5        3       0.628   1.883   0.000  -2.510  -0.000   0.000
   25    5    3    4        3       0.628   1.883   0.000  -2.510  -0.000   0.000
   40   15   14   17        3       0.628   1.883   0.000  -2.510  -0.000   0.000
   44   16   14   17        3       0.628   1.883   0.000  -2.510  -0.000   0.000
   41   15   14   16        3       0.628   1.883   0.000  -2.510  -0.000   0.000
   26    6    5    3        3       0.628   1.883   0.000  -2.510  -0.000   0.000
   45   17   14   16        3       0.628   1.883   0.000  -2.510  -0.000   0.000
   46   17   14   15        3       0.628   1.883   0.000  -2.510  -0.000   0.000
   43   16   14   12        3       0.628   1.883   0.000  -2.510  -0.000   0.000
   47   17   14   16        3       0.628   1.883   0.000  -2.510  -0.000   0.000
   44   16   14   12        3       0.628   1.883   0.000  -2.510  -0.000   0.000
   37   13   12   14        3       0.628   1.883   0.000  -2.510  -0.000   0.000
   43   16   14   17        3       0.628   1.883   0.000  -2.510  -0.000   0.000
   34   11   12   14        3       0.628   1.883   0.000  -2.510  -0.000   0.000
   44   16   14   15        3       0.628   1.883   0.000  -2.510  -0.000   0.000
   25    5    6    7        3       0.628   1.883   0.000  -2.510  -0.000   0.000
   40   15   14   12        3       0.628   1.883   0.000  -2.510  -0.000   0.000
   41   15   14   12        3       0.628   1.883   0.000  -2.510  -0.000   0.000
   46   17   14   12        3       0.628   1.883   0.000  -2.510  -0.000   0.000
   42   16   14   17        3       0.628   1.883   0.000  -2.510  -0.000   0.000
   42   16   14   15        3       0.628   1.883   0.000  -2.510  -0.000   0.000
   39   15   14   16        3       0.628   1.883   0.000  -2.510  -0.000   0.000
   45   17   14   12        3       0.628   1.883   0.000  -2.510  -0.000   0.000
   42   16   14   12        3       0.628   1.883   0.000  -2.510  -0.000   0.000
   39   15   14   12        3       0.628   1.883   0.000  -2.510  -0.000   0.000
   36   13   12   11        3       0.628   1.883   0.000  -2.510  -0.000   0.000
   28    7    6    5        3       0.628   1.883   0.000  -2.510  -0.000   0.000
   33   11   12   14        3       0.628   1.883   0.000  -2.510  -0.000   0.000
   33   11    5    3        3       0.628   1.883   0.000  -2.510  -0.000   0.000
   27    6    5    3        3       0.628   1.883   0.000  -2.510  -0.000   0.000
   35   12   14   16        3       0.628   1.883   0.000  -2.510  -0.000   0.000
   27    6    5   11        3       0.628   1.883   0.000  -2.510  -0.000   0.000
   45   17   14   15        3       0.628   1.883   0.000  -2.510  -0.000   0.000
   25    5   11   12        3       0.628   1.883   0.000  -2.510  -0.000   0.000
   34   11    5    6        3       0.628   1.883   0.000  -2.510  -0.000   0.000
   23    4    3    5        3       0.628   1.883   0.000  -2.510  -0.000   0.000
   34   11   12   13        3       0.628   1.883   0.000  -2.510  -0.000   0.000
   35   12   11   34        3       0.628   1.883   0.000  -2.510  -0.000   0.000
   22    4    3   21        3       0.628   1.883   0.000  -2.510  -0.000   0.000
   27    6    5   25        3       0.628   1.883   0.000  -2.510  -0.000   0.000
   26    6    5   25        3       0.628   1.883   0.000  -2.510  -0.000   0.000
   23    4    3   21        3       0.628   1.883   0.000  -2.510  -0.000   0.000
   36   13   12   35        3       0.628   1.883   0.000  -2.510  -0.000   0.000
   37   13   12   35        3       0.628   1.883   0.000  -2.510  -0.000   0.000
   24    4    3   21        3       0.628   1.883   0.000  -2.510  -0.000   0.000
   33   11    5   25        3       0.628   1.883   0.000  -2.510  -0.000   0.000
   34   11    5   25        3       0.628   1.883   0.000  -2.510  -0.000   0.000
   28    7    6   26        3       0.628   1.883   0.000  -2.510  -0.000   0.000
   38   13   12   35        3       0.628   1.883   0.000  -2.510  -0.000   0.000
   35   12   11   33        3       0.628   1.883   0.000  -2.510  -0.000   0.000
   25    5    3   21        3       0.628   1.883   0.000  -2.510  -0.000   0.000
   29    7    6   27        3       0.628   1.883   0.000  -2.510  -0.000   0.000
   28    7    6   27        3       0.628   1.883   0.000  -2.510  -0.000   0.000
   29    7    6   26        3       0.628   1.883   0.000  -2.510  -0.000   0.000
   23    4    3    2        3       0.979   2.937   0.000  -3.916  -0.000   0.000
   25    5    3    2        3       0.979   2.937   0.000  -3.916  -0.000   0.000
   22    4    3    2        3       0.979   2.937   0.000  -3.916  -0.000   0.000
   24    4    3    2        3       0.979   2.937   0.000  -3.916  -0.000   0.000
   21    3    2    1        3       1.590   4.770   0.000  -6.360  -0.000   0.000
   18    1    2    3        3       1.590   4.770   0.000  -6.360  -0.000   0.000
   20    1    2    3        3       1.590   4.770   0.000  -6.360  -0.000   0.000
   19    1    2    3        3       1.590   4.770   0.000  -6.360  -0.000   0.000
   10    8    7    6        3       0.000   0.000   0.000  -0.000  -0.000   0.000

[ pairs ]
     1     4    1
     1     5    1
     2     6    1
     4     6    1
     3     7    1
     5     8    1
     2    11    1
     6     9    1
     4    11    1
     3    12    1
     6    10    1
     7    11    1
     6    12    1
     5    13    1
     5    14    1
     3    18    1
     3    19    1
     1    21    1
     3    20    1
     2    22    1
     2    23    1
    11    15    1
     2    24    1
    11    16    1
     6    21    1
     5    22    1
     2    25    1
    13    15    1
    11    17    1
     5    23    1
    13    16    1
     5    24    1
     4    25    1
     3    26    1
    13    17    1
     3    27    1
    11    21    1
     7    25    1
     5    28    1
     8    26    1
     5    29    1
     8    27    1
     3    33    1
    12    25    1
    11    26    1
     9    28    1
     7    30    1
     3    34    1
    11    27    1
    10    28    1
     9    29    1
     7    31    1
    10    29    1
     7    32    1
     6    33    1
    10    30    1
     6    34    1
     5    35    1
    10    31    1
    10    32    1
    21    22    1
    21    23    1
    21    24    1
    21    25    1
    13    33    1
    14    33    1
    13    34    1
    11    36    1
    14    34    1
    11    37    1
    11    38    1
    15    35    1
    14    36    1
    25    26    1
    16    35    1
    14    37    1
    12    39    1
    25    27    1
    17    35    1
    14    38    1
    12    40    1
    12    41    1
    26    28    1
    12    42    1
    27    28    1
    26    29    1
    16    39    1
    12    43    1
    27    29    1
    17    39    1
    16    40    1
    12    44    1
    17    40    1
    16    41    1
    15    42    1
    12    45    1
    25    33    1
    17    41    1
    15    43    1
    12    46    1
    25    34    1
    17    42    1
    15    44    1
    12    47    1
    17    43    1
    15    45    1
    17    44    1
    16    45    1
    15    46    1
    16    46    1
    15    47    1
    16    47    1
    33    35    1
    34    35    1
    35    36    1
    35    37    1
    35    38    1

