LIGPARGEN GENERATED GRO FILE
   43
    1UNK    C00    1   0.100   0.100   0.000
    1UNK    N01    2  -0.047   0.100   0.000
    1UNK    C02    3  -0.092   0.100   0.139
    1UNK    C03    4  -0.096   0.213  -0.082
    1UNK    C04    5  -0.248   0.226  -0.111
    1UNK    C05    6  -0.331   0.274   0.012
    1UNK    C06    7  -0.466   0.315  -0.049
    1UNK    C07    8  -0.445   0.285  -0.200
    1UNK    C08    9  -0.446   0.131  -0.209
    1UNK    O09   10  -0.457   0.080  -0.340
    1UNK    C0A   11  -0.344   0.007  -0.365
    1UNK    O0B   12  -0.328  -0.061  -0.465
    1UNK    O0C   13  -0.249   0.029  -0.270
    1UNK    C0D   14  -0.311   0.090  -0.157
    1UNK    C0E   15  -0.297   0.330  -0.224
    1UNK    C0F   16  -0.238   0.305  -0.364
    1UNK    N0G   17  -0.285   0.476  -0.191
    1UNK    C0H   18  -0.375   0.563  -0.270
    1UNK    C0I   19  -0.150   0.533  -0.198
    1UNK    H0J   20   0.139   0.011   0.050
    1UNK    H0K   21   0.141   0.188   0.051
    1UNK    H0M   22   0.140   0.098  -0.102
    1UNK    H0N   23  -0.043   0.019   0.195
    1UNK    H0O   24  -0.198   0.078   0.147
    1UNK    H0P   25  -0.070   0.194   0.190
    1UNK    H0Q   26  -0.046   0.203  -0.179
    1UNK    H0R   27  -0.060   0.307  -0.038
    1UNK    H0S   28  -0.283   0.359   0.062
    1UNK    H0T   29  -0.347   0.196   0.087
    1UNK    H0U   30  -0.487   0.421  -0.029
    1UNK    H0V   31  -0.549   0.257  -0.005
    1UNK    H0W   32  -0.520   0.331  -0.265
    1UNK    H0X   33  -0.527   0.088  -0.149
    1UNK    H0Y   34  -0.319   0.019  -0.074
    1UNK    H0Z   35  -0.131   0.282  -0.359
    1UNK    H10   36  -0.244   0.393  -0.429
    1UNK    H11   37  -0.288   0.228  -0.421
    1UNK    H12   38  -0.480   0.536  -0.259
    1UNK    H13   39  -0.351   0.563  -0.377
    1UNK    H14   40  -0.367   0.667  -0.235
    1UNK    H15   41  -0.071   0.459  -0.185
    1UNK    H16   42  -0.139   0.606  -0.117
    1UNK    H17   43  -0.130   0.584  -0.292
   1.00000   1.00000   1.00000

