LIGPARGEN GENERATED GRO FILE
   44
    1UNK    C00    1   0.100   0.100   0.000
    1UNK    C01    2  -0.052   0.100   0.000
    1UNK    C02    3  -0.107   0.100   0.143
    1UNK    C03    4  -0.261   0.100   0.145
    1UNK    N04    5  -0.319   0.100   0.281
    1UNK    C05    6  -0.271   0.217   0.356
    1UNK    C06    7  -0.467   0.101   0.279
    1UNK    C07    8  -0.540  -0.014   0.206
    1UNK    C08    9  -0.521  -0.154   0.261
    1UNK    C09   10  -0.601  -0.172   0.388
    1UNK    C0A   11  -0.615  -0.321   0.429
    1UNK    N0B   12  -0.489  -0.393   0.459
    1UNK    C0C   13  -0.419  -0.332   0.572
    1UNK    C0D   14  -0.518  -0.533   0.490
    1UNK    O0E   15  -0.734  -0.121   0.376
    1UNK    C0F   16  -0.768  -0.015   0.299
    1UNK    O0G   17  -0.875   0.042   0.311
    1UNK    O0H   18  -0.680   0.019   0.201
    1UNK    H0I   19   0.138   0.100  -0.102
    1UNK    H0J   20   0.139   0.011   0.051
    1UNK    H0K   21   0.139   0.189   0.051
    1UNK    H0M   22  -0.088   0.012  -0.055
    1UNK    H0N   23  -0.088   0.189  -0.054
    1UNK    H0O   24  -0.068   0.188   0.194
    1UNK    H0P   25  -0.070   0.012   0.197
    1UNK    H0Q   26  -0.293   0.010   0.092
    1UNK    H0R   27  -0.298   0.186   0.088
    1UNK    H0S   28  -0.169   0.202   0.390
    1UNK    H0T   29  -0.331   0.235   0.447
    1UNK    H0U   30  -0.276   0.309   0.296
    1UNK    H0V   31  -0.501   0.196   0.235
    1UNK    H0W   32  -0.503   0.103   0.382
    1UNK    H0X   33  -0.508  -0.015   0.101
    1UNK    H0Y   34  -0.415  -0.178   0.276
    1UNK    H0Z   35  -0.560  -0.224   0.186
    1UNK    H10   36  -0.555  -0.116   0.470
    1UNK    H11   37  -0.666  -0.373   0.347
    1UNK    H12   38  -0.684  -0.328   0.514
    1UNK    H13   39  -0.380  -0.233   0.545
    1UNK    H14   40  -0.332  -0.392   0.601
    1UNK    H15   41  -0.483  -0.321   0.660
    1UNK    H16   42  -0.566  -0.583   0.405
    1UNK    H17   43  -0.584  -0.544   0.577
    1UNK    H18   44  -0.425  -0.589   0.510
   1.00000   1.00000   1.00000

