
;
; GENERATED BY LigParGen Server
; Jorgensen Lab @ Yale University 
;
[ atomtypes ]
  opls_814  C814    12.0110     0.000    A    3.50000E-01   2.76144E-01
  opls_824  H824     1.0080     0.000    A    2.50000E-01   1.25520E-01
  opls_801  N801    14.0070     0.000    A    3.30000E-01   7.11280E-01
  opls_809  O809    15.9990     0.000    A    2.90000E-01   5.85760E-01
  opls_818  C818    12.0110     0.000    A    3.50000E-01   2.76144E-01
  opls_836  H836     1.0080     0.000    A    2.50000E-01   1.25520E-01
  opls_834  H834     1.0080     0.000    A    2.50000E-01   1.25520E-01
  opls_828  H828     1.0080     0.000    A    2.50000E-01   1.25520E-01
  opls_812  O812    15.9990     0.000    A    2.90000E-01   5.85760E-01
  opls_802  C802    12.0110     0.000    A    3.50000E-01   2.76144E-01
  opls_827  H827     1.0080     0.000    A    2.50000E-01   1.25520E-01
  opls_838  H838     1.0080     0.000    A    2.50000E-01   1.25520E-01
  opls_811  O811    15.9990     0.000    A    2.96000E-01   8.78640E-01
  opls_822  H822     1.0080     0.000    A    2.50000E-01   1.25520E-01
  opls_803  C803    12.0110     0.000    A    3.50000E-01   2.76144E-01
  opls_825  H825     1.0080     0.000    A    2.50000E-01   1.25520E-01
  opls_815  C815    12.0110     0.000    A    3.50000E-01   2.76144E-01
  opls_830  H830     1.0080     0.000    A    2.50000E-01   1.25520E-01
  opls_805  C805    12.0110     0.000    A    3.50000E-01   2.76144E-01
  opls_842  H842     1.0080     0.000    A    2.50000E-01   1.25520E-01
  opls_820  H820     1.0080     0.000    A    2.50000E-01   1.25520E-01
  opls_837  H837     1.0080     0.000    A    2.50000E-01   1.25520E-01
  opls_821  H821     1.0080     0.000    A    2.50000E-01   1.25520E-01
  opls_831  H831     1.0080     0.000    A    2.50000E-01   1.25520E-01
  opls_810  C810    12.0110     0.000    A    3.55000E-01   2.92880E-01
  opls_816  N816    14.0070     0.000    A    3.30000E-01   7.11280E-01
  opls_832  H832     1.0080     0.000    A    2.50000E-01   1.25520E-01
  opls_800  C800    12.0110     0.000    A    3.50000E-01   2.76144E-01
  opls_806  C806    12.0110     0.000    A    3.50000E-01   2.76144E-01
  opls_823  H823     1.0080     0.000    A    2.50000E-01   1.25520E-01
  opls_813  C813    12.0110     0.000    A    3.50000E-01   2.76144E-01
  opls_826  H826     1.0080     0.000    A    2.50000E-01   1.25520E-01
  opls_835  H835     1.0080     0.000    A    2.50000E-01   1.25520E-01
  opls_841  H841     1.0080     0.000    A    2.50000E-01   1.25520E-01
  opls_819  H819     1.0080     0.000    A    2.50000E-01   1.25520E-01
  opls_804  C804    12.0110     0.000    A    3.50000E-01   2.76144E-01
  opls_833  H833     1.0080     0.000    A    2.50000E-01   1.25520E-01
  opls_839  H839     1.0080     0.000    A    2.50000E-01   1.25520E-01
  opls_817  C817    12.0110     0.000    A    3.50000E-01   2.76144E-01
  opls_808  C808    12.0110     0.000    A    3.50000E-01   2.76144E-01
  opls_840  H840     1.0080     0.000    A    2.50000E-01   1.25520E-01
  opls_829  H829     1.0080     0.000    A    2.50000E-01   1.25520E-01
  opls_807  C807    12.0110     0.000    A    3.50000E-01   2.76144E-01
[ moleculetype ]
; Name               nrexcl
UNK                   3
[ atoms ]
;   nr       type  resnr residue  atom   cgnr     charge       mass  
     1   opls_800      1    UNK   C00      1     -0.053    12.0110 
     2   opls_801      1    UNK   N01      1    -0.5744    14.0070 
     3   opls_802      1    UNK   C02      1    -0.0545    12.0110 
     4   opls_803      1    UNK   C03      1     0.0331    12.0110 
     5   opls_804      1    UNK   C04      1     -0.042    12.0110 
     6   opls_805      1    UNK   C05      1    -0.1746    12.0110 
     7   opls_806      1    UNK   C06      1    -0.1773    12.0110 
     8   opls_807      1    UNK   C07      1     -0.124    12.0110 
     9   opls_808      1    UNK   C08      1      0.007    12.0110 
    10   opls_809      1    UNK   O09      1      -0.32    15.9990 
    11   opls_810      1    UNK   C0A      1     0.5591    12.0110 
    12   opls_811      1    UNK   O0B      1    -0.3805    15.9990 
    13   opls_812      1    UNK   O0C      1    -0.3088    15.9990 
    14   opls_813      1    UNK   C0D      1     0.0424    12.0110 
    15   opls_814      1    UNK   C0E      1     0.1721    12.0110 
    16   opls_815      1    UNK   C0F      1    -0.2635    12.0110 
    17   opls_816      1    UNK   N0G      1     -0.631    14.0070 
    18   opls_817      1    UNK   C0H      1    -0.0292    12.0110 
    19   opls_818      1    UNK   C0I      1    -0.0277    12.0110 
    20   opls_819      1    UNK   H0J      1     0.0845     1.0080 
    21   opls_820      1    UNK   H0K      1     0.0845     1.0080 
    22   opls_821      1    UNK   H0M      1     0.0845     1.0080 
    23   opls_822      1    UNK   H0N      1      0.081     1.0080 
    24   opls_823      1    UNK   H0O      1      0.081     1.0080 
    25   opls_824      1    UNK   H0P      1      0.081     1.0080 
    26   opls_825      1    UNK   H0Q      1     0.0932     1.0080 
    27   opls_826      1    UNK   H0R      1     0.0932     1.0080 
    28   opls_827      1    UNK   H0S      1     0.1074     1.0080 
    29   opls_828      1    UNK   H0T      1     0.1074     1.0080 
    30   opls_829      1    UNK   H0U      1     0.1066     1.0080 
    31   opls_830      1    UNK   H0V      1     0.1066     1.0080 
    32   opls_831      1    UNK   H0W      1     0.1417     1.0080 
    33   opls_832      1    UNK   H0X      2     0.1448     1.0080 
    34   opls_833      1    UNK   H0Y      2     0.1571     1.0080 
    35   opls_834      1    UNK   H0Z      2     0.0979     1.0080 
    36   opls_835      1    UNK   H10      2     0.0979     1.0080 
    37   opls_836      1    UNK   H11      2     0.0979     1.0080 
    38   opls_837      1    UNK   H12      2      0.084     1.0080 
    39   opls_838      1    UNK   H13      2      0.084     1.0080 
    40   opls_839      1    UNK   H14      2      0.084     1.0080 
    41   opls_840      1    UNK   H15      2     0.0824     1.0080 
    42   opls_841      1    UNK   H16      2     0.0824     1.0080 
    43   opls_842      1    UNK   H17      2     0.0824     1.0080 
[ bonds ]
    2     1     1      0.1448 319657.600
    3     2     1      0.1448 319657.600
    4     2     1      0.1448 319657.600
    5     4     1      0.1529 224262.400
    6     5     1      0.1529 224262.400
    7     6     1      0.1529 224262.400
    8     7     1      0.1529 224262.400
    9     8     1      0.1529 224262.400
   10     9     1      0.1410 267776.000
   11    10     1      0.1327 179075.200
   12    11     1      0.1229 476976.000
   13    11     1      0.1327 179075.200
   14     5     1      0.1529 224262.400
   15     5     1      0.1529 224262.400
   16    15     1      0.1529 224262.400
   17    15     1      0.1448 319657.600
   18    17     1      0.1448 319657.600
   19    17     1      0.1448 319657.600
   20     1     1      0.1090 284512.000
   21     1     1      0.1090 284512.000
   22     1     1      0.1090 284512.000
   23     3     1      0.1090 284512.000
   24     3     1      0.1090 284512.000
   25     3     1      0.1090 284512.000
   26     4     1      0.1090 284512.000
   27     4     1      0.1090 284512.000
   28     6     1      0.1090 284512.000
   29     6     1      0.1090 284512.000
   30     7     1      0.1090 284512.000
   31     7     1      0.1090 284512.000
   32     8     1      0.1090 284512.000
   33     9     1      0.1090 284512.000
   34    14     1      0.1090 284512.000
   35    16     1      0.1090 284512.000
   36    16     1      0.1090 284512.000
   37    16     1      0.1090 284512.000
   38    18     1      0.1090 284512.000
   39    18     1      0.1090 284512.000
   40    18     1      0.1090 284512.000
   41    19     1      0.1090 284512.000
   42    19     1      0.1090 284512.000
   43    19     1      0.1090 284512.000
   15     8     1      0.1529 224262.400
   14     9     1      0.1529 224262.400
   14    13     1      0.1410 267776.000

[ angles ]
;  ai    aj    ak funct            c0            c1            c2            c3 
    1     2     3     1    107.200    433.462
    1     2     4     1    107.200    433.462
    2     4     5     1    109.470    470.282
    4     5     6     1    112.700    488.273
    5     6     7     1    112.700    488.273
    6     7     8     1    112.700    488.273
    7     8     9     1    112.700    488.273
    8     9    10     1    109.500    418.400
    9    10    11     1    116.900    694.544
   10    11    12     1    123.400    694.544
   10    11    13     1    118.180    584.923
    4     5    14     1    112.700    488.273
    4     5    15     1    112.700    488.273
    5    15    16     1    112.700    488.273
    5    15    17     1    109.470    470.282
   15    17    18     1    107.200    433.462
   15    17    19     1    107.200    433.462
    2     1    20     1    109.500    292.880
    2     1    21     1    109.500    292.880
    2     1    22     1    109.500    292.880
    2     3    23     1    109.500    292.880
    2     3    24     1    109.500    292.880
    2     3    25     1    109.500    292.880
    2     4    26     1    109.500    292.880
    2     4    27     1    109.500    292.880
    5     6    28     1    110.700    313.800
    5     6    29     1    110.700    313.800
    6     7    30     1    110.700    313.800
    6     7    31     1    110.700    313.800
    7     8    32     1    110.700    313.800
    8     9    33     1    110.700    313.800
    5    14    34     1    110.700    313.800
   15    16    35     1    110.700    313.800
   15    16    36     1    110.700    313.800
   15    16    37     1    110.700    313.800
   17    18    38     1    109.500    292.880
   17    18    39     1    109.500    292.880
   17    18    40     1    109.500    292.880
   17    19    41     1    109.500    292.880
   17    19    42     1    109.500    292.880
   17    19    43     1    109.500    292.880
    6     5    14     1    112.700    488.273
    5    15     8     1    112.700    488.273
    9    14    34     1    110.700    313.800
   10     9    14     1    109.500    418.400
   26     4    27     1    107.800    276.144
   16    15    17     1    109.470    470.282
   13    14    34     1    109.500    292.880
   10     9    33     1    109.500    292.880
   39    18    40     1    107.800    276.144
   20     1    21     1    107.800    276.144
    5     4    27     1    110.700    313.800
    8     7    30     1    110.700    313.800
    5    14    13     1    109.500    418.400
   24     3    25     1    107.800    276.144
   35    16    37     1    107.800    276.144
    5     4    26     1    110.700    313.800
    5    14     9     1    112.700    488.273
    8    15    17     1    109.470    470.282
   38    18    40     1    107.800    276.144
    8     7    31     1    110.700    313.800
    9     8    15     1    112.700    488.273
    7     8    15     1    112.700    488.273
   20     1    22     1    107.800    276.144
   23     3    25     1    107.800    276.144
    8    15    16     1    112.700    488.273
    8     9    14     1    112.700    488.273
   28     6    29     1    107.800    276.144
   38    18    39     1    107.800    276.144
    7     6    28     1    110.700    313.800
   14     5    15     1    112.700    488.273
   23     3    24     1    107.800    276.144
   15     8    32     1    110.700    313.800
   35    16    36     1    107.800    276.144
    7     6    29     1    110.700    313.800
    9    14    13     1    109.500    418.400
   21     1    22     1    107.800    276.144
    9     8    32     1    110.700    313.800
   41    19    42     1    107.800    276.144
   11    13    14     1    116.900    694.544
    6     5    15     1    112.700    488.273
   14     9    33     1    110.700    313.800
   18    17    19     1    107.200    433.462
   41    19    43     1    107.800    276.144
    3     2     4     1    107.200    433.462
   30     7    31     1    107.800    276.144
   12    11    13     1    123.400    694.544
   36    16    37     1    107.800    276.144
   42    19    43     1    107.800    276.144

[ dihedrals ]
; IMPROPER DIHEDRAL ANGLES 
;  ai    aj    ak    al funct            c0            c1            c2            c3            c4            c5
    13    11    10    12    4        180.000     43.932     2  

[ dihedrals ]
; PROPER DIHEDRAL ANGLES
;  ai    aj    ak    al funct            c0            c1            c2            c3            c4            c5
   11   10    9    8        3      -2.197   5.201   0.527  -3.531  -0.000   0.000
   11   13   14    5        3      -2.197   5.201   0.527  -3.531  -0.000   0.000
   11   13   14    9        3      -2.197   5.201   0.527  -3.531  -0.000   0.000
    8   15    5    6        3       2.301  -1.464   0.837  -1.674  -0.000   0.000
   15    5   14    9        3       2.301  -1.464   0.837  -1.674  -0.000   0.000
    8   15    5    4        3       2.301  -1.464   0.837  -1.674  -0.000   0.000
   15    5    6    7        3       2.301  -1.464   0.837  -1.674  -0.000   0.000
    9    8   15    5        3       2.301  -1.464   0.837  -1.674  -0.000   0.000
    9   14    5    4        3       2.301  -1.464   0.837  -1.674  -0.000   0.000
   14    5   15    8        3       2.301  -1.464   0.837  -1.674  -0.000   0.000
   14    9    8    7        3       2.301  -1.464   0.837  -1.674  -0.000   0.000
   15    8    7    6        3       2.301  -1.464   0.837  -1.674  -0.000   0.000
    8    9   14    5        3       2.301  -1.464   0.837  -1.674  -0.000   0.000
    7    8   15    5        3       2.301  -1.464   0.837  -1.674  -0.000   0.000
   16   15    8    9        3       2.301  -1.464   0.837  -1.674  -0.000   0.000
    9   14    5    6        3       2.301  -1.464   0.837  -1.674  -0.000   0.000
   16   15    8    7        3       2.301  -1.464   0.837  -1.674  -0.000   0.000
   16   15    5   14        3       2.301  -1.464   0.837  -1.674  -0.000   0.000
   16   15    5    4        3       2.301  -1.464   0.837  -1.674  -0.000   0.000
    7    6    5    4        3       2.301  -1.464   0.837  -1.674  -0.000   0.000
   16   15    5    6        3       2.301  -1.464   0.837  -1.674  -0.000   0.000
    8    7    6    5        3       2.301  -1.464   0.837  -1.674  -0.000   0.000
    9    8    7    6        3       2.301  -1.464   0.837  -1.674  -0.000   0.000
   14    5    6    7        3       2.301  -1.464   0.837  -1.674  -0.000   0.000
   15    8    9   14        3       2.301  -1.464   0.837  -1.674  -0.000   0.000
   14    5    4    2        3       3.335  -1.552   2.820  -4.602  -0.000   0.000
    6    5    4    2        3       3.335  -1.552   2.820  -4.602  -0.000   0.000
   15    5    4    2        3       3.335  -1.552   2.820  -4.602  -0.000   0.000
   15    5   14   13        3       2.874   0.582   2.092  -5.548  -0.000   0.000
   15    8    9   10        3       2.874   0.582   2.092  -5.548  -0.000   0.000
    5    4    2    3        3       1.789   3.492   0.536  -5.816  -0.000   0.000
    5    4    2    1        3       1.789   3.492   0.536  -5.816  -0.000   0.000
   14    9   10   11        3      -2.197   5.201   0.527  -3.531  -0.000   0.000
   19   17   15    8        3       1.789   3.492   0.536  -5.816  -0.000   0.000
   19   17   15   16        3       1.789   3.492   0.536  -5.816  -0.000   0.000
   18   17   15   16        3       1.789   3.492   0.536  -5.816  -0.000   0.000
   19   17   15    5        3       1.789   3.492   0.536  -5.816  -0.000   0.000
   18   17   15    8        3       1.789   3.492   0.536  -5.816  -0.000   0.000
   18   17   15    5        3       1.789   3.492   0.536  -5.816  -0.000   0.000
   14   13   11   12        3      21.439   0.000  -21.439  -0.000  -0.000   0.000
   14   13   11   10        3      31.206  -9.768  -21.439  -0.000  -0.000   0.000
   33    9    8   15        3       0.628   1.883   0.000  -2.510  -0.000   0.000
   29    6    5    4        3       0.628   1.883   0.000  -2.510  -0.000   0.000
   31    7    6    5        3       0.628   1.883   0.000  -2.510  -0.000   0.000
   32    8    9   14        3       0.628   1.883   0.000  -2.510  -0.000   0.000
   26    4    5   15        3       0.628   1.883   0.000  -2.510  -0.000   0.000
   34   14    9    8        3       0.628   1.883   0.000  -2.510  -0.000   0.000
   30    7    8    9        3       0.628   1.883   0.000  -2.510  -0.000   0.000
   32    8    7    6        3       0.628   1.883   0.000  -2.510  -0.000   0.000
   31    7    8    9        3       0.628   1.883   0.000  -2.510  -0.000   0.000
   29    6    7    8        3       0.628   1.883   0.000  -2.510  -0.000   0.000
   28    6    5   15        3       0.628   1.883   0.000  -2.510  -0.000   0.000
   34   14    5    6        3       0.628   1.883   0.000  -2.510  -0.000   0.000
   27    4    5   15        3       0.628   1.883   0.000  -2.510  -0.000   0.000
   28    6    5   14        3       0.628   1.883   0.000  -2.510  -0.000   0.000
   37   16   15    5        3       0.628   1.883   0.000  -2.510  -0.000   0.000
   26    4    5   14        3       0.628   1.883   0.000  -2.510  -0.000   0.000
   26    4    5    6        3       0.628   1.883   0.000  -2.510  -0.000   0.000
   36   16   15    8        3       0.628   1.883   0.000  -2.510  -0.000   0.000
   36   16   15    5        3       0.628   1.883   0.000  -2.510  -0.000   0.000
   32    8   15   16        3       0.628   1.883   0.000  -2.510  -0.000   0.000
   29    6    5   15        3       0.628   1.883   0.000  -2.510  -0.000   0.000
   33    9   14    5        3       0.628   1.883   0.000  -2.510  -0.000   0.000
   32    8   15    5        3       0.628   1.883   0.000  -2.510  -0.000   0.000
   30    7    8   15        3       0.628   1.883   0.000  -2.510  -0.000   0.000
   27    4    5    6        3       0.628   1.883   0.000  -2.510  -0.000   0.000
   34   14    5    4        3       0.628   1.883   0.000  -2.510  -0.000   0.000
   33    9    8    7        3       0.628   1.883   0.000  -2.510  -0.000   0.000
   30    7    6    5        3       0.628   1.883   0.000  -2.510  -0.000   0.000
   35   16   15    5        3       0.628   1.883   0.000  -2.510  -0.000   0.000
   28    6    5    4        3       0.628   1.883   0.000  -2.510  -0.000   0.000
   29    6    5   14        3       0.628   1.883   0.000  -2.510  -0.000   0.000
   35   16   15    8        3       0.628   1.883   0.000  -2.510  -0.000   0.000
   31    7    8   15        3       0.628   1.883   0.000  -2.510  -0.000   0.000
   37   16   15    8        3       0.628   1.883   0.000  -2.510  -0.000   0.000
   28    6    7    8        3       0.628   1.883   0.000  -2.510  -0.000   0.000
   34   14    5   15        3       0.628   1.883   0.000  -2.510  -0.000   0.000
   27    4    5   14        3       0.628   1.883   0.000  -2.510  -0.000   0.000
   31    7    6   28        3       0.628   1.883   0.000  -2.510  -0.000   0.000
   32    8    7   31        3       0.628   1.883   0.000  -2.510  -0.000   0.000
   34   14    9   33        3       0.628   1.883   0.000  -2.510  -0.000   0.000
   30    7    6   29        3       0.628   1.883   0.000  -2.510  -0.000   0.000
   30    7    6   28        3       0.628   1.883   0.000  -2.510  -0.000   0.000
   31    7    6   29        3       0.628   1.883   0.000  -2.510  -0.000   0.000
   32    8    7   30        3       0.628   1.883   0.000  -2.510  -0.000   0.000
   33    9    8   32        3       0.628   1.883   0.000  -2.510  -0.000   0.000
   37   16   15   17        3      -4.096   5.088   2.966  -3.958  -0.000   0.000
   36   16   15   17        3      -4.096   5.088   2.966  -3.958  -0.000   0.000
   32    8   15   17        3      -4.096   5.088   2.966  -3.958  -0.000   0.000
   35   16   15   17        3      -4.096   5.088   2.966  -3.958  -0.000   0.000
   34   14    9   10        3       0.979   2.937   0.000  -3.916  -0.000   0.000
   33    9   14   13        3       0.979   2.937   0.000  -3.916  -0.000   0.000
   32    8    9   10        3       0.979   2.937   0.000  -3.916  -0.000   0.000
   21    1    2    4        3       1.172   3.515   0.000  -4.686  -0.000   0.000
   26    4    2    3        3       1.172   3.515   0.000  -4.686  -0.000   0.000
   27    4    2    1        3       1.172   3.515   0.000  -4.686  -0.000   0.000
   23    3    2    1        3       1.172   3.515   0.000  -4.686  -0.000   0.000
   22    1    2    3        3       1.172   3.515   0.000  -4.686  -0.000   0.000
   42   19   17   15        3       1.172   3.515   0.000  -4.686  -0.000   0.000
   22    1    2    4        3       1.172   3.515   0.000  -4.686  -0.000   0.000
   39   18   17   15        3       1.172   3.515   0.000  -4.686  -0.000   0.000
   24    3    2    1        3       1.172   3.515   0.000  -4.686  -0.000   0.000
   20    1    2    3        3       1.172   3.515   0.000  -4.686  -0.000   0.000
   41   19   17   15        3       1.172   3.515   0.000  -4.686  -0.000   0.000
   40   18   17   19        3       1.172   3.515   0.000  -4.686  -0.000   0.000
   25    3    2    4        3       1.172   3.515   0.000  -4.686  -0.000   0.000
   25    3    2    1        3       1.172   3.515   0.000  -4.686  -0.000   0.000
   27    4    2    3        3       1.172   3.515   0.000  -4.686  -0.000   0.000
   41   19   17   18        3       1.172   3.515   0.000  -4.686  -0.000   0.000
   43   19   17   18        3       1.172   3.515   0.000  -4.686  -0.000   0.000
   39   18   17   19        3       1.172   3.515   0.000  -4.686  -0.000   0.000
   43   19   17   15        3       1.172   3.515   0.000  -4.686  -0.000   0.000
   40   18   17   15        3       1.172   3.515   0.000  -4.686  -0.000   0.000
   38   18   17   15        3       1.172   3.515   0.000  -4.686  -0.000   0.000
   42   19   17   18        3       1.172   3.515   0.000  -4.686  -0.000   0.000
   23    3    2    4        3       1.172   3.515   0.000  -4.686  -0.000   0.000
   20    1    2    4        3       1.172   3.515   0.000  -4.686  -0.000   0.000
   24    3    2    4        3       1.172   3.515   0.000  -4.686  -0.000   0.000
   38   18   17   19        3       1.172   3.515   0.000  -4.686  -0.000   0.000
   21    1    2    3        3       1.172   3.515   0.000  -4.686  -0.000   0.000
   26    4    2    1        3       1.172   3.515   0.000  -4.686  -0.000   0.000
   33    9   10   11        3       0.414   1.243   0.000  -1.657  -0.000   0.000
   34   14   13   11        3       0.414   1.243   0.000  -1.657  -0.000   0.000
   17   15    5   14        3       3.335  -1.552   2.820  -4.602  -0.000   0.000
   17   15    5    6        3       3.335  -1.552   2.820  -4.602  -0.000   0.000
   17   15    5    4        3       3.335  -1.552   2.820  -4.602  -0.000   0.000
   17   15    8    9        3       3.335  -1.552   2.820  -4.602  -0.000   0.000
   17   15    8    7        3       3.335  -1.552   2.820  -4.602  -0.000   0.000
   12   11   10    9        3      21.439   0.000  -21.439  -0.000  -0.000   0.000
   13   11   10    9        3      31.206  -9.768  -21.439  -0.000  -0.000   0.000
   13   14    5    4        3       2.874   0.582   2.092  -5.548  -0.000   0.000
   13   14    9    8        3       2.874   0.582   2.092  -5.548  -0.000   0.000
   10    9    8    7        3       2.874   0.582   2.092  -5.548  -0.000   0.000
   13   14    5    6        3       2.874   0.582   2.092  -5.548  -0.000   0.000
   10    9   14    5        3       2.874   0.582   2.092  -5.548  -0.000   0.000
   13   14    9   10        3      -1.151   1.151   0.000  -0.000  -0.000   0.000

[ pairs ]
     1     5    1
     3     5    1
     2     6    1
     4     7    1
     4     8    1
     4     9    1
     6     9    1
     5    10    1
     5    11    1
     2    14    1
     7    10    1
     4    13    1
     2    15    1
     8    11    1
     6    13    1
     4    16    1
     9    12    1
     8    13    1
     7    14    1
     4    17    1
     6    16    1
     7    16    1
     6    17    1
     5    18    1
     3    20    1
     7    17    1
     5    19    1
     4    20    1
     3    21    1
     1    23    1
    10    15    1
     9    16    1
     4    21    1
     3    22    1
     1    24    1
    12    14    1
     9    17    1
     8    18    1
     4    22    1
     1    25    1
     8    19    1
     4    23    1
     1    26    1
    13    15    1
     4    24    1
     1    27    1
     4    25    1
     3    26    1
    14    16    1
     3    27    1
    14    17    1
     6    26    1
     4    28    1
     6    27    1
     4    29    1
    16    18    1
    16    19    1
     5    30    1
     8    28    1
     5    31    1
     8    29    1
     5    32    1
     6    32    1
     5    33    1
     4    34    1
     9    30    1
    14    26    1
     9    31    1
     7    33    1
     6    34    1
     5    35    1
    15    26    1
    14    27    1
     5    36    1
    15    27    1
    14    28    1
    10    32    1
     8    34    1
     5    37    1
    15    28    1
    14    29    1
     8    35    1
    15    29    1
    11    33    1
    10    34    1
     8    36    1
    15    30    1
    11    34    1
     8    37    1
    15    31    1
    14    32    1
    13    33    1
    16    32    1
    15    33    1
    17    32    1
    15    34    1
    17    35    1
    17    36    1
    15    38    1
    17    37    1
    15    39    1
    15    40    1
    15    41    1
    19    38    1
    15    42    1
    28    30    1
    19    39    1
    15    43    1
    29    30    1
    28    31    1
    19    40    1
    18    41    1
    29    31    1
    18    42    1
    18    43    1
    30    32    1
    31    32    1
    32    33    1
    33    34    1

