LIGPARGEN GENERATED GRO FILE
   42
    1UNK    C00    1   0.100   0.100   0.000
    1UNK    C01    2  -0.052   0.100   0.000
    1UNK    C02    3  -0.107   0.100   0.143
    1UNK    C03    4  -0.260   0.100   0.143
    1UNK    C04    5  -0.313   0.100   0.286
    1UNK    C05    6  -0.466   0.100   0.288
    1UNK    C06    7  -0.520   0.100   0.432
    1UNK    C07    8  -0.673   0.101   0.431
    1UNK    C08    9  -0.735   0.101   0.571
    1UNK    C09   10  -0.697   0.220   0.648
    1UNK    N0A   11  -0.659   0.312   0.708
    1UNK    S0B   12  -0.914   0.105   0.566
    1UNK    O0C   13  -0.964   0.098   0.702
    1UNK    O0D   14  -0.955   0.211   0.476
    1UNK    C0E   15  -0.958  -0.050   0.488
    1UNK    C0F   16  -1.110  -0.063   0.475
    1UNK    C0G   17  -1.149  -0.195   0.409
    1UNK    H0H   18   0.138   0.100  -0.103
    1UNK    H0I   19   0.139   0.011   0.051
    1UNK    H0J   20   0.139   0.189   0.051
    1UNK    H0K   21  -0.088   0.012  -0.054
    1UNK    H0M   22  -0.088   0.188  -0.054
    1UNK    H0N   23  -0.070   0.188   0.196
    1UNK    H0O   24  -0.070   0.012   0.196
    1UNK    H0P   25  -0.297   0.012   0.090
    1UNK    H0Q   26  -0.297   0.189   0.090
    1UNK    H0R   27  -0.276   0.188   0.340
    1UNK    H0S   28  -0.276   0.012   0.340
    1UNK    H0T   29  -0.504   0.012   0.235
    1UNK    H0U   30  -0.503   0.189   0.235
    1UNK    H0V   31  -0.482   0.189   0.484
    1UNK    H0W   32  -0.483   0.012   0.485
    1UNK    H0X   33  -0.707   0.012   0.376
    1UNK    H0Y   34  -0.708   0.188   0.374
    1UNK    H0Z   35  -0.706   0.010   0.626
    1UNK    H10   36  -0.917  -0.130   0.550
    1UNK    H11   37  -0.912  -0.053   0.389
    1UNK    H12   38  -1.149   0.020   0.415
    1UNK    H13   39  -1.157  -0.057   0.574
    1UNK    H14   40  -1.106  -0.202   0.308
    1UNK    H15   41  -1.258  -0.202   0.401
    1UNK    H16   42  -1.113  -0.280   0.468
   1.00000   1.00000   1.00000

