LIGPARGEN GENERATED GRO FILE
   37
    1UNK    C00    1   0.100   0.100   0.000
    1UNK    C01    2  -0.053   0.100   0.000
    1UNK    N02    3  -0.112   0.100   0.135
    1UNK    C03    4  -0.076   0.222   0.210
    1UNK    C04    5  -0.259   0.087   0.131
    1UNK    C05    6  -0.310  -0.044   0.070
    1UNK    C06    7  -0.261  -0.168   0.146
    1UNK    O07    8  -0.321  -0.167   0.278
    1UNK    C08    9  -0.394  -0.290   0.296
    1UNK    C09   10  -0.329  -0.386   0.200
    1UNK    O0A   11  -0.407  -0.497   0.161
    1UNK    C0B   12  -0.368  -0.566   0.049
    1UNK    O0C   13  -0.417  -0.673   0.019
    1UNK    O0D   14  -0.274  -0.506  -0.031
    1UNK    C0E   15  -0.219  -0.374  -0.008
    1UNK    C0F   16  -0.203  -0.309  -0.144
    1UNK    O0G   17  -0.113  -0.230  -0.169
    1UNK    C0H   18  -0.309  -0.297   0.081
    1UNK    H0I   19   0.137   0.083  -0.102
    1UNK    H0J   20   0.140   0.020   0.064
    1UNK    H0K   21   0.141   0.196   0.034
    1UNK    H0M   22  -0.082   0.009  -0.052
    1UNK    H0N   23  -0.090   0.184  -0.059
    1UNK    H0O   24   0.032   0.229   0.226
    1UNK    H0P   25  -0.121   0.219   0.310
    1UNK    H0Q   26  -0.111   0.312   0.158
    1UNK    H0R   27  -0.302   0.171   0.074
    1UNK    H0S   28  -0.298   0.094   0.233
    1UNK    H0T   29  -0.284  -0.050  -0.036
    1UNK    H0U   30  -0.420  -0.041   0.075
    1UNK    H0V   31  -0.152  -0.168   0.158
    1UNK    H0W   32  -0.500  -0.272   0.274
    1UNK    H0X   33  -0.386  -0.322   0.400
    1UNK    H0Y   34  -0.235  -0.421   0.243
    1UNK    H0Z   35  -0.119  -0.388   0.035
    1UNK    H10   36  -0.282  -0.330  -0.217
    1UNK    H11   37  -0.405  -0.281   0.030
   1.00000   1.00000   1.00000

