
;
; GENERATED BY LigParGen Server
; Jorgensen Lab @ Yale University 
;
[ atomtypes ]
  opls_818  H818     1.0080     0.000    A    2.50000E-01   1.25520E-01
  opls_814  C814    12.0110     0.000    A    3.50000E-01   2.76144E-01
  opls_803  O803    15.9990     0.000    A    2.90000E-01   5.85760E-01
  opls_824  H824     1.0080     0.000    A    2.50000E-01   1.25520E-01
  opls_815  C815    12.0110     0.000    A    3.50000E-01   2.76144E-01
  opls_805  O805    15.9990     0.000    A    2.96000E-01   8.78640E-01
  opls_836  H836     1.0080     0.000    A    2.50000E-01   1.25520E-01
  opls_834  H834     1.0080     0.000    A    2.50000E-01   1.25520E-01
  opls_828  H828     1.0080     0.000    A    2.50000E-01   1.25520E-01
  opls_806  O806    15.9990     0.000    A    2.90000E-01   5.85760E-01
  opls_802  C802    12.0110     0.000    A    3.50000E-01   2.76144E-01
  opls_827  H827     1.0080     0.000    A    2.50000E-01   1.25520E-01
  opls_809  C809    12.0110     0.000    A    3.50000E-01   2.76144E-01
  opls_838  H838     1.0080     0.000    A    2.50000E-01   1.25520E-01
  opls_822  H822     1.0080     0.000    A    2.50000E-01   1.25520E-01
  opls_807  C807    12.0110     0.000    A    3.50000E-01   2.76144E-01
  opls_825  H825     1.0080     0.000    A    2.50000E-01   1.25520E-01
  opls_830  H830     1.0080     0.000    A    2.50000E-01   1.25520E-01
  opls_821  H821     1.0080     0.000    A    2.50000E-01   1.25520E-01
  opls_820  H820     1.0080     0.000    A    2.50000E-01   1.25520E-01
  opls_837  H837     1.0080     0.000    A    2.50000E-01   1.25520E-01
  opls_829  H829     1.0080     0.000    A    2.50000E-01   1.25520E-01
  opls_831  H831     1.0080     0.000    A    2.50000E-01   1.25520E-01
  opls_804  C804    12.0110     0.000    A    3.55000E-01   2.92880E-01
  opls_812  N812    14.0070     0.000    A    3.30000E-01   7.11280E-01
  opls_832  H832     1.0080     0.000    A    2.50000E-01   1.25520E-01
  opls_800  C800    12.0110     0.000    A    3.50000E-01   2.76144E-01
  opls_811  C811    12.0110     0.000    A    3.50000E-01   2.76144E-01
  opls_823  H823     1.0080     0.000    A    2.50000E-01   1.25520E-01
  opls_813  C813    12.0110     0.000    A    3.50000E-01   2.76144E-01
  opls_816  O816    15.9990     0.000    A    2.90000E-01   5.85760E-01
  opls_826  H826     1.0080     0.000    A    2.50000E-01   1.25520E-01
  opls_835  H835     1.0080     0.000    A    2.50000E-01   1.25520E-01
  opls_819  H819     1.0080     0.000    A    2.50000E-01   1.25520E-01
  opls_810  C810    12.0110     0.000    A    3.50000E-01   2.76144E-01
  opls_833  H833     1.0080     0.000    A    2.50000E-01   1.25520E-01
  opls_839  H839     1.0080     0.000    A    2.50000E-01   1.25520E-01
  opls_817  C817    12.0110     0.000    A    3.50000E-01   2.76144E-01
  opls_801  C801    12.0110     0.000    A    3.50000E-01   2.76144E-01
  opls_808  C808    12.0110     0.000    A    3.50000E-01   2.76144E-01
  opls_840  H840     1.0080     0.000    A    2.50000E-01   1.25520E-01
[ moleculetype ]
; Name               nrexcl
UNK                   3
[ atoms ]
;   nr       type  resnr residue  atom   cgnr     charge       mass  
     1   opls_800      1    UNK   C00      1    -0.2419    12.0110 
     2   opls_801      1    UNK   C01      1    -0.1865    12.0110 
     3   opls_802      1    UNK   C02      1     0.1319    12.0110 
     4   opls_803      1    UNK   O03      1     -0.352    15.9990 
     5   opls_804      1    UNK   C04      1     0.5694    12.0110 
     6   opls_805      1    UNK   O05      1    -0.3902    15.9990 
     7   opls_806      1    UNK   O06      1    -0.3499    15.9990 
     8   opls_807      1    UNK   C07      1     0.1251    12.0110 
     9   opls_808      1    UNK   C08      1    -0.2332    12.0110 
    10   opls_809      1    UNK   C09      1    -0.1823    12.0110 
    11   opls_810      1    UNK   C0A      1    -0.1661    12.0110 
    12   opls_811      1    UNK   C0B      1     0.0096    12.0110 
    13   opls_812      1    UNK   N0C      1    -0.5703    14.0070 
    14   opls_813      1    UNK   C0D      1     -0.052    12.0110 
    15   opls_814      1    UNK   C0E      1     0.0868    12.0110 
    16   opls_815      1    UNK   C0F      1    -0.0175    12.0110 
    17   opls_816      1    UNK   O0G      1    -0.3927    15.9990 
    18   opls_817      1    UNK   C0H      1    -0.0513    12.0110 
    19   opls_818      1    UNK   H0I      1     0.0914     1.0080 
    20   opls_819      1    UNK   H0J      1     0.0914     1.0080 
    21   opls_820      1    UNK   H0K      1     0.0914     1.0080 
    22   opls_821      1    UNK   H0M      1     0.1118     1.0080 
    23   opls_822      1    UNK   H0N      1     0.1118     1.0080 
    24   opls_823      1    UNK   H0O      1     0.1073     1.0080 
    25   opls_824      1    UNK   H0P      1     0.1073     1.0080 
    26   opls_825      1    UNK   H0Q      1     0.1073     1.0080 
    27   opls_826      1    UNK   H0R      1     0.1067     1.0080 
    28   opls_827      1    UNK   H0S      1     0.1067     1.0080 
    29   opls_828      1    UNK   H0T      1     0.0966     1.0080 
    30   opls_829      1    UNK   H0U      1     0.0966     1.0080 
    31   opls_830      1    UNK   H0V      1     0.0916     1.0080 
    32   opls_831      1    UNK   H0W      1     0.0916     1.0080 
    33   opls_832      1    UNK   H0X      2     0.0915     1.0080 
    34   opls_833      1    UNK   H0Y      2     0.0915     1.0080 
    35   opls_834      1    UNK   H0Z      2     0.0915     1.0080 
    36   opls_835      1    UNK   H10      2     0.1302     1.0080 
    37   opls_836      1    UNK   H11      2     0.0968     1.0080 
    38   opls_837      1    UNK   H12      2     0.0968     1.0080 
    39   opls_838      1    UNK   H13      2     0.0851     1.0080 
    40   opls_839      1    UNK   H14      2     0.0851     1.0080 
    41   opls_840      1    UNK   H15      2     0.0851     1.0080 
[ bonds ]
    2     1     1      0.1529 224262.400
    3     2     1      0.1529 224262.400
    4     3     1      0.1410 267776.000
    5     4     1      0.1327 179075.200
    6     5     1      0.1229 476976.000
    7     5     1      0.1327 179075.200
    8     3     1      0.1529 224262.400
    9     8     1      0.1529 224262.400
   10     8     1      0.1529 224262.400
   11    10     1      0.1529 224262.400
   12    11     1      0.1529 224262.400
   13    12     1      0.1448 319657.600
   14    13     1      0.1448 319657.600
   15     3     1      0.1529 224262.400
   16    15     1      0.1529 224262.400
   17    16     1      0.1410 267776.000
   18    17     1      0.1410 267776.000
   19     1     1      0.1090 284512.000
   20     1     1      0.1090 284512.000
   21     1     1      0.1090 284512.000
   22     2     1      0.1090 284512.000
   23     2     1      0.1090 284512.000
   24     9     1      0.1090 284512.000
   25     9     1      0.1090 284512.000
   26     9     1      0.1090 284512.000
   27    10     1      0.1090 284512.000
   28    10     1      0.1090 284512.000
   29    11     1      0.1090 284512.000
   30    11     1      0.1090 284512.000
   31    12     1      0.1090 284512.000
   32    12     1      0.1090 284512.000
   33    14     1      0.1090 284512.000
   34    14     1      0.1090 284512.000
   35    14     1      0.1090 284512.000
   36    15     1      0.1090 284512.000
   37    16     1      0.1090 284512.000
   38    16     1      0.1090 284512.000
   39    18     1      0.1090 284512.000
   40    18     1      0.1090 284512.000
   41    18     1      0.1090 284512.000
    8     7     1      0.1410 267776.000
   15    13     1      0.1448 319657.600

[ angles ]
;  ai    aj    ak funct            c0            c1            c2            c3 
    1     2     3     1    112.700    488.273
    2     3     4     1    109.500    418.400
    3     4     5     1    116.900    694.544
    4     5     6     1    123.400    694.544
    4     5     7     1    118.180    584.923
    2     3     8     1    112.700    488.273
    3     8     9     1    112.700    488.273
    3     8    10     1    112.700    488.273
    8    10    11     1    112.700    488.273
   10    11    12     1    112.700    488.273
   11    12    13     1    109.470    470.282
   12    13    14     1    107.200    433.462
    2     3    15     1    112.700    488.273
    3    15    16     1    112.700    488.273
   15    16    17     1    109.500    418.400
   16    17    18     1    109.500    502.080
    2     1    19     1    110.700    313.800
    2     1    20     1    110.700    313.800
    2     1    21     1    110.700    313.800
    1     2    22     1    110.700    313.800
    1     2    23     1    110.700    313.800
    8     9    24     1    110.700    313.800
    8     9    25     1    110.700    313.800
    8     9    26     1    110.700    313.800
    8    10    27     1    110.700    313.800
    8    10    28     1    110.700    313.800
   10    11    29     1    110.700    313.800
   10    11    30     1    110.700    313.800
   11    12    31     1    110.700    313.800
   11    12    32     1    110.700    313.800
   13    14    33     1    109.500    292.880
   13    14    34     1    109.500    292.880
   13    14    35     1    109.500    292.880
    3    15    36     1    110.700    313.800
   15    16    37     1    110.700    313.800
   15    16    38     1    110.700    313.800
   17    18    39     1    109.500    292.880
   17    18    40     1    109.500    292.880
   17    18    41     1    109.500    292.880
   27    10    28     1    107.800    276.144
   25     9    26     1    107.800    276.144
   33    14    34     1    107.800    276.144
    5     7     8     1    116.900    694.544
   11    10    27     1    110.700    313.800
   17    16    38     1    109.500    292.880
    3     8     7     1    109.500    418.400
   20     1    21     1    107.800    276.144
   34    14    35     1    107.800    276.144
   24     9    25     1    107.800    276.144
   37    16    38     1    107.800    276.144
   16    15    36     1    110.700    313.800
   13    12    32     1    109.500    292.880
    9     8    10     1    112.700    488.273
   13    12    31     1    109.500    292.880
   19     1    20     1    107.800    276.144
   14    13    15     1    107.200    433.462
    3     2    22     1    110.700    313.800
    3     2    23     1    110.700    313.800
   39    18    41     1    107.800    276.144
   17    16    37     1    109.500    292.880
   12    11    30     1    110.700    313.800
   22     2    23     1    107.800    276.144
    8     3    15     1    112.700    488.273
    6     5     7     1    123.400    694.544
   12    13    15     1    107.200    433.462
    7     8    10     1    109.500    418.400
   11    10    28     1    110.700    313.800
   31    12    32     1    107.800    276.144
   33    14    35     1    107.800    276.144
   40    18    41     1    107.800    276.144
   19     1    21     1    107.800    276.144
   39    18    40     1    107.800    276.144
   24     9    26     1    107.800    276.144
    7     8     9     1    109.500    418.400
   29    11    30     1    107.800    276.144
    3    15    13     1    109.470    470.282
   13    15    36     1    109.500    292.880
    4     3     8     1    109.500    418.400
    4     3    15     1    109.500    418.400
   12    11    29     1    110.700    313.800
   13    15    16     1    109.470    470.282

[ dihedrals ]
; IMPROPER DIHEDRAL ANGLES 
;  ai    aj    ak    al funct            c0            c1            c2            c3            c4            c5
     7     5     4     6    4        180.000     43.932     2  

[ dihedrals ]
; PROPER DIHEDRAL ANGLES
;  ai    aj    ak    al funct            c0            c1            c2            c3            c4            c5
    5    4    3    2        3      -2.197   5.201   0.527  -3.531  -0.000   0.000
    5    7    8    3        3      -2.197   5.201   0.527  -3.531  -0.000   0.000
   12   11   10    8        3       2.301  -1.464   0.837  -1.674  -0.000   0.000
   15    3    2    1        3       2.301  -1.464   0.837  -1.674  -0.000   0.000
   10    8    3    2        3       2.301  -1.464   0.837  -1.674  -0.000   0.000
   15    3    8   10        3       2.301  -1.464   0.837  -1.674  -0.000   0.000
   15    3    8    9        3       2.301  -1.464   0.837  -1.674  -0.000   0.000
    8    3    2    1        3       2.301  -1.464   0.837  -1.674  -0.000   0.000
   16   15    3    2        3       2.301  -1.464   0.837  -1.674  -0.000   0.000
   16   15    3    8        3       2.301  -1.464   0.837  -1.674  -0.000   0.000
   11   10    8    9        3       2.301  -1.464   0.837  -1.674  -0.000   0.000
    9    8    3    2        3       2.301  -1.464   0.837  -1.674  -0.000   0.000
   11   10    8    3        3       2.301  -1.464   0.837  -1.674  -0.000   0.000
    9    8    3    4        3       2.874   0.582   2.092  -5.548  -0.000   0.000
   16   15    3    4        3       2.874   0.582   2.092  -5.548  -0.000   0.000
   10    8    3    4        3       2.874   0.582   2.092  -5.548  -0.000   0.000
   15    3    8    7        3       2.874   0.582   2.092  -5.548  -0.000   0.000
   11   10    8    7        3       2.874   0.582   2.092  -5.548  -0.000   0.000
   16   15   13   12        3       1.789   3.492   0.536  -5.816  -0.000   0.000
   16   15   13   14        3       1.789   3.492   0.536  -5.816  -0.000   0.000
    8    3    4    5        3      -2.197   5.201   0.527  -3.531  -0.000   0.000
   10    8    7    5        3      -2.197   5.201   0.527  -3.531  -0.000   0.000
    9    8    7    5        3      -2.197   5.201   0.527  -3.531  -0.000   0.000
   15    3    4    5        3      -2.197   5.201   0.527  -3.531  -0.000   0.000
   14   13   12   11        3       1.789   3.492   0.536  -5.816  -0.000   0.000
   14   13   15    3        3       1.789   3.492   0.536  -5.816  -0.000   0.000
   15   13   12   11        3       1.789   3.492   0.536  -5.816  -0.000   0.000
   12   13   15    3        3       1.789   3.492   0.536  -5.816  -0.000   0.000
    8    7    5    6        3      21.439   0.000  -21.439  -0.000  -0.000   0.000
    8    7    5    4        3      31.206  -9.768  -21.439  -0.000  -0.000   0.000
   18   17   16   15        3       1.715   2.845   1.046  -5.607  -0.000   0.000
   22    2    3    8        3       0.628   1.883   0.000  -2.510  -0.000   0.000
   24    9    8   10        3       0.628   1.883   0.000  -2.510  -0.000   0.000
   26    9    8   10        3       0.628   1.883   0.000  -2.510  -0.000   0.000
   19    1    2    3        3       0.628   1.883   0.000  -2.510  -0.000   0.000
   30   11   10    8        3       0.628   1.883   0.000  -2.510  -0.000   0.000
   27   10   11   12        3       0.628   1.883   0.000  -2.510  -0.000   0.000
   36   15    3    8        3       0.628   1.883   0.000  -2.510  -0.000   0.000
   31   12   11   10        3       0.628   1.883   0.000  -2.510  -0.000   0.000
   38   16   15    3        3       0.628   1.883   0.000  -2.510  -0.000   0.000
   25    9    8    3        3       0.628   1.883   0.000  -2.510  -0.000   0.000
   28   10    8    9        3       0.628   1.883   0.000  -2.510  -0.000   0.000
   21    1    2    3        3       0.628   1.883   0.000  -2.510  -0.000   0.000
   37   16   15    3        3       0.628   1.883   0.000  -2.510  -0.000   0.000
   23    2    3    8        3       0.628   1.883   0.000  -2.510  -0.000   0.000
   20    1    2    3        3       0.628   1.883   0.000  -2.510  -0.000   0.000
   28   10   11   12        3       0.628   1.883   0.000  -2.510  -0.000   0.000
   28   10    8    3        3       0.628   1.883   0.000  -2.510  -0.000   0.000
   22    2    3   15        3       0.628   1.883   0.000  -2.510  -0.000   0.000
   29   11   10    8        3       0.628   1.883   0.000  -2.510  -0.000   0.000
   23    2    3   15        3       0.628   1.883   0.000  -2.510  -0.000   0.000
   32   12   11   10        3       0.628   1.883   0.000  -2.510  -0.000   0.000
   27   10    8    9        3       0.628   1.883   0.000  -2.510  -0.000   0.000
   36   15    3    2        3       0.628   1.883   0.000  -2.510  -0.000   0.000
   27   10    8    3        3       0.628   1.883   0.000  -2.510  -0.000   0.000
   24    9    8    3        3       0.628   1.883   0.000  -2.510  -0.000   0.000
   26    9    8    3        3       0.628   1.883   0.000  -2.510  -0.000   0.000
   25    9    8   10        3       0.628   1.883   0.000  -2.510  -0.000   0.000
   38   16   15   36        3       0.628   1.883   0.000  -2.510  -0.000   0.000
   30   11   10   28        3       0.628   1.883   0.000  -2.510  -0.000   0.000
   37   16   15   36        3       0.628   1.883   0.000  -2.510  -0.000   0.000
   31   12   11   29        3       0.628   1.883   0.000  -2.510  -0.000   0.000
   22    2    1   19        3       0.628   1.883   0.000  -2.510  -0.000   0.000
   29   11   10   27        3       0.628   1.883   0.000  -2.510  -0.000   0.000
   22    2    1   20        3       0.628   1.883   0.000  -2.510  -0.000   0.000
   32   12   11   29        3       0.628   1.883   0.000  -2.510  -0.000   0.000
   31   12   11   30        3       0.628   1.883   0.000  -2.510  -0.000   0.000
   23    2    1   20        3       0.628   1.883   0.000  -2.510  -0.000   0.000
   23    2    1   19        3       0.628   1.883   0.000  -2.510  -0.000   0.000
   22    2    1   21        3       0.628   1.883   0.000  -2.510  -0.000   0.000
   32   12   11   30        3       0.628   1.883   0.000  -2.510  -0.000   0.000
   30   11   10   27        3       0.628   1.883   0.000  -2.510  -0.000   0.000
   29   11   10   28        3       0.628   1.883   0.000  -2.510  -0.000   0.000
   23    2    1   21        3       0.628   1.883   0.000  -2.510  -0.000   0.000
   38   16   15   13        3      -4.096   5.088   2.966  -3.958  -0.000   0.000
   30   11   12   13        3      -4.096   5.088   2.966  -3.958  -0.000   0.000
   29   11   12   13        3      -4.096   5.088   2.966  -3.958  -0.000   0.000
   37   16   15   13        3      -4.096   5.088   2.966  -3.958  -0.000   0.000
   28   10    8    7        3       0.979   2.937   0.000  -3.916  -0.000   0.000
   25    9    8    7        3       0.979   2.937   0.000  -3.916  -0.000   0.000
   27   10    8    7        3       0.979   2.937   0.000  -3.916  -0.000   0.000
   24    9    8    7        3       0.979   2.937   0.000  -3.916  -0.000   0.000
   26    9    8    7        3       0.979   2.937   0.000  -3.916  -0.000   0.000
   23    2    3    4        3       0.979   2.937   0.000  -3.916  -0.000   0.000
   22    2    3    4        3       0.979   2.937   0.000  -3.916  -0.000   0.000
   36   15    3    4        3       0.979   2.937   0.000  -3.916  -0.000   0.000
   36   15   16   17        3       0.979   2.937   0.000  -3.916  -0.000   0.000
   31   12   13   14        3       1.172   3.515   0.000  -4.686  -0.000   0.000
   35   14   13   15        3       1.172   3.515   0.000  -4.686  -0.000   0.000
   34   14   13   12        3       1.172   3.515   0.000  -4.686  -0.000   0.000
   31   12   13   15        3       1.172   3.515   0.000  -4.686  -0.000   0.000
   33   14   13   12        3       1.172   3.515   0.000  -4.686  -0.000   0.000
   35   14   13   12        3       1.172   3.515   0.000  -4.686  -0.000   0.000
   32   12   13   15        3       1.172   3.515   0.000  -4.686  -0.000   0.000
   33   14   13   15        3       1.172   3.515   0.000  -4.686  -0.000   0.000
   34   14   13   15        3       1.172   3.515   0.000  -4.686  -0.000   0.000
   36   15   13   12        3       1.172   3.515   0.000  -4.686  -0.000   0.000
   32   12   13   14        3       1.172   3.515   0.000  -4.686  -0.000   0.000
   36   15   13   14        3       1.172   3.515   0.000  -4.686  -0.000   0.000
   40   18   17   16        3       1.590   4.770   0.000  -6.360  -0.000   0.000
   41   18   17   16        3       1.590   4.770   0.000  -6.360  -0.000   0.000
   37   16   17   18        3       1.590   4.770   0.000  -6.360  -0.000   0.000
   39   18   17   16        3       1.590   4.770   0.000  -6.360  -0.000   0.000
   38   16   17   18        3       1.590   4.770   0.000  -6.360  -0.000   0.000
   13   12   11   10        3       3.335  -1.552   2.820  -4.602  -0.000   0.000
   13   15    3    2        3       3.335  -1.552   2.820  -4.602  -0.000   0.000
   13   15    3    8        3       3.335  -1.552   2.820  -4.602  -0.000   0.000
   13   15    3    4        3      16.736  -16.736   0.000  -0.000  -0.000   0.000
    6    5    4    3        3      21.439   0.000  -21.439  -0.000  -0.000   0.000
    7    5    4    3        3      31.206  -9.768  -21.439  -0.000  -0.000   0.000
   17   16   15    3        3       2.874   0.582   2.092  -5.548  -0.000   0.000
    7    8    3    2        3       2.874   0.582   2.092  -5.548  -0.000   0.000
    4    3    2    1        3       2.874   0.582   2.092  -5.548  -0.000   0.000
   17   16   15   13        3      16.736  -16.736   0.000  -0.000  -0.000   0.000
    7    8    3    4        3      -1.151   1.151   0.000  -0.000  -0.000   0.000

[ pairs ]
     1     4    1
     2     5    1
     3     6    1
     2     7    1
     1     8    1
     2     9    1
     2    10    1
     4     9    1
     6     8    1
     5     9    1
     4    10    1
     3    11    1
     5    10    1
     3    12    1
     2    13    1
     1    15    1
     4    13    1
     3    14    1
     7    11    1
     2    16    1
     9    11    1
     8    12    1
     5    15    1
     4    16    1
     3    17    1
     8    13    1
     7    15    1
     3    19    1
    10    13    1
     3    20    1
     9    15    1
     8    16    1
     3    21    1
    11    14    1
    10    15    1
    11    15    1
     4    22    1
     4    23    1
     3    24    1
    12    16    1
     3    25    1
     3    26    1
    14    16    1
    13    17    1
     8    22    1
     3    27    1
     8    23    1
     7    24    1
     3    28    1
     7    25    1
    15    18    1
     7    26    1
    10    24    1
     7    27    1
    10    25    1
     7    28    1
    10    26    1
     9    27    1
    15    22    1
     9    28    1
     8    29    1
    15    23    1
     8    30    1
     2    36    1
    12    27    1
    12    28    1
     4    36    1
     3    37    1
    19    22    1
    10    31    1
     3    38    1
    20    22    1
    19    23    1
    13    29    1
    10    32    1
    21    22    1
    20    23    1
    13    30    1
    21    23    1
     8    36    1
    14    31    1
    12    33    1
    15    31    1
    14    32    1
    12    34    1
    15    32    1
    12    35    1
    15    33    1
    12    36    1
    15    34    1
    15    35    1
    14    36    1
    13    37    1
    13    38    1
    17    36    1
    18    37    1
    16    39    1
    27    29    1
    18    38    1
    16    40    1
    28    29    1
    27    30    1
    16    41    1
    28    30    1
    29    31    1
    30    31    1
    29    32    1
    30    32    1
    36    37    1
    36    38    1

