LIGPARGEN GENERATED GRO FILE
   41
    1UNK    C00    1   0.100   0.100   0.000
    1UNK    C01    2  -0.053   0.100   0.000
    1UNK    C02    3  -0.118   0.100   0.143
    1UNK    O03    4  -0.071   0.219   0.208
    1UNK    C04    5  -0.159   0.320   0.183
    1UNK    O05    6  -0.134   0.438   0.198
    1UNK    O06    7  -0.277   0.270   0.140
    1UNK    C07    8  -0.271   0.125   0.139
    1UNK    C08    9  -0.346   0.085   0.011
    1UNK    C09   10  -0.351   0.077   0.262
    1UNK    C0A   11  -0.381  -0.073   0.267
    1UNK    C0B   12  -0.264  -0.172   0.275
    1UNK    N0C   13  -0.153  -0.142   0.184
    1UNK    C0D   14  -0.068  -0.261   0.168
    1UNK    C0E   15  -0.072  -0.025   0.225
    1UNK    C0F   16  -0.051   0.002   0.377
    1UNK    O0G   17   0.014  -0.109   0.441
    1UNK    C0H   18   0.033  -0.084   0.580
    1UNK    H0I   19   0.138   0.135  -0.097
    1UNK    H0J   20   0.140  -0.001   0.015
    1UNK    H0K   21   0.141   0.165   0.078
    1UNK    H0M   22  -0.088   0.014  -0.059
    1UNK    H0N   23  -0.084   0.191  -0.054
    1UNK    H0O   24  -0.314   0.144  -0.075
    1UNK    H0P   25  -0.453   0.106   0.021
    1UNK    H0Q   26  -0.335  -0.022  -0.013
    1UNK    H0R   27  -0.448   0.129   0.262
    1UNK    H0S   28  -0.305   0.113   0.355
    1UNK    H0T   29  -0.442  -0.100   0.181
    1UNK    H0U   30  -0.445  -0.092   0.355
    1UNK    H0V   31  -0.306  -0.270   0.249
    1UNK    H0W   32  -0.230  -0.183   0.379
    1UNK    H0X   33  -0.126  -0.344   0.127
    1UNK    H0Y   34  -0.023  -0.294   0.263
    1UNK    H0Z   35   0.013  -0.241   0.097
    1UNK    H10   36   0.031  -0.046   0.193
    1UNK    H11   37  -0.145   0.021   0.429
    1UNK    H12   38   0.013   0.090   0.391
    1UNK    H13   39   0.073  -0.174   0.626
    1UNK    H14   40  -0.063  -0.061   0.628
    1UNK    H15   41   0.103  -0.002   0.594
   1.00000   1.00000   1.00000

