LIGPARGEN GENERATED GRO FILE
   43
    1UNK    C00    1   0.100   0.100   0.000
    1UNK    C01    2  -0.052   0.100   0.000
    1UNK    C02    3  -0.107   0.100   0.144
    1UNK    C03    4  -0.261   0.100   0.153
    1UNK    C04    5  -0.321  -0.022   0.082
    1UNK    C05    6  -0.317   0.125   0.300
    1UNK    O06    7  -0.264   0.251   0.346
    1UNK    C07    8  -0.316   0.302   0.468
    1UNK    O08    9  -0.463   0.131   0.292
    1UNK    C09   10  -0.524   0.233   0.226
    1UNK    O0A   11  -0.471   0.329   0.174
    1UNK    O0B   12  -0.658   0.208   0.227
    1UNK    C0C   13  -0.736   0.307   0.160
    1UNK    C0D   14  -0.283   0.008   0.407
    1UNK    C0E   15  -0.365  -0.113   0.372
    1UNK    N0F   16  -0.428  -0.208   0.350
    1UNK    N0G   17  -0.139  -0.027   0.433
    1UNK    C0H   18  -0.061   0.085   0.487
    1UNK    C0I   19  -0.126  -0.140   0.527
    1UNK    H0J   20   0.138   0.100  -0.103
    1UNK    H0K   21   0.139   0.011   0.050
    1UNK    H0M   22   0.139   0.188   0.051
    1UNK    H0N   23  -0.086   0.011  -0.055
    1UNK    H0O   24  -0.089   0.188  -0.054
    1UNK    H0P   25  -0.068   0.189   0.194
    1UNK    H0Q   26  -0.066   0.012   0.194
    1UNK    H0R   27  -0.293   0.186   0.093
    1UNK    H0S   28  -0.276  -0.115   0.119
    1UNK    H0T   29  -0.302  -0.018  -0.025
    1UNK    H0U   30  -0.429  -0.028   0.094
    1UNK    H0V   31  -0.282   0.405   0.479
    1UNK    H0W   32  -0.277   0.246   0.554
    1UNK    H0X   33  -0.425   0.301   0.471
    1UNK    H0Y   34  -0.841   0.288   0.183
    1UNK    H0Z   35  -0.722   0.298   0.052
    1UNK    H10   36  -0.710   0.408   0.194
    1UNK    H11   37  -0.325   0.041   0.503
    1UNK    H12   38  -0.054   0.169   0.418
    1UNK    H13   39   0.043   0.054   0.505
    1UNK    H14   40  -0.101   0.121   0.583
    1UNK    H15   41  -0.165  -0.233   0.484
    1UNK    H16   42  -0.178  -0.120   0.622
    1UNK    H17   43  -0.020  -0.160   0.550
   1.00000   1.00000   1.00000

