LIGPARGEN GENERATED GRO FILE
   49
    1UNK    C00    1   0.100   0.100   0.000
    1UNK    C01    2  -0.052   0.100   0.000
    1UNK    C02    3  -0.107   0.100   0.144
    1UNK    C03    4  -0.261   0.109   0.154
    1UNK    C04    5  -0.322  -0.014   0.082
    1UNK    C05    6  -0.318   0.122   0.301
    1UNK    C06    7  -0.474   0.124   0.295
    1UNK    C07    8  -0.522   0.188   0.423
    1UNK    C08    9  -0.424   0.301   0.442
    1UNK    C09   10  -0.286   0.252   0.388
    1UNK    C0A   11  -0.216   0.374   0.321
    1UNK    C0B   12  -0.191   0.492   0.417
    1UNK    C0C   13  -0.122   0.609   0.348
    1UNK    C0D   14  -0.198   0.199   0.504
    1UNK    C0E   15  -0.242   0.056   0.529
    1UNK    C0F   16  -0.135  -0.025   0.602
    1UNK    C0G   17  -0.272   0.002   0.389
    1UNK    H0H   18   0.138   0.095  -0.102
    1UNK    H0I   19   0.139   0.013   0.054
    1UNK    H0J   20   0.139   0.190   0.047
    1UNK    H0K   21  -0.086   0.011  -0.054
    1UNK    H0M   22  -0.089   0.188  -0.055
    1UNK    H0N   23  -0.059   0.182   0.197
    1UNK    H0O   24  -0.070   0.008   0.192
    1UNK    H0P   25  -0.294   0.198   0.098
    1UNK    H0Q   26  -0.285  -0.107   0.126
    1UNK    H0R   27  -0.297  -0.014  -0.024
    1UNK    H0S   28  -0.431  -0.016   0.087
    1UNK    H0T   29  -0.518   0.024   0.284
    1UNK    H0U   30  -0.508   0.184   0.209
    1UNK    H0V   31  -0.520   0.118   0.506
    1UNK    H0W   32  -0.625   0.225   0.413
    1UNK    H0X   33  -0.421   0.334   0.546
    1UNK    H0Y   34  -0.460   0.386   0.382
    1UNK    H0Z   35  -0.276   0.408   0.236
    1UNK    H10   36  -0.119   0.345   0.281
    1UNK    H11   37  -0.126   0.459   0.499
    1UNK    H12   38  -0.284   0.527   0.461
    1UNK    H13   39  -0.034   0.576   0.292
    1UNK    H14   40  -0.091   0.683   0.421
    1UNK    H15   41  -0.191   0.658   0.277
    1UNK    H16   42  -0.207   0.259   0.595
    1UNK    H17   43  -0.092   0.201   0.474
    1UNK    H18   44  -0.333   0.055   0.590
    1UNK    H19   45  -0.041  -0.026   0.546
    1UNK    H1A   46  -0.168  -0.129   0.615
    1UNK    H1B   47  -0.116   0.018   0.701
    1UNK    H1C   48  -0.346  -0.078   0.394
    1UNK    H1D   49  -0.181  -0.044   0.350
   1.00000   1.00000   1.00000

