LIGPARGEN GENERATED GRO FILE
   51
    1UNK    C00    1   0.100   0.100   0.000
    1UNK    C01    2  -0.052   0.100   0.000
    1UNK    C02    3  -0.108   0.100   0.142
    1UNK    C03    4  -0.261   0.109   0.148
    1UNK    C04    5  -0.340  -0.003   0.077
    1UNK    C05    6  -0.308  -0.144   0.134
    1UNK    N06    7  -0.379  -0.258   0.072
    1UNK    C07    8  -0.345  -0.276  -0.070
    1UNK    C08    9  -0.347  -0.382   0.143
    1UNK    O09   10  -0.480   0.029   0.097
    1UNK    C0A   11  -0.557   0.030  -0.014
    1UNK    O0B   12  -0.518   0.015  -0.129
    1UNK    O0C   13  -0.688   0.046   0.023
    1UNK    C0D   14  -0.781  -0.008  -0.073
    1UNK    C0E   15  -0.791  -0.158  -0.046
    1UNK    C0F   16  -0.920   0.056  -0.060
    1UNK    C0G   17  -0.932   0.206  -0.094
    1UNK    C0H   18  -0.881   0.238  -0.235
    1UNK    O0I   19  -1.072   0.236  -0.082
    1UNK    C0J   20  -1.106   0.373  -0.097
    1UNK    H0K   21   0.138   0.088  -0.102
    1UNK    H0M   22   0.140   0.018   0.061
    1UNK    H0N   23   0.139   0.194   0.039
    1UNK    H0O   24  -0.087   0.012  -0.054
    1UNK    H0P   25  -0.088   0.188  -0.054
    1UNK    H0Q   26  -0.067   0.186   0.197
    1UNK    H0R   27  -0.074   0.011   0.196
    1UNK    H0S   28  -0.292   0.205   0.106
    1UNK    H0T   29  -0.292   0.113   0.254
    1UNK    H0U   30  -0.313   0.001  -0.029
    1UNK    H0V   31  -0.337  -0.142   0.240
    1UNK    H0W   32  -0.200  -0.162   0.130
    1UNK    H0X   33  -0.357  -0.184  -0.128
    1UNK    H0Y   34  -0.414  -0.348  -0.115
    1UNK    H0Z   35  -0.243  -0.312  -0.084
    1UNK    H10   36  -0.373  -0.375   0.249
    1UNK    H11   37  -0.241  -0.408   0.136
    1UNK    H12   38  -0.405  -0.466   0.102
    1UNK    H13   39  -0.745   0.007  -0.176
    1UNK    H14   40  -0.852  -0.178   0.042
    1UNK    H15   41  -0.693  -0.202  -0.026
    1UNK    H16   42  -0.836  -0.210  -0.132
    1UNK    H17   43  -0.956   0.043   0.043
    1UNK    H18   44  -0.990   0.001  -0.124
    1UNK    H19   45  -0.876   0.265  -0.020
    1UNK    H1A   46  -0.935   0.179  -0.310
    1UNK    H1B   47  -0.774   0.219  -0.245
    1UNK    H1C   48  -0.898   0.343  -0.261
    1UNK    H1D   49  -1.209   0.387  -0.062
    1UNK    H1E   50  -1.103   0.402  -0.203
    1UNK    H1F   51  -1.040   0.437  -0.038
   1.00000   1.00000   1.00000

