
;
; GENERATED BY LigParGen Server
; Jorgensen Lab @ Yale University 
;
[ atomtypes ]
  opls_804  C804    12.0110     0.000    A    3.50000E-01   2.76144E-01
  opls_814  C814    12.0110     0.000    A    3.50000E-01   2.76144E-01
  opls_824  H824     1.0080     0.000    A    2.50000E-01   1.25520E-01
  opls_809  O809    15.9990     0.000    A    2.90000E-01   5.85760E-01
  opls_848  H848     1.0080     0.000    A    2.50000E-01   1.25520E-01
  opls_843  H843     1.0080     0.000    A    2.50000E-01   1.25520E-01
  opls_836  H836     1.0080     0.000    A    2.50000E-01   1.25520E-01
  opls_834  H834     1.0080     0.000    A    2.50000E-01   1.25520E-01
  opls_828  H828     1.0080     0.000    A    2.50000E-01   1.25520E-01
  opls_812  O812    15.9990     0.000    A    2.90000E-01   5.85760E-01
  opls_806  N806    14.0070     0.000    A    3.30000E-01   7.11280E-01
  opls_802  C802    12.0110     0.000    A    3.50000E-01   2.76144E-01
  opls_827  H827     1.0080     0.000    A    2.50000E-01   1.25520E-01
  opls_801  C801    12.0110     0.000    A    3.50000E-01   2.76144E-01
  opls_838  H838     1.0080     0.000    A    2.50000E-01   1.25520E-01
  opls_811  O811    15.9990     0.000    A    2.96000E-01   8.78640E-01
  opls_822  H822     1.0080     0.000    A    2.50000E-01   1.25520E-01
  opls_803  C803    12.0110     0.000    A    3.50000E-01   2.76144E-01
  opls_830  H830     1.0080     0.000    A    2.50000E-01   1.25520E-01
  opls_821  H821     1.0080     0.000    A    2.50000E-01   1.25520E-01
  opls_842  H842     1.0080     0.000    A    2.50000E-01   1.25520E-01
  opls_820  H820     1.0080     0.000    A    2.50000E-01   1.25520E-01
  opls_837  H837     1.0080     0.000    A    2.50000E-01   1.25520E-01
  opls_829  H829     1.0080     0.000    A    2.50000E-01   1.25520E-01
  opls_831  H831     1.0080     0.000    A    2.50000E-01   1.25520E-01
  opls_810  C810    12.0110     0.000    A    3.55000E-01   2.92880E-01
  opls_832  H832     1.0080     0.000    A    2.50000E-01   1.25520E-01
  opls_800  C800    12.0110     0.000    A    3.50000E-01   2.76144E-01
  opls_805  C805    12.0110     0.000    A    3.50000E-01   2.76144E-01
  opls_846  H846     1.0080     0.000    A    2.50000E-01   1.25520E-01
  opls_815  C815    12.0110     0.000    A    3.50000E-01   2.76144E-01
  opls_823  H823     1.0080     0.000    A    2.50000E-01   1.25520E-01
  opls_819  C819    12.0110     0.000    A    3.50000E-01   2.76144E-01
  opls_826  H826     1.0080     0.000    A    2.50000E-01   1.25520E-01
  opls_835  H835     1.0080     0.000    A    2.50000E-01   1.25520E-01
  opls_841  H841     1.0080     0.000    A    2.50000E-01   1.25520E-01
  opls_825  H825     1.0080     0.000    A    2.50000E-01   1.25520E-01
  opls_816  C816    12.0110     0.000    A    3.50000E-01   2.76144E-01
  opls_833  H833     1.0080     0.000    A    2.50000E-01   1.25520E-01
  opls_839  H839     1.0080     0.000    A    2.50000E-01   1.25520E-01
  opls_817  C817    12.0110     0.000    A    3.50000E-01   2.76144E-01
  opls_808  C808    12.0110     0.000    A    3.50000E-01   2.76144E-01
  opls_850  H850     1.0080     0.000    A    2.50000E-01   1.25520E-01
  opls_840  H840     1.0080     0.000    A    2.50000E-01   1.25520E-01
  opls_849  H849     1.0080     0.000    A    2.50000E-01   1.25520E-01
  opls_813  C813    12.0110     0.000    A    3.50000E-01   2.76144E-01
  opls_847  H847     1.0080     0.000    A    2.50000E-01   1.25520E-01
  opls_844  H844     1.0080     0.000    A    2.50000E-01   1.25520E-01
  opls_845  H845     1.0080     0.000    A    2.50000E-01   1.25520E-01
  opls_818  O818    15.9990     0.000    A    2.90000E-01   5.85760E-01
  opls_807  C807    12.0110     0.000    A    3.50000E-01   2.76144E-01
[ moleculetype ]
; Name               nrexcl
UNK                   3
[ atoms ]
;   nr       type  resnr residue  atom   cgnr     charge       mass  
     1   opls_800      1    UNK   C00      1      -0.24    12.0110 
     2   opls_801      1    UNK   C01      1    -0.1826    12.0110 
     3   opls_802      1    UNK   C02      1    -0.1719    12.0110 
     4   opls_803      1    UNK   C03      1    -0.1926    12.0110 
     5   opls_804      1    UNK   C04      1     0.0819    12.0110 
     6   opls_805      1    UNK   C05      1    -0.0103    12.0110 
     7   opls_806      1    UNK   N06      1    -0.5634    14.0070 
     8   opls_807      1    UNK   C07      1    -0.0712    12.0110 
     9   opls_808      1    UNK   C08      1    -0.0556    12.0110 
    10   opls_809      1    UNK   O09      1    -0.3181    15.9990 
    11   opls_810      1    UNK   C0A      1     0.5883    12.0110 
    12   opls_811      1    UNK   O0B      1    -0.5063    15.9990 
    13   opls_812      1    UNK   O0C      1    -0.3273    15.9990 
    14   opls_813      1    UNK   C0D      1     0.0801    12.0110 
    15   opls_814      1    UNK   C0E      1    -0.2769    12.0110 
    16   opls_815      1    UNK   C0F      1    -0.1802    12.0110 
    17   opls_816      1    UNK   C0G      1      0.075    12.0110 
    18   opls_817      1    UNK   C0H      1    -0.2799    12.0110 
    19   opls_818      1    UNK   O0I      1    -0.3945    15.9990 
    20   opls_819      1    UNK   C0J      1    -0.0451    12.0110 
    21   opls_820      1    UNK   H0K      1     0.0826     1.0080 
    22   opls_821      1    UNK   H0M      1     0.0826     1.0080 
    23   opls_822      1    UNK   H0N      1     0.0826     1.0080 
    24   opls_823      1    UNK   H0O      1     0.0922     1.0080 
    25   opls_824      1    UNK   H0P      1     0.0922     1.0080 
    26   opls_825      1    UNK   H0Q      1     0.0937     1.0080 
    27   opls_826      1    UNK   H0R      1     0.0937     1.0080 
    28   opls_827      1    UNK   H0S      1     0.1065     1.0080 
    29   opls_828      1    UNK   H0T      1     0.1065     1.0080 
    30   opls_829      1    UNK   H0U      1     0.1361     1.0080 
    31   opls_830      1    UNK   H0V      1     0.1001     1.0080 
    32   opls_831      1    UNK   H0W      1     0.1001     1.0080 
    33   opls_832      1    UNK   H0X      2     0.0886     1.0080 
    34   opls_833      1    UNK   H0Y      2     0.0886     1.0080 
    35   opls_834      1    UNK   H0Z      2     0.0886     1.0080 
    36   opls_835      1    UNK   H10      2     0.0837     1.0080 
    37   opls_836      1    UNK   H11      2     0.0837     1.0080 
    38   opls_837      1    UNK   H12      2     0.0837     1.0080 
    39   opls_838      1    UNK   H13      2     0.1317     1.0080 
    40   opls_839      1    UNK   H14      2     0.1025     1.0080 
    41   opls_840      1    UNK   H15      2     0.1025     1.0080 
    42   opls_841      1    UNK   H16      2     0.1025     1.0080 
    43   opls_842      1    UNK   H17      2     0.1204     1.0080 
    44   opls_843      1    UNK   H18      2     0.1204     1.0080 
    45   opls_844      1    UNK   H19      2     0.1007     1.0080 
    46   opls_845      1    UNK   H1A      2     0.0943     1.0080 
    47   opls_846      1    UNK   H1B      2     0.0943     1.0080 
    48   opls_847      1    UNK   H1C      2     0.0943     1.0080 
    49   opls_848      1    UNK   H1D      2     0.0805     1.0080 
    50   opls_849      1    UNK   H1E      2     0.0805     1.0080 
    51   opls_850      1    UNK   H1F      2     0.0805     1.0080 
[ bonds ]
    2     1     1      0.1529 224262.400
    3     2     1      0.1529 224262.400
    4     3     1      0.1529 224262.400
    5     4     1      0.1529 224262.400
    6     5     1      0.1529 224262.400
    7     6     1      0.1448 319657.600
    8     7     1      0.1448 319657.600
    9     7     1      0.1448 319657.600
   10     5     1      0.1410 267776.000
   11    10     1      0.1327 179075.200
   12    11     1      0.1229 476976.000
   13    11     1      0.1327 179075.200
   14    13     1      0.1410 267776.000
   15    14     1      0.1529 224262.400
   16    14     1      0.1529 224262.400
   17    16     1      0.1529 224262.400
   18    17     1      0.1529 224262.400
   19    17     1      0.1410 267776.000
   20    19     1      0.1410 267776.000
   21     1     1      0.1090 284512.000
   22     1     1      0.1090 284512.000
   23     1     1      0.1090 284512.000
   24     2     1      0.1090 284512.000
   25     2     1      0.1090 284512.000
   26     3     1      0.1090 284512.000
   27     3     1      0.1090 284512.000
   28     4     1      0.1090 284512.000
   29     4     1      0.1090 284512.000
   30     5     1      0.1090 284512.000
   31     6     1      0.1090 284512.000
   32     6     1      0.1090 284512.000
   33     8     1      0.1090 284512.000
   34     8     1      0.1090 284512.000
   35     8     1      0.1090 284512.000
   36     9     1      0.1090 284512.000
   37     9     1      0.1090 284512.000
   38     9     1      0.1090 284512.000
   39    14     1      0.1090 284512.000
   40    15     1      0.1090 284512.000
   41    15     1      0.1090 284512.000
   42    15     1      0.1090 284512.000
   43    16     1      0.1090 284512.000
   44    16     1      0.1090 284512.000
   45    17     1      0.1090 284512.000
   46    18     1      0.1090 284512.000
   47    18     1      0.1090 284512.000
   48    18     1      0.1090 284512.000
   49    20     1      0.1090 284512.000
   50    20     1      0.1090 284512.000
   51    20     1      0.1090 284512.000

[ angles ]
;  ai    aj    ak funct            c0            c1            c2            c3 
    1     2     3     1    112.700    488.273
    2     3     4     1    112.700    488.273
    3     4     5     1    112.700    488.273
    4     5     6     1    112.700    488.273
    5     6     7     1    109.470    470.282
    6     7     8     1    107.200    433.462
    6     7     9     1    107.200    433.462
    4     5    10     1    109.500    418.400
    5    10    11     1    116.900    694.544
   10    11    12     1    123.400    694.544
   10    11    13     1    118.180    584.923
   11    13    14     1    116.900    694.544
   13    14    15     1    109.500    418.400
   13    14    16     1    109.500    418.400
   14    16    17     1    112.700    488.273
   16    17    18     1    112.700    488.273
   16    17    19     1    109.500    418.400
   17    19    20     1    109.500    502.080
    2     1    21     1    110.700    313.800
    2     1    22     1    110.700    313.800
    2     1    23     1    110.700    313.800
    1     2    24     1    110.700    313.800
    1     2    25     1    110.700    313.800
    2     3    26     1    110.700    313.800
    2     3    27     1    110.700    313.800
    3     4    28     1    110.700    313.800
    3     4    29     1    110.700    313.800
    4     5    30     1    110.700    313.800
    5     6    31     1    110.700    313.800
    5     6    32     1    110.700    313.800
    7     8    33     1    109.500    292.880
    7     8    34     1    109.500    292.880
    7     8    35     1    109.500    292.880
    7     9    36     1    109.500    292.880
    7     9    37     1    109.500    292.880
    7     9    38     1    109.500    292.880
   13    14    39     1    109.500    292.880
   14    15    40     1    110.700    313.800
   14    15    41     1    110.700    313.800
   14    15    42     1    110.700    313.800
   14    16    43     1    110.700    313.800
   14    16    44     1    110.700    313.800
   16    17    45     1    110.700    313.800
   17    18    46     1    110.700    313.800
   17    18    47     1    110.700    313.800
   17    18    48     1    110.700    313.800
   19    20    49     1    109.500    292.880
   19    20    50     1    109.500    292.880
   19    20    51     1    109.500    292.880
   49    20    50     1    107.800    276.144
    7     6    32     1    109.500    292.880
    7     6    31     1    109.500    292.880
   46    18    48     1    107.800    276.144
    6     5    30     1    110.700    313.800
    3     2    25     1    110.700    313.800
   34     8    35     1    107.800    276.144
   15    14    16     1    112.700    488.273
   19    17    45     1    109.500    292.880
    6     5    10     1    109.500    418.400
    5     4    28     1    110.700    313.800
    8     7     9     1    107.200    433.462
   36     9    38     1    107.800    276.144
   49    20    51     1    107.800    276.144
   17    16    44     1    110.700    313.800
   41    15    42     1    107.800    276.144
   10     5    30     1    109.500    292.880
   50    20    51     1    107.800    276.144
   33     8    34     1    107.800    276.144
    4     3    27     1    110.700    313.800
   21     1    23     1    107.800    276.144
   43    16    44     1    107.800    276.144
   46    18    47     1    107.800    276.144
   24     2    25     1    107.800    276.144
   21     1    22     1    107.800    276.144
   18    17    45     1    110.700    313.800
    4     3    26     1    110.700    313.800
   36     9    37     1    107.800    276.144
   15    14    39     1    110.700    313.800
   40    15    42     1    107.800    276.144
   17    16    43     1    110.700    313.800
    5     4    29     1    110.700    313.800
   31     6    32     1    107.800    276.144
   28     4    29     1    107.800    276.144
   26     3    27     1    107.800    276.144
   22     1    23     1    107.800    276.144
   40    15    41     1    107.800    276.144
   18    17    19     1    109.500    418.400
   37     9    38     1    107.800    276.144
   12    11    13     1    123.400    694.544
    3     2    24     1    110.700    313.800
   16    14    39     1    110.700    313.800
   33     8    35     1    107.800    276.144
   47    18    48     1    107.800    276.144

[ dihedrals ]
; IMPROPER DIHEDRAL ANGLES 
;  ai    aj    ak    al funct            c0            c1            c2            c3            c4            c5
    13    11    10    12    4        180.000     43.932     2  

[ dihedrals ]
; PROPER DIHEDRAL ANGLES
;  ai    aj    ak    al funct            c0            c1            c2            c3            c4            c5
   11   10    5    6        3      -2.197   5.201   0.527  -3.531  -0.000   0.000
   11   10    5    4        3      -2.197   5.201   0.527  -3.531  -0.000   0.000
   17   16   14   15        3       2.301  -1.464   0.837  -1.674  -0.000   0.000
   18   17   16   14        3       2.301  -1.464   0.837  -1.674  -0.000   0.000
    4    3    2    1        3       2.301  -1.464   0.837  -1.674  -0.000   0.000
    5    4    3    2        3       2.301  -1.464   0.837  -1.674  -0.000   0.000
    6    5    4    3        3       2.301  -1.464   0.837  -1.674  -0.000   0.000
   17   16   14   13        3       2.874   0.582   2.092  -5.548  -0.000   0.000
   16   14   13   11        3      -2.197   5.201   0.527  -3.531  -0.000   0.000
   15   14   13   11        3      -2.197   5.201   0.527  -3.531  -0.000   0.000
    9    7    6    5        3       1.789   3.492   0.536  -5.816  -0.000   0.000
    8    7    6    5        3       1.789   3.492   0.536  -5.816  -0.000   0.000
   14   13   11   12        3      21.439   0.000  -21.439  -0.000  -0.000   0.000
   14   13   11   10        3      31.206  -9.768  -21.439  -0.000  -0.000   0.000
   20   19   17   16        3       1.715   2.845   1.046  -5.607  -0.000   0.000
   20   19   17   18        3       1.715   2.845   1.046  -5.607  -0.000   0.000
   48   18   17   16        3       0.628   1.883   0.000  -2.510  -0.000   0.000
   32    6    5    4        3       0.628   1.883   0.000  -2.510  -0.000   0.000
   28    4    5    6        3       0.628   1.883   0.000  -2.510  -0.000   0.000
   27    3    4    5        3       0.628   1.883   0.000  -2.510  -0.000   0.000
   24    2    3    4        3       0.628   1.883   0.000  -2.510  -0.000   0.000
   28    4    3    2        3       0.628   1.883   0.000  -2.510  -0.000   0.000
   27    3    2    1        3       0.628   1.883   0.000  -2.510  -0.000   0.000
   43   16   17   18        3       0.628   1.883   0.000  -2.510  -0.000   0.000
   40   15   14   16        3       0.628   1.883   0.000  -2.510  -0.000   0.000
   44   16   14   15        3       0.628   1.883   0.000  -2.510  -0.000   0.000
   42   15   14   16        3       0.628   1.883   0.000  -2.510  -0.000   0.000
   23    1    2    3        3       0.628   1.883   0.000  -2.510  -0.000   0.000
   43   16   14   15        3       0.628   1.883   0.000  -2.510  -0.000   0.000
   26    3    2    1        3       0.628   1.883   0.000  -2.510  -0.000   0.000
   29    4    5    6        3       0.628   1.883   0.000  -2.510  -0.000   0.000
   26    3    4    5        3       0.628   1.883   0.000  -2.510  -0.000   0.000
   29    4    3    2        3       0.628   1.883   0.000  -2.510  -0.000   0.000
   45   17   16   14        3       0.628   1.883   0.000  -2.510  -0.000   0.000
   39   14   16   17        3       0.628   1.883   0.000  -2.510  -0.000   0.000
   30    5    4    3        3       0.628   1.883   0.000  -2.510  -0.000   0.000
   46   18   17   16        3       0.628   1.883   0.000  -2.510  -0.000   0.000
   25    2    3    4        3       0.628   1.883   0.000  -2.510  -0.000   0.000
   44   16   17   18        3       0.628   1.883   0.000  -2.510  -0.000   0.000
   21    1    2    3        3       0.628   1.883   0.000  -2.510  -0.000   0.000
   22    1    2    3        3       0.628   1.883   0.000  -2.510  -0.000   0.000
   47   18   17   16        3       0.628   1.883   0.000  -2.510  -0.000   0.000
   31    6    5    4        3       0.628   1.883   0.000  -2.510  -0.000   0.000
   41   15   14   16        3       0.628   1.883   0.000  -2.510  -0.000   0.000
   25    2    1   21        3       0.628   1.883   0.000  -2.510  -0.000   0.000
   43   16   14   39        3       0.628   1.883   0.000  -2.510  -0.000   0.000
   27    3    2   25        3       0.628   1.883   0.000  -2.510  -0.000   0.000
   29    4    3   26        3       0.628   1.883   0.000  -2.510  -0.000   0.000
   40   15   14   39        3       0.628   1.883   0.000  -2.510  -0.000   0.000
   31    6    5   30        3       0.628   1.883   0.000  -2.510  -0.000   0.000
   26    3    2   25        3       0.628   1.883   0.000  -2.510  -0.000   0.000
   28    4    3   26        3       0.628   1.883   0.000  -2.510  -0.000   0.000
   42   15   14   39        3       0.628   1.883   0.000  -2.510  -0.000   0.000
   30    5    4   29        3       0.628   1.883   0.000  -2.510  -0.000   0.000
   27    3    2   24        3       0.628   1.883   0.000  -2.510  -0.000   0.000
   29    4    3   27        3       0.628   1.883   0.000  -2.510  -0.000   0.000
   30    5    4   28        3       0.628   1.883   0.000  -2.510  -0.000   0.000
   24    2    1   23        3       0.628   1.883   0.000  -2.510  -0.000   0.000
   41   15   14   39        3       0.628   1.883   0.000  -2.510  -0.000   0.000
   25    2    1   22        3       0.628   1.883   0.000  -2.510  -0.000   0.000
   44   16   14   39        3       0.628   1.883   0.000  -2.510  -0.000   0.000
   45   17   16   43        3       0.628   1.883   0.000  -2.510  -0.000   0.000
   24    2    1   21        3       0.628   1.883   0.000  -2.510  -0.000   0.000
   45   17   16   44        3       0.628   1.883   0.000  -2.510  -0.000   0.000
   25    2    1   23        3       0.628   1.883   0.000  -2.510  -0.000   0.000
   48   18   17   45        3       0.628   1.883   0.000  -2.510  -0.000   0.000
   28    4    3   27        3       0.628   1.883   0.000  -2.510  -0.000   0.000
   47   18   17   45        3       0.628   1.883   0.000  -2.510  -0.000   0.000
   46   18   17   45        3       0.628   1.883   0.000  -2.510  -0.000   0.000
   24    2    1   22        3       0.628   1.883   0.000  -2.510  -0.000   0.000
   32    6    5   30        3       0.628   1.883   0.000  -2.510  -0.000   0.000
   26    3    2   24        3       0.628   1.883   0.000  -2.510  -0.000   0.000
   30    5    6    7        3      -4.096   5.088   2.966  -3.958  -0.000   0.000
   29    4    5   10        3       0.979   2.937   0.000  -3.916  -0.000   0.000
   41   15   14   13        3       0.979   2.937   0.000  -3.916  -0.000   0.000
   43   16   14   13        3       0.979   2.937   0.000  -3.916  -0.000   0.000
   40   15   14   13        3       0.979   2.937   0.000  -3.916  -0.000   0.000
   44   16   17   19        3       0.979   2.937   0.000  -3.916  -0.000   0.000
   43   16   17   19        3       0.979   2.937   0.000  -3.916  -0.000   0.000
   44   16   14   13        3       0.979   2.937   0.000  -3.916  -0.000   0.000
   47   18   17   19        3       0.979   2.937   0.000  -3.916  -0.000   0.000
   46   18   17   19        3       0.979   2.937   0.000  -3.916  -0.000   0.000
   32    6    5   10        3       0.979   2.937   0.000  -3.916  -0.000   0.000
   31    6    5   10        3       0.979   2.937   0.000  -3.916  -0.000   0.000
   28    4    5   10        3       0.979   2.937   0.000  -3.916  -0.000   0.000
   48   18   17   19        3       0.979   2.937   0.000  -3.916  -0.000   0.000
   42   15   14   13        3       0.979   2.937   0.000  -3.916  -0.000   0.000
   33    8    7    9        3       1.172   3.515   0.000  -4.686  -0.000   0.000
   32    6    7    9        3       1.172   3.515   0.000  -4.686  -0.000   0.000
   35    8    7    6        3       1.172   3.515   0.000  -4.686  -0.000   0.000
   36    9    7    6        3       1.172   3.515   0.000  -4.686  -0.000   0.000
   33    8    7    6        3       1.172   3.515   0.000  -4.686  -0.000   0.000
   32    6    7    8        3       1.172   3.515   0.000  -4.686  -0.000   0.000
   34    8    7    9        3       1.172   3.515   0.000  -4.686  -0.000   0.000
   38    9    7    6        3       1.172   3.515   0.000  -4.686  -0.000   0.000
   36    9    7    8        3       1.172   3.515   0.000  -4.686  -0.000   0.000
   31    6    7    9        3       1.172   3.515   0.000  -4.686  -0.000   0.000
   37    9    7    8        3       1.172   3.515   0.000  -4.686  -0.000   0.000
   34    8    7    6        3       1.172   3.515   0.000  -4.686  -0.000   0.000
   38    9    7    8        3       1.172   3.515   0.000  -4.686  -0.000   0.000
   35    8    7    9        3       1.172   3.515   0.000  -4.686  -0.000   0.000
   31    6    7    8        3       1.172   3.515   0.000  -4.686  -0.000   0.000
   37    9    7    6        3       1.172   3.515   0.000  -4.686  -0.000   0.000
   30    5   10   11        3       0.414   1.243   0.000  -1.657  -0.000   0.000
   39   14   13   11        3       0.414   1.243   0.000  -1.657  -0.000   0.000
   51   20   19   17        3       1.590   4.770   0.000  -6.360  -0.000   0.000
   45   17   19   20        3       1.590   4.770   0.000  -6.360  -0.000   0.000
   50   20   19   17        3       1.590   4.770   0.000  -6.360  -0.000   0.000
   49   20   19   17        3       1.590   4.770   0.000  -6.360  -0.000   0.000
    7    6    5    4        3       3.335  -1.552   2.820  -4.602  -0.000   0.000
   12   11   10    5        3      21.439   0.000  -21.439  -0.000  -0.000   0.000
   13   11   10    5        3      31.206  -9.768  -21.439  -0.000  -0.000   0.000
   19   17   16   14        3       2.874   0.582   2.092  -5.548  -0.000   0.000
   10    5    4    3        3       2.874   0.582   2.092  -5.548  -0.000   0.000
   10    5    6    7        3      16.736  -16.736   0.000  -0.000  -0.000   0.000

[ pairs ]
     1     4    1
     2     5    1
     3     6    1
     4     7    1
     5     8    1
     3    10    1
     5     9    1
     4    11    1
     7    10    1
     6    11    1
     5    12    1
     5    13    1
    10    14    1
     3    21    1
     3    22    1
    12    14    1
    11    15    1
     3    23    1
    11    16    1
     1    26    1
     4    24    1
     1    27    1
     4    25    1
    13    17    1
     2    28    1
     5    26    1
     2    29    1
    15    17    1
    14    18    1
     5    27    1
    14    19    1
     3    30    1
     6    28    1
     6    29    1
     4    31    1
    16    20    1
     4    32    1
     7    30    1
    18    20    1
    10    28    1
    10    29    1
     8    31    1
     6    33    1
     9    31    1
     8    32    1
     6    34    1
    11    30    1
    10    31    1
     9    32    1
     6    35    1
    10    32    1
     9    33    1
     6    36    1
     9    34    1
     6    37    1
     9    35    1
     8    36    1
     6    38    1
    21    24    1
     8    37    1
    22    24    1
    21    25    1
     8    38    1
    23    24    1
    22    25    1
    23    25    1
    24    26    1
    11    39    1
    25    26    1
    24    27    1
    25    27    1
    13    40    1
    26    28    1
    13    41    1
    27    28    1
    26    29    1
    13    42    1
    27    29    1
    17    39    1
    16    40    1
    13    43    1
    16    41    1
    13    44    1
    28    30    1
    16    42    1
    15    43    1
    29    30    1
    15    44    1
    14    45    1
    30    31    1
    18    43    1
    30    32    1
    19    43    1
    18    44    1
    16    46    1
    19    44    1
    16    47    1
    16    48    1
    20    45    1
    19    46    1
    19    47    1
    17    49    1
    19    48    1
    17    50    1
    17    51    1
    39    40    1
    39    41    1
    39    42    1
    39    43    1
    39    44    1
    43    45    1
    44    45    1
    45    46    1
    45    47    1
    45    48    1

