LIGPARGEN GENERATED GRO FILE
   43
    1UNK    C00    1   0.100   0.100   0.000
    1UNK    C01    2  -0.052   0.100   0.000
    1UNK    C02    3  -0.109   0.100   0.143
    1UNK    C03    4  -0.264   0.100   0.154
    1UNK    C04    5  -0.300   0.100   0.304
    1UNK    C05    6  -0.330   0.224   0.085
    1UNK    C06    7  -0.277   0.359   0.135
    1UNK    C07    8  -0.342   0.480   0.067
    1UNK    C08    9  -0.283   0.608   0.125
    1UNK    O09   10  -0.341   0.722   0.064
    1UNK    C0A   11  -0.285   0.841   0.118
    1UNK    C0B   12  -0.320  -0.031   0.091
    1UNK    O0C   13  -0.463  -0.038   0.104
    1UNK    C0D   14  -0.534  -0.042  -0.011
    1UNK    O0E   15  -0.488  -0.041  -0.124
    1UNK    O0F   16  -0.665  -0.049   0.021
    1UNK    C0G   17  -0.751  -0.054  -0.093
    1UNK    H0H   18   0.138   0.095  -0.103
    1UNK    H0I   19   0.139   0.014   0.054
    1UNK    H0J   20   0.139   0.191   0.046
    1UNK    H0K   21  -0.086   0.011  -0.054
    1UNK    H0M   22  -0.087   0.188  -0.055
    1UNK    H0N   23  -0.068   0.186   0.197
    1UNK    H0O   24  -0.070   0.012   0.195
    1UNK    H0P   25  -0.256   0.185   0.357
    1UNK    H0Q   26  -0.264   0.010   0.354
    1UNK    H0R   27  -0.409   0.105   0.320
    1UNK    H0S   28  -0.438   0.222   0.101
    1UNK    H0T   29  -0.315   0.218  -0.024
    1UNK    H0U   30  -0.169   0.365   0.119
    1UNK    H0V   31  -0.295   0.368   0.243
    1UNK    H0W   32  -0.451   0.479   0.082
    1UNK    H0X   33  -0.326   0.476  -0.042
    1UNK    H0Y   34  -0.175   0.609   0.108
    1UNK    H0Z   35  -0.302   0.611   0.233
    1UNK    H10   36  -0.332   0.927   0.069
    1UNK    H11   37  -0.177   0.845   0.099
    1UNK    H12   38  -0.305   0.848   0.225
    1UNK    H13   39  -0.279  -0.118   0.144
    1UNK    H14   40  -0.289  -0.040  -0.013
    1UNK    H15   41  -0.854  -0.058  -0.058
    1UNK    H16   42  -0.730  -0.143  -0.153
    1UNK    H17   43  -0.739   0.037  -0.154
   1.00000   1.00000   1.00000

