LIGPARGEN GENERATED GRO FILE
   36
    1UNK    C00    1   0.100   0.100   0.000
    1UNK    C01    2  -0.053   0.100   0.000
    1UNK    C02    3  -0.107   0.100   0.143
    1UNK    C03    4  -0.262   0.106   0.155
    1UNK    C04    5  -0.334  -0.012   0.083
    1UNK    C05    6  -0.289  -0.143   0.146
    1UNK    N06    7  -0.253  -0.252   0.198
    1UNK    C07    8  -0.305   0.110   0.304
    1UNK    C08    9  -0.252   0.229   0.385
    1UNK    C09   10  -0.297   0.229   0.533
    1UNK    C0A   11  -0.248   0.104   0.607
    1UNK    C0B   12  -0.245   0.358   0.600
    1UNK    C0C   13  -0.282   0.372   0.747
    1UNK    H0D   14   0.138   0.105  -0.102
    1UNK    H0E   15   0.139   0.009   0.047
    1UNK    H0F   16   0.139   0.186   0.055
    1UNK    H0G   17  -0.087   0.012  -0.055
    1UNK    H0H   18  -0.088   0.189  -0.053
    1UNK    H0I   19  -0.063   0.187   0.193
    1UNK    H0J   20  -0.069   0.012   0.196
    1UNK    H0K   21  -0.295   0.200   0.107
    1UNK    H0M   22  -0.311  -0.012  -0.024
    1UNK    H0N   23  -0.442  -0.002   0.094
    1UNK    H0O   24  -0.271   0.017   0.352
    1UNK    H0P   25  -0.414   0.111   0.309
    1UNK    H0Q   26  -0.285   0.322   0.336
    1UNK    H0R   27  -0.142   0.230   0.383
    1UNK    H0S   28  -0.406   0.230   0.536
    1UNK    H0T   29  -0.139   0.096   0.604
    1UNK    H0U   30  -0.290   0.012   0.563
    1UNK    H0V   31  -0.280   0.104   0.712
    1UNK    H0W   32  -0.286   0.445   0.546
    1UNK    H0X   33  -0.136   0.364   0.590
    1UNK    H0Y   34  -0.390   0.361   0.761
    1UNK    H0Z   35  -0.252   0.470   0.784
    1UNK    H10   36  -0.231   0.297   0.808
   1.00000   1.00000   1.00000

