
;
; GENERATED BY LigParGen Server
; Jorgensen Lab @ Yale University 
;
[ atomtypes ]
  opls_818  H818     1.0080     0.000    A    2.50000E-01   1.25520E-01
  opls_814  C814    12.0110     0.000    A    3.50000E-01   2.76144E-01
  opls_806  C806    12.0110     0.000    A    3.30000E-01   2.76144E-01
  opls_824  H824     1.0080     0.000    A    2.50000E-01   1.25520E-01
  opls_805  C805    12.0110     0.000    A    3.50000E-01   2.76144E-01
  opls_816  O816    15.9990     0.000    A    2.96000E-01   7.11280E-01
  opls_828  H828     1.0080     0.000    A    2.50000E-01   1.25520E-01
  opls_801  O801    15.9990     0.000    A    2.90000E-01   5.85760E-01
  opls_803  O803    15.9990     0.000    A    2.96000E-01   8.78640E-01
  opls_827  H827     1.0080     0.000    A    2.50000E-01   1.25520E-01
  opls_809  C809    12.0110     0.000    A    3.50000E-01   2.76144E-01
  opls_822  H822     1.0080     0.000    A    2.50000E-01   1.25520E-01
  opls_807  N807    14.0070     0.000    A    3.20000E-01   7.11280E-01
  opls_825  H825     1.0080     0.000    A    2.50000E-01   1.25520E-01
  opls_830  H830     1.0080     0.000    A    2.50000E-01   1.25520E-01
  opls_821  H821     1.0080     0.000    A    2.50000E-01   1.25520E-01
  opls_820  H820     1.0080     0.000    A    2.50000E-01   1.25520E-01
  opls_829  H829     1.0080     0.000    A    2.50000E-01   1.25520E-01
  opls_831  H831     1.0080     0.000    A    2.50000E-01   1.25520E-01
  opls_832  H832     1.0080     0.000    A    2.50000E-01   1.25520E-01
  opls_800  C800    12.0110     0.000    A    3.50000E-01   2.76144E-01
  opls_823  H823     1.0080     0.000    A    2.50000E-01   1.25520E-01
  opls_802  C802    12.0110     0.000    A    3.55000E-01   2.92880E-01
  opls_813  S813    32.0600     0.000    A    3.55000E-01   1.04600E+00
  opls_826  H826     1.0080     0.000    A    2.50000E-01   1.25520E-01
  opls_819  H819     1.0080     0.000    A    2.50000E-01   1.25520E-01
  opls_810  C810    12.0110     0.000    A    3.50000E-01   2.76144E-01
  opls_812  C812    12.0110     0.000    A    3.50000E-01   2.76144E-01
  opls_808  C808    12.0110     0.000    A    3.50000E-01   2.76144E-01
  opls_817  H817     1.0080     0.000    A    2.50000E-01   1.25520E-01
  opls_815  O815    15.9990     0.000    A    2.96000E-01   7.11280E-01
  opls_804  O804    15.9990     0.000    A    2.90000E-01   5.85760E-01
  opls_811  N811    14.0070     0.000    A    3.25000E-01   7.11280E-01
[ moleculetype ]
; Name               nrexcl
UNK                   3
[ atoms ]
;   nr       type  resnr residue  atom   cgnr     charge       mass  
     1   opls_800      1    UNK   C00      1    -0.0459    12.0110 
     2   opls_801      1    UNK   O01      1    -0.3103    15.9990 
     3   opls_802      1    UNK   C02      1      0.567    12.0110 
     4   opls_803      1    UNK   O03      1    -0.4792    15.9990 
     5   opls_804      1    UNK   O04      1    -0.3024    15.9990 
     6   opls_805      1    UNK   C05      1     0.2319    12.0110 
     7   opls_806      1    UNK   C06      1     0.1036    12.0110 
     8   opls_807      1    UNK   N07      1    -0.3389    14.0070 
     9   opls_808      1    UNK   C08      1    -0.2214    12.0110 
    10   opls_809      1    UNK   C09      1     0.3538    12.0110 
    11   opls_810      1    UNK   C0A      1    -0.2405    12.0110 
    12   opls_811      1    UNK   N0B      1    -1.4482    14.0070 
    13   opls_812      1    UNK   C0C      1     0.1991    12.0110 
    14   opls_813      1    UNK   S0D      1     1.5401    32.0600 
    15   opls_814      1    UNK   C0E      1    -0.5658    12.0110 
    16   opls_815      1    UNK   O0F      1    -0.5479    15.9990 
    17   opls_816      1    UNK   O0G      1    -0.5479    15.9990 
    18   opls_817      1    UNK   H0H      1     0.1126     1.0080 
    19   opls_818      1    UNK   H0I      1     0.1126     1.0080 
    20   opls_819      1    UNK   H0J      1     0.1126     1.0080 
    21   opls_820      1    UNK   H0K      1     0.1591     1.0080 
    22   opls_821      1    UNK   H0M      1     0.1452     1.0080 
    23   opls_822      1    UNK   H0N      1     0.1452     1.0080 
    24   opls_823      1    UNK   H0O      1     0.1221     1.0080 
    25   opls_824      1    UNK   H0P      1     0.0987     1.0080 
    26   opls_825      1    UNK   H0Q      1     0.0987     1.0080 
    27   opls_826      1    UNK   H0R      1     0.0987     1.0080 
    28   opls_827      1    UNK   H0S      1     0.1124     1.0080 
    29   opls_828      1    UNK   H0T      1     0.1124     1.0080 
    30   opls_829      1    UNK   H0U      1     0.1124     1.0080 
    31   opls_830      1    UNK   H0V      1     0.1701     1.0080 
    32   opls_831      1    UNK   H0W      1     0.1701     1.0080 
    33   opls_832      1    UNK   H0X      2     0.1701     1.0080 
[ bonds ]
    2     1     1      0.1410 267776.000
    3     2     1      0.1327 179075.200
    4     3     1      0.1229 476976.000
    5     3     1      0.1327 179075.200
    6     5     1      0.1410 267776.000
    7     6     1      0.1470 326352.000
    8     7     1      0.1157 543920.000
    9     6     1      0.1529 224262.400
   10     9     1      0.1529 224262.400
   11    10     1      0.1529 224262.400
   12    10     1      0.1449 282001.600
   13    12     1      0.1449 282001.600
   14    12     1      0.1670 363171.200
   15    14     1      0.1770 284512.000
   16    14     1      0.1440 585760.000
   17    14     1      0.1440 585760.000
   18     1     1      0.1090 284512.000
   19     1     1      0.1090 284512.000
   20     1     1      0.1090 284512.000
   21     6     1      0.1090 284512.000
   22     9     1      0.1090 284512.000
   23     9     1      0.1090 284512.000
   24    10     1      0.1090 284512.000
   25    11     1      0.1090 284512.000
   26    11     1      0.1090 284512.000
   27    11     1      0.1090 284512.000
   28    13     1      0.1090 284512.000
   29    13     1      0.1090 284512.000
   30    13     1      0.1090 284512.000
   31    15     1      0.1090 284512.000
   32    15     1      0.1090 284512.000
   33    15     1      0.1090 284512.000

[ angles ]
;  ai    aj    ak funct            c0            c1            c2            c3 
    1     2     3     1    116.900    694.544
    2     3     4     1    123.400    694.544
    2     3     5     1    118.180    584.923
    3     5     6     1    116.900    694.544
    5     6     7     1    110.580    432.207
    6     7     8     1    180.000   1255.200
    5     6     9     1    109.500    418.400
    6     9    10     1    112.700    488.273
    9    10    11     1    112.700    488.273
    9    10    12     1    109.700    669.440
   10    12    13     1    118.000    418.400
   10    12    14     1    120.000    418.400
   12    14    15     1    103.000    836.800
   12    14    16     1    107.000   1004.160
   12    14    17     1    107.000   1004.160
    2     1    18     1    109.500    292.880
    2     1    19     1    109.500    292.880
    2     1    20     1    109.500    292.880
    5     6    21     1    109.500    292.880
    6     9    22     1    110.700    313.800
    6     9    23     1    110.700    313.800
    9    10    24     1    110.700    313.800
   10    11    25     1    110.700    313.800
   10    11    26     1    110.700    313.800
   10    11    27     1    110.700    313.800
   12    13    28     1    109.500    292.880
   12    13    29     1    109.500    292.880
   12    13    30     1    109.500    292.880
   14    15    31     1    109.500    292.880
   14    15    32     1    109.500    292.880
   14    15    33     1    109.500    292.880
    7     6     9     1    112.700    488.273
   13    12    14     1    120.000    418.400
    9     6    21     1    110.700    313.800
   32    15    33     1    107.800    276.144
   22     9    23     1    107.800    276.144
   10     9    23     1    110.700    313.800
   16    14    17     1    119.000    870.272
    4     3     5     1    123.400    694.544
   31    15    33     1    107.800    276.144
   15    14    16     1    108.900    619.232
   10     9    22     1    110.700    313.800
   19     1    20     1    107.800    276.144
   29    13    30     1    107.800    276.144
   28    13    29     1    107.800    276.144
   18     1    20     1    107.800    276.144
   26    11    27     1    107.800    276.144
   25    11    26     1    107.800    276.144
   18     1    19     1    107.800    276.144
   15    14    17     1    108.900    619.232
   12    10    24     1    109.500    292.880
   25    11    27     1    107.800    276.144
   28    13    30     1    107.800    276.144
   11    10    12     1    109.700    669.440
    7     6    21     1    108.500    292.880
   31    15    32     1    107.800    276.144
   11    10    24     1    110.700    313.800

[ dihedrals ]
; IMPROPER DIHEDRAL ANGLES 
;  ai    aj    ak    al funct            c0            c1            c2            c3            c4            c5
     5     3     2     4    4        180.000     43.932     2  
    14    12    10    13    4        180.000     10.460     2  

[ dihedrals ]
; PROPER DIHEDRAL ANGLES
;  ai    aj    ak    al funct            c0            c1            c2            c3            c4            c5
   11   10    9    6        3       2.301  -1.464   0.837  -1.674  -0.000   0.000
   10    9    6    7        3      -2.720   0.000   2.720  -0.000  -0.000   0.000
   10    9    6    5        3       2.874   0.582   2.092  -5.548  -0.000   0.000
    9    6    7    8        3       0.000   0.000   0.000  -0.000  -0.000   0.000
    9    6    5    3        3      -2.197   5.201   0.527  -3.531  -0.000   0.000
   13   12   10    9        3       6.872  -9.943   3.071  -0.000  -0.000   0.000
   13   12   10   11        3       6.872  -9.943   3.071  -0.000  -0.000   0.000
    6    5    3    4        3      21.439   0.000  -21.439  -0.000  -0.000   0.000
    6    5    3    2        3      31.206  -9.768  -21.439  -0.000  -0.000   0.000
   15   14   12   10        3      -2.897  11.182  12.410  -20.694  -0.000   0.000
   15   14   12   13        3      -2.897  11.182  12.410  -20.694  -0.000   0.000
    7    6    5    3        3      -2.197   5.201   0.527  -3.531  -0.000   0.000
   25   11   10    9        3       0.628   1.883   0.000  -2.510  -0.000   0.000
   24   10    9    6        3       0.628   1.883   0.000  -2.510  -0.000   0.000
   23    9   10   11        3       0.628   1.883   0.000  -2.510  -0.000   0.000
   22    9   10   11        3       0.628   1.883   0.000  -2.510  -0.000   0.000
   27   11   10    9        3       0.628   1.883   0.000  -2.510  -0.000   0.000
   21    6    9   10        3       0.628   1.883   0.000  -2.510  -0.000   0.000
   26   11   10    9        3       0.628   1.883   0.000  -2.510  -0.000   0.000
   22    9    6    7        3       0.766   2.297   0.000  -3.063  -0.000   0.000
   23    9    6    7        3       0.766   2.297   0.000  -3.063  -0.000   0.000
   24   10    9   23        3       0.628   1.883   0.000  -2.510  -0.000   0.000
   24   10    9   22        3       0.628   1.883   0.000  -2.510  -0.000   0.000
   26   11   10   24        3       0.628   1.883   0.000  -2.510  -0.000   0.000
   23    9    6   21        3       0.628   1.883   0.000  -2.510  -0.000   0.000
   27   11   10   24        3       0.628   1.883   0.000  -2.510  -0.000   0.000
   25   11   10   24        3       0.628   1.883   0.000  -2.510  -0.000   0.000
   22    9    6   21        3       0.628   1.883   0.000  -2.510  -0.000   0.000
   22    9   10   12        3       0.971   2.912   0.000  -3.883  -0.000   0.000
   23    9   10   12        3       0.971   2.912   0.000  -3.883  -0.000   0.000
   26   11   10   12        3       0.971   2.912   0.000  -3.883  -0.000   0.000
   25   11   10   12        3       0.971   2.912   0.000  -3.883  -0.000   0.000
   27   11   10   12        3       0.971   2.912   0.000  -3.883  -0.000   0.000
   23    9    6    5        3       0.979   2.937   0.000  -3.916  -0.000   0.000
   22    9    6    5        3       0.979   2.937   0.000  -3.916  -0.000   0.000
   21    6    7    8        3       0.000   0.000   0.000  -0.000  -0.000   0.000
   28   13   12   10        3       0.000   0.000   0.000  -0.000  -0.000   0.000
   30   13   12   10        3       0.000   0.000   0.000  -0.000  -0.000   0.000
   29   13   12   10        3       0.000   0.000   0.000  -0.000  -0.000   0.000
   24   10   12   13        3       0.000   0.000   0.000  -0.000  -0.000   0.000
   28   13   12   14        3      -2.935  -1.914   6.096  -1.247  -0.000   0.000
   30   13   12   14        3      -2.935  -1.914   6.096  -1.247  -0.000   0.000
   29   13   12   14        3      -2.935  -1.914   6.096  -1.247  -0.000   0.000
   24   10   12   14        3      -2.935  -1.914   6.096  -1.247  -0.000   0.000
   19    1    2    3        3       0.414   1.243   0.000  -1.657  -0.000   0.000
   21    6    5    3        3       0.414   1.243   0.000  -1.657  -0.000   0.000
   20    1    2    3        3       0.414   1.243   0.000  -1.657  -0.000   0.000
   18    1    2    3        3       0.414   1.243   0.000  -1.657  -0.000   0.000
   32   15   14   12        3       0.000   0.000   0.000  -0.000  -0.000   0.000
   31   15   14   12        3       0.000   0.000   0.000  -0.000  -0.000   0.000
   33   15   14   12        3       0.000   0.000   0.000  -0.000  -0.000   0.000
   31   15   14   16        3       0.732   2.197   0.000  -2.929  -0.000   0.000
   33   15   14   16        3       0.732   2.197   0.000  -2.929  -0.000   0.000
   31   15   14   17        3       0.732   2.197   0.000  -2.929  -0.000   0.000
   32   15   14   16        3       0.732   2.197   0.000  -2.929  -0.000   0.000
   32   15   14   17        3       0.732   2.197   0.000  -2.929  -0.000   0.000
   33   15   14   17        3       0.732   2.197   0.000  -2.929  -0.000   0.000
   12   10    9    6        3      -0.766   2.707   4.025  -5.966  -0.000   0.000
    8    7    6    5        3       0.000   0.000   0.000  -0.000  -0.000   0.000
    4    3    2    1        3      21.439   0.000  -21.439  -0.000  -0.000   0.000
    5    3    2    1        3      31.206  -9.768  -21.439  -0.000  -0.000   0.000
   16   14   12   13        3       0.000   0.000   0.000  -0.000  -0.000   0.000
   17   14   12   13        3       0.000   0.000   0.000  -0.000  -0.000   0.000
   16   14   12   10        3       0.000   0.000   0.000  -0.000  -0.000   0.000
   17   14   12   10        3       0.000   0.000   0.000  -0.000  -0.000   0.000
   14   12   10    9        3      -3.431  -3.008  10.598  -4.159  -0.000   0.000
   14   12   10   11        3      -3.431  -3.008  10.598  -4.159  -0.000   0.000

[ pairs ]
     1     4    1
     1     5    1
     2     6    1
     4     6    1
     3     7    1
     3     9    1
     5     8    1
     5    10    1
     8     9    1
     7    10    1
     6    11    1
     6    12    1
     3    18    1
     9    13    1
     3    19    1
     9    14    1
     3    20    1
    11    13    1
     3    21    1
    11    14    1
    10    15    1
    10    16    1
    10    17    1
     5    22    1
    13    15    1
     5    23    1
    13    16    1
     8    21    1
     7    22    1
    13    17    1
     7    23    1
     6    24    1
    10    21    1
    11    22    1
    12    22    1
    11    23    1
     9    25    1
    12    23    1
     9    26    1
     9    27    1
    13    24    1
    12    25    1
    14    24    1
    12    26    1
    10    28    1
    12    27    1
    10    29    1
    10    30    1
    14    28    1
    21    22    1
    14    29    1
    12    31    1
    21    23    1
    14    30    1
    12    32    1
    12    33    1
    22    24    1
    23    24    1
    16    31    1
    17    31    1
    16    32    1
    24    25    1
    17    32    1
    16    33    1
    24    26    1
    17    33    1
    24    27    1

