LIGPARGEN GENERATED GRO FILE
   33
    1UNK    C00    1   0.100   0.100   0.000
    1UNK    O01    2  -0.043   0.100   0.000
    1UNK    C02    3  -0.097   0.100   0.124
    1UNK    O03    4  -0.035   0.100   0.229
    1UNK    O04    5  -0.232   0.100   0.112
    1UNK    C05    6  -0.300   0.100   0.239
    1UNK    C06    7  -0.301   0.238   0.301
    1UNK    N07    8  -0.303   0.354   0.353
    1UNK    C08    9  -0.447   0.058   0.221
    1UNK    C09   10  -0.468  -0.081   0.159
    1UNK    C0A   11  -0.403  -0.193   0.242
    1UNK    N0B   12  -0.613  -0.113   0.137
    1UNK    C0C   13  -0.697  -0.115   0.261
    1UNK    S0D   14  -0.694  -0.041   0.004
    1UNK    C0E   15  -0.601  -0.100  -0.136
    1UNK    O0F   16  -0.826  -0.100  -0.004
    1UNK    O0G   17  -0.677   0.102   0.013
    1UNK    H0H   18   0.134   0.093  -0.104
    1UNK    H0I   19   0.139   0.013   0.055
    1UNK    H0J   20   0.138   0.193   0.043
    1UNK    H0K   21  -0.252   0.031   0.308
    1UNK    H0M   22  -0.495   0.133   0.158
    1UNK    H0N   23  -0.496   0.063   0.319
    1UNK    H0O   24  -0.418  -0.084   0.062
    1UNK    H0P   25  -0.432  -0.186   0.348
    1UNK    H0Q   26  -0.294  -0.188   0.237
    1UNK    H0R   27  -0.434  -0.291   0.205
    1UNK    H0S   28  -0.657  -0.187   0.333
    1UNK    H0T   29  -0.799  -0.148   0.239
    1UNK    H0U   30  -0.701  -0.016   0.307
    1UNK    H0V   31  -0.598  -0.209  -0.133
    1UNK    H0W   32  -0.500  -0.058  -0.134
    1UNK    H0X   33  -0.652  -0.067  -0.226
   1.00000   1.00000   1.00000

