LIGPARGEN GENERATED GRO FILE
   47
    1UNK    C00    1   0.100   0.100   0.000
    1UNK    C01    2  -0.052   0.100   0.000
    1UNK    C02    3  -0.122   0.100   0.139
    1UNK    C03    4  -0.274   0.100   0.119
    1UNK    C04    5  -0.333  -0.035   0.081
    1UNK    C05    6  -0.293  -0.150   0.176
    1UNK    C06    7  -0.393  -0.155   0.292
    1UNK    C07    8  -0.139  -0.152   0.209
    1UNK    C08    9  -0.069  -0.208   0.079
    1UNK    C09   10  -0.106  -0.263   0.312
    1UNK    C0A   11  -0.076  -0.009   0.245
    1UNK    C0B   12  -0.078   0.046   0.399
    1UNK    C0C   13  -0.013   0.188   0.408
    1UNK    C0D   14  -0.218   0.062   0.460
    1UNK    C0E   15   0.003  -0.041   0.501
    1UNK    C0F   16   0.149  -0.059   0.468
    1UNK    O0G   17   0.239  -0.028   0.546
    1UNK    H0H   18   0.136   0.100  -0.103
    1UNK    H0I   19   0.142   0.012   0.048
    1UNK    H0J   20   0.139   0.189   0.049
    1UNK    H0K   21  -0.088   0.019  -0.064
    1UNK    H0M   22  -0.084   0.191  -0.053
    1UNK    H0N   23  -0.097   0.199   0.178
    1UNK    H0O   24  -0.300   0.172   0.040
    1UNK    H0P   25  -0.324   0.138   0.208
    1UNK    H0Q   26  -0.302  -0.060  -0.021
    1UNK    H0R   27  -0.442  -0.026   0.077
    1UNK    H0S   28  -0.314  -0.243   0.121
    1UNK    H0T   29  -0.420  -0.056   0.329
    1UNK    H0U   30  -0.359  -0.217   0.376
    1UNK    H0V   31  -0.486  -0.201   0.258
    1UNK    H0W   32  -0.085  -0.316   0.069
    1UNK    H0X   33   0.039  -0.191   0.081
    1UNK    H0Y   34  -0.111  -0.167  -0.013
    1UNK    H0Z   35  -0.136  -0.362   0.275
    1UNK    H10   36  -0.158  -0.249   0.407
    1UNK    H11   37   0.002  -0.269   0.330
    1UNK    H12   38   0.031  -0.021   0.227
    1UNK    H13   39  -0.076   0.266   0.365
    1UNK    H14   40   0.085   0.190   0.359
    1UNK    H15   41   0.003   0.218   0.513
    1UNK    H16   42  -0.282   0.128   0.403
    1UNK    H17   43  -0.213   0.106   0.561
    1UNK    H18   44  -0.266  -0.035   0.473
    1UNK    H19   45  -0.041  -0.139   0.518
    1UNK    H1A   46  -0.001   0.008   0.601
    1UNK    H1B   47   0.172  -0.108   0.373
   1.00000   1.00000   1.00000

