
;
; GENERATED BY LigParGen Server
; Jorgensen Lab @ Yale University 
;
[ atomtypes ]
  opls_818  H818     1.0080     0.000    A    2.50000E-01   1.25520E-01
  opls_824  H824     1.0080     0.000    A    2.50000E-01   1.25520E-01
  opls_816  O816    15.9990     0.000    A    2.96000E-01   8.78640E-01
  opls_805  O805    15.9990     0.000    A    2.96000E-01   7.11280E-01
  opls_836  H836     1.0080     0.000    A    2.50000E-01   1.25520E-01
  opls_804  S804    32.0600     0.000    A    3.55000E-01   1.04600E+00
  opls_828  H828     1.0080     0.000    A    2.50000E-01   1.25520E-01
  opls_814  C814    12.0110     0.000    A    3.55000E-01   2.92880E-01
  opls_812  C812    12.0110     0.000    A    3.50000E-01   2.76144E-01
  opls_802  C802    12.0110     0.000    A    3.50000E-01   2.76144E-01
  opls_827  H827     1.0080     0.000    A    2.50000E-01   1.25520E-01
  opls_809  C809    12.0110     0.000    A    3.50000E-01   2.76144E-01
  opls_838  H838     1.0080     0.000    A    2.50000E-01   1.25520E-01
  opls_811  O811    15.9990     0.000    A    2.96000E-01   8.78640E-01
  opls_822  H822     1.0080     0.000    A    2.50000E-01   1.25520E-01
  opls_807  C807    12.0110     0.000    A    3.50000E-01   2.76144E-01
  opls_825  H825     1.0080     0.000    A    2.50000E-01   1.25520E-01
  opls_830  H830     1.0080     0.000    A    2.50000E-01   1.25520E-01
  opls_821  H821     1.0080     0.000    A    2.50000E-01   1.25520E-01
  opls_820  H820     1.0080     0.000    A    2.50000E-01   1.25520E-01
  opls_837  H837     1.0080     0.000    A    2.50000E-01   1.25520E-01
  opls_829  H829     1.0080     0.000    A    2.50000E-01   1.25520E-01
  opls_834  H834     1.0080     0.000    A    2.50000E-01   1.25520E-01
  opls_831  H831     1.0080     0.000    A    2.50000E-01   1.25520E-01
  opls_810  C810    12.0110     0.000    A    3.55000E-01   2.92880E-01
  opls_832  H832     1.0080     0.000    A    2.50000E-01   1.25520E-01
  opls_800  C800    12.0110     0.000    A    3.50000E-01   2.76144E-01
  opls_815  C815    12.0110     0.000    A    3.50000E-01   2.76144E-01
  opls_823  H823     1.0080     0.000    A    2.50000E-01   1.25520E-01
  opls_813  C813    12.0110     0.000    A    3.50000E-01   2.76144E-01
  opls_826  H826     1.0080     0.000    A    2.50000E-01   1.25520E-01
  opls_835  H835     1.0080     0.000    A    2.50000E-01   1.25520E-01
  opls_819  H819     1.0080     0.000    A    2.50000E-01   1.25520E-01
  opls_833  H833     1.0080     0.000    A    2.50000E-01   1.25520E-01
  opls_801  C801    12.0110     0.000    A    3.50000E-01   2.76144E-01
  opls_808  C808    12.0110     0.000    A    3.50000E-01   2.76144E-01
  opls_817  H817     1.0080     0.000    A    2.50000E-01   1.25520E-01
  opls_806  O806    15.9990     0.000    A    2.96000E-01   7.11280E-01
  opls_803  C803    12.0110     0.000    A    3.50000E-01   2.76144E-01
[ moleculetype ]
; Name               nrexcl
UNK                   3
[ atoms ]
;   nr       type  resnr residue  atom   cgnr     charge       mass  
     1   opls_800      1    UNK   C00      1    -0.2253    12.0110 
     2   opls_801      1    UNK   C01      1    -0.1538    12.0110 
     3   opls_802      1    UNK   C02      1    -0.4062    12.0110 
     4   opls_803      1    UNK   C03      1    -0.2201    12.0110 
     5   opls_804      1    UNK   S04      1     1.2752    32.0600 
     6   opls_805      1    UNK   O05      1    -0.5733    15.9990 
     7   opls_806      1    UNK   O06      1    -0.5733    15.9990 
     8   opls_807      1    UNK   C07      1    -0.4941    12.0110 
     9   opls_808      1    UNK   C08      1    -0.1333    12.0110 
    10   opls_809      1    UNK   C09      1    -0.2522    12.0110 
    11   opls_810      1    UNK   C0A      1     0.3659    12.0110 
    12   opls_811      1    UNK   O0B      1    -0.4567    15.9990 
    13   opls_812      1    UNK   C0C      1    -0.2263    12.0110 
    14   opls_813      1    UNK   C0D      1    -0.2289    12.0110 
    15   opls_814      1    UNK   C0E      1     0.3611    12.0110 
    16   opls_815      1    UNK   C0F      1    -0.3023    12.0110 
    17   opls_816      1    UNK   O0G      1    -0.4521    15.9990 
    18   opls_817      1    UNK   H0H      1     0.0879     1.0080 
    19   opls_818      1    UNK   H0I      1     0.0879     1.0080 
    20   opls_819      1    UNK   H0J      1     0.0879     1.0080 
    21   opls_820      1    UNK   H0K      1     0.1132     1.0080 
    22   opls_821      1    UNK   H0M      1     0.1132     1.0080 
    23   opls_822      1    UNK   H0N      1     0.1568     1.0080 
    24   opls_823      1    UNK   H0O      1     0.1009     1.0080 
    25   opls_824      1    UNK   H0P      1     0.1009     1.0080 
    26   opls_825      1    UNK   H0Q      1     0.1009     1.0080 
    27   opls_826      1    UNK   H0R      1     0.1579     1.0080 
    28   opls_827      1    UNK   H0S      1     0.1579     1.0080 
    29   opls_828      1    UNK   H0T      1     0.1253     1.0080 
    30   opls_829      1    UNK   H0U      1     0.1253     1.0080 
    31   opls_830      1    UNK   H0V      1     0.1376     1.0080 
    32   opls_831      1    UNK   H0W      1     0.1376     1.0080 
    33   opls_832      1    UNK   H0X      2     0.1408     1.0080 
    34   opls_833      1    UNK   H0Y      2     0.1408     1.0080 
    35   opls_834      1    UNK   H0Z      2      0.135     1.0080 
    36   opls_835      1    UNK   H10      2      0.135     1.0080 
    37   opls_836      1    UNK   H11      2     0.1177     1.0080 
    38   opls_837      1    UNK   H12      2     0.1177     1.0080 
    39   opls_838      1    UNK   H13      2     0.1177     1.0080 
[ bonds ]
    2     1     1      0.1529 224262.400
    3     2     1      0.1529 224262.400
    4     3     1      0.1529 224262.400
    5     3     1      0.1770 284512.000
    6     5     1      0.1440 585760.000
    7     5     1      0.1440 585760.000
    8     5     1      0.1770 284512.000
    9     8     1      0.1529 224262.400
   10     9     1      0.1529 224262.400
   11    10     1      0.1522 265265.600
   12    11     1      0.1229 476976.000
   13    11     1      0.1522 265265.600
   14    13     1      0.1529 224262.400
   15    14     1      0.1522 265265.600
   16    15     1      0.1522 265265.600
   17    15     1      0.1229 476976.000
   18     1     1      0.1090 284512.000
   19     1     1      0.1090 284512.000
   20     1     1      0.1090 284512.000
   21     2     1      0.1090 284512.000
   22     2     1      0.1090 284512.000
   23     3     1      0.1090 284512.000
   24     4     1      0.1090 284512.000
   25     4     1      0.1090 284512.000
   26     4     1      0.1090 284512.000
   27     8     1      0.1090 284512.000
   28     8     1      0.1090 284512.000
   29     9     1      0.1090 284512.000
   30     9     1      0.1090 284512.000
   31    10     1      0.1090 284512.000
   32    10     1      0.1090 284512.000
   33    13     1      0.1090 284512.000
   34    13     1      0.1090 284512.000
   35    14     1      0.1090 284512.000
   36    14     1      0.1090 284512.000
   37    16     1      0.1090 284512.000
   38    16     1      0.1090 284512.000
   39    16     1      0.1090 284512.000

[ angles ]
;  ai    aj    ak funct            c0            c1            c2            c3 
    1     2     3     1    112.700    488.273
    2     3     4     1    112.700    488.273
    2     3     5     1    108.600    418.400
    3     5     6     1    108.900    619.232
    3     5     7     1    108.900    619.232
    3     5     8     1    102.000    518.816
    5     8     9     1    108.600    418.400
    8     9    10     1    112.700    488.273
    9    10    11     1    111.100    527.184
   10    11    12     1    120.400    669.440
   10    11    13     1    116.000    585.760
   11    13    14     1    111.100    527.184
   13    14    15     1    111.100    527.184
   14    15    16     1    116.000    585.760
   14    15    17     1    120.400    669.440
    2     1    18     1    110.700    313.800
    2     1    19     1    110.700    313.800
    2     1    20     1    110.700    313.800
    1     2    21     1    110.700    313.800
    1     2    22     1    110.700    313.800
    2     3    23     1    110.700    313.800
    3     4    24     1    110.700    313.800
    3     4    25     1    110.700    313.800
    3     4    26     1    110.700    313.800
    5     8    27     1    109.500    292.880
    5     8    28     1    109.500    292.880
    8     9    29     1    110.700    313.800
    8     9    30     1    110.700    313.800
    9    10    31     1    110.700    313.800
    9    10    32     1    110.700    313.800
   11    13    33     1    109.500    292.880
   11    13    34     1    109.500    292.880
   13    14    35     1    110.700    313.800
   13    14    36     1    110.700    313.800
   15    16    37     1    109.500    292.880
   15    16    38     1    109.500    292.880
   15    16    39     1    109.500    292.880
    9     8    28     1    110.700    313.800
   33    13    34     1    107.800    276.144
   10     9    30     1    110.700    313.800
   29     9    30     1    107.800    276.144
   15    14    35     1    109.500    292.880
   37    16    39     1    107.800    276.144
   14    13    33     1    110.700    313.800
   37    16    38     1    107.800    276.144
   10     9    29     1    110.700    313.800
   31    10    32     1    107.800    276.144
   24     4    26     1    107.800    276.144
   24     4    25     1    107.800    276.144
    5     3    23     1    109.500    292.880
   11    10    32     1    109.500    292.880
   18     1    20     1    107.800    276.144
   27     8    28     1    107.800    276.144
    4     3    23     1    110.700    313.800
    3     2    22     1    110.700    313.800
   14    13    34     1    110.700    313.800
    4     3     5     1    108.600    418.400
   18     1    19     1    107.800    276.144
    9     8    27     1    110.700    313.800
   35    14    36     1    107.800    276.144
    6     5     7     1    119.000    870.272
   19     1    20     1    107.800    276.144
   16    15    17     1    120.400    669.440
    6     5     8     1    108.900    619.232
   25     4    26     1    107.800    276.144
   12    11    13     1    120.400    669.440
    7     5     8     1    108.900    619.232
   15    14    36     1    109.500    292.880
    3     2    21     1    110.700    313.800
   21     2    22     1    107.800    276.144
   38    16    39     1    107.800    276.144
   11    10    31     1    109.500    292.880

[ dihedrals ]
; IMPROPER DIHEDRAL ANGLES 
;  ai    aj    ak    al funct            c0            c1            c2            c3            c4            c5
    13    11    10    12    4        180.000     43.932     2  
    17    15    14    16    4        180.000     43.932     2  

[ dihedrals ]
; PROPER DIHEDRAL ANGLES
;  ai    aj    ak    al funct            c0            c1            c2            c3            c4            c5
   15   14   13   11        3       0.941   7.427   0.000  -8.368  -0.000   0.000
   11   10    9    8        3      -4.960   6.286   1.310  -2.636  -0.000   0.000
   13   11   10    9        3       0.818  -7.906   0.602   6.485  -0.000   0.000
   16   15   14   13        3       0.818  -7.906   0.602   6.485  -0.000   0.000
   14   13   11   10        3       0.818  -7.906   0.602   6.485  -0.000   0.000
   14   13   11   12        3       0.000   0.000   0.000  -0.000  -0.000   0.000
    4    3    2    1        3       2.301  -1.464   0.837  -1.674  -0.000   0.000
   10    9    8    5        3       2.784   0.278   0.828  -3.891  -0.000   0.000
    9    8    5    3        3       0.000   0.000   0.000  -0.000  -0.000   0.000
    9    8    5    7        3       0.000   0.000   0.000  -0.000  -0.000   0.000
    9    8    5    6        3       0.000   0.000   0.000  -0.000  -0.000   0.000
    8    5    3    2        3       0.000   0.000   0.000  -0.000  -0.000   0.000
    8    5    3    4        3       0.000   0.000   0.000  -0.000  -0.000   0.000
   37   16   15   14        3       0.575   1.726   0.000  -2.301  -0.000   0.000
   39   16   15   14        3       0.575   1.726   0.000  -2.301  -0.000   0.000
   31   10   11   13        3       0.575   1.726   0.000  -2.301  -0.000   0.000
   33   13   11   10        3       0.575   1.726   0.000  -2.301  -0.000   0.000
   38   16   15   14        3       0.575   1.726   0.000  -2.301  -0.000   0.000
   32   10   11   13        3       0.575   1.726   0.000  -2.301  -0.000   0.000
   34   13   11   10        3       0.575   1.726   0.000  -2.301  -0.000   0.000
   36   14   15   16        3       0.575   1.726   0.000  -2.301  -0.000   0.000
   35   14   15   16        3       0.575   1.726   0.000  -2.301  -0.000   0.000
   33   13   11   12        3       0.000   0.000   0.000  -0.000  -0.000   0.000
   38   16   15   17        3       0.000   0.000   0.000  -0.000  -0.000   0.000
   34   13   11   12        3       0.000   0.000   0.000  -0.000  -0.000   0.000
   35   14   15   17        3       0.000   0.000   0.000  -0.000  -0.000   0.000
   39   16   15   17        3       0.000   0.000   0.000  -0.000  -0.000   0.000
   32   10   11   12        3       0.000   0.000   0.000  -0.000  -0.000   0.000
   36   14   15   17        3       0.000   0.000   0.000  -0.000  -0.000   0.000
   37   16   15   17        3       0.000   0.000   0.000  -0.000  -0.000   0.000
   31   10   11   12        3       0.000   0.000   0.000  -0.000  -0.000   0.000
   34   13   14   15        3      -0.209  -0.628   0.000   0.837  -0.000   0.000
   36   14   13   11        3      -0.209  -0.628   0.000   0.837  -0.000   0.000
   35   14   13   11        3      -0.209  -0.628   0.000   0.837  -0.000   0.000
   29    9   10   11        3      -0.209  -0.628   0.000   0.837  -0.000   0.000
   30    9   10   11        3      -0.209  -0.628   0.000   0.837  -0.000   0.000
   33   13   14   15        3      -0.209  -0.628   0.000   0.837  -0.000   0.000
   32   10    9    8        3       0.628   1.883   0.000  -2.510  -0.000   0.000
   31   10    9    8        3       0.628   1.883   0.000  -2.510  -0.000   0.000
   22    2    3    4        3       0.628   1.883   0.000  -2.510  -0.000   0.000
   27    8    9   10        3       0.628   1.883   0.000  -2.510  -0.000   0.000
   23    3    2    1        3       0.628   1.883   0.000  -2.510  -0.000   0.000
   21    2    3    4        3       0.628   1.883   0.000  -2.510  -0.000   0.000
   26    4    3    2        3       0.628   1.883   0.000  -2.510  -0.000   0.000
   20    1    2    3        3       0.628   1.883   0.000  -2.510  -0.000   0.000
   18    1    2    3        3       0.628   1.883   0.000  -2.510  -0.000   0.000
   24    4    3    2        3       0.628   1.883   0.000  -2.510  -0.000   0.000
   25    4    3    2        3       0.628   1.883   0.000  -2.510  -0.000   0.000
   28    8    9   10        3       0.628   1.883   0.000  -2.510  -0.000   0.000
   19    1    2    3        3       0.628   1.883   0.000  -2.510  -0.000   0.000
   22    2    1   19        3       0.628   1.883   0.000  -2.510  -0.000   0.000
   30    9    8   28        3       0.628   1.883   0.000  -2.510  -0.000   0.000
   36   14   13   33        3       0.628   1.883   0.000  -2.510  -0.000   0.000
   35   14   13   33        3       0.628   1.883   0.000  -2.510  -0.000   0.000
   31   10    9   30        3       0.628   1.883   0.000  -2.510  -0.000   0.000
   25    4    3   23        3       0.628   1.883   0.000  -2.510  -0.000   0.000
   21    2    1   20        3       0.628   1.883   0.000  -2.510  -0.000   0.000
   29    9    8   27        3       0.628   1.883   0.000  -2.510  -0.000   0.000
   22    2    1   18        3       0.628   1.883   0.000  -2.510  -0.000   0.000
   30    9    8   27        3       0.628   1.883   0.000  -2.510  -0.000   0.000
   35   14   13   34        3       0.628   1.883   0.000  -2.510  -0.000   0.000
   21    2    1   18        3       0.628   1.883   0.000  -2.510  -0.000   0.000
   22    2    1   20        3       0.628   1.883   0.000  -2.510  -0.000   0.000
   21    2    1   19        3       0.628   1.883   0.000  -2.510  -0.000   0.000
   23    3    2   21        3       0.628   1.883   0.000  -2.510  -0.000   0.000
   24    4    3   23        3       0.628   1.883   0.000  -2.510  -0.000   0.000
   23    3    2   22        3       0.628   1.883   0.000  -2.510  -0.000   0.000
   36   14   13   34        3       0.628   1.883   0.000  -2.510  -0.000   0.000
   26    4    3   23        3       0.628   1.883   0.000  -2.510  -0.000   0.000
   31   10    9   29        3       0.628   1.883   0.000  -2.510  -0.000   0.000
   32   10    9   30        3       0.628   1.883   0.000  -2.510  -0.000   0.000
   32   10    9   29        3       0.628   1.883   0.000  -2.510  -0.000   0.000
   29    9    8   28        3       0.628   1.883   0.000  -2.510  -0.000   0.000
   30    9    8    5        3       0.946   2.837   0.000  -3.782  -0.000   0.000
   29    9    8    5        3       0.946   2.837   0.000  -3.782  -0.000   0.000
   24    4    3    5        3       0.946   2.837   0.000  -3.782  -0.000   0.000
   26    4    3    5        3       0.946   2.837   0.000  -3.782  -0.000   0.000
   21    2    3    5        3       0.946   2.837   0.000  -3.782  -0.000   0.000
   25    4    3    5        3       0.946   2.837   0.000  -3.782  -0.000   0.000
   22    2    3    5        3       0.946   2.837   0.000  -3.782  -0.000   0.000
   28    8    5    3        3       0.732   2.197   0.000  -2.929  -0.000   0.000
   23    3    5    8        3       0.732   2.197   0.000  -2.929  -0.000   0.000
   27    8    5    3        3       0.732   2.197   0.000  -2.929  -0.000   0.000
   28    8    5    6        3       0.732   2.197   0.000  -2.929  -0.000   0.000
   27    8    5    7        3       0.732   2.197   0.000  -2.929  -0.000   0.000
   23    3    5    6        3       0.732   2.197   0.000  -2.929  -0.000   0.000
   23    3    5    7        3       0.732   2.197   0.000  -2.929  -0.000   0.000
   27    8    5    6        3       0.732   2.197   0.000  -2.929  -0.000   0.000
   28    8    5    7        3       0.732   2.197   0.000  -2.929  -0.000   0.000
   17   15   14   13        3       0.000   0.000   0.000  -0.000  -0.000   0.000
   12   11   10    9        3       0.000   0.000   0.000  -0.000  -0.000   0.000
    7    5    3    2        3       0.000   0.000   0.000  -0.000  -0.000   0.000
    7    5    3    4        3       0.000   0.000   0.000  -0.000  -0.000   0.000
    6    5    3    4        3       0.000   0.000   0.000  -0.000  -0.000   0.000
    6    5    3    2        3       0.000   0.000   0.000  -0.000  -0.000   0.000
    5    3    2    1        3       2.784   0.278   0.828  -3.891  -0.000   0.000

[ pairs ]
     1     4    1
     1     5    1
     2     6    1
     2     7    1
     4     6    1
     2     8    1
     4     7    1
     4     8    1
     3     9    1
     6     9    1
     5    10    1
     7     9    1
     8    11    1
     9    12    1
     3    18    1
     9    13    1
     3    19    1
     3    20    1
    10    14    1
     1    23    1
     4    21    1
    12    14    1
    11    15    1
     5    21    1
     4    22    1
     2    24    1
     5    22    1
     2    25    1
     2    26    1
    13    16    1
     6    23    1
     5    24    1
    13    17    1
     7    23    1
     5    25    1
     3    27    1
     8    23    1
     5    26    1
     3    28    1
     6    27    1
     7    27    1
     6    28    1
     5    29    1
     7    28    1
     5    30    1
    10    27    1
    10    28    1
    18    21    1
     8    31    1
    19    21    1
    18    22    1
    11    29    1
     8    32    1
    20    21    1
    19    22    1
    11    30    1
    20    22    1
    12    31    1
    10    33    1
    21    23    1
    13    31    1
    12    32    1
    10    34    1
    22    23    1
    13    32    1
    12    33    1
    12    34    1
    11    35    1
    23    24    1
    11    36    1
    23    25    1
    15    33    1
    23    26    1
    15    34    1
    16    35    1
    14    37    1
    17    35    1
    16    36    1
    14    38    1
    17    36    1
    14    39    1
    17    37    1
    17    38    1
    27    29    1
    17    39    1
    28    29    1
    27    30    1
    28    30    1
    29    31    1
    30    31    1
    29    32    1
    30    32    1
    33    35    1
    34    35    1
    33    36    1
    34    36    1

