LIGPARGEN GENERATED GRO FILE
   46
    1UNK    C00    1   0.100   0.100   0.000
    1UNK    C01    2  -0.052   0.100   0.000
    1UNK    C02    3  -0.114   0.100   0.140
    1UNK    C03    4  -0.087   0.223   0.230
    1UNK    C04    5  -0.130   0.357   0.168
    1UNK    C05    6  -0.280   0.372   0.142
    1UNK    C06    7  -0.314   0.507   0.080
    1UNK    S07    8  -0.175   0.188   0.390
    1UNK    O08    9  -0.114   0.062   0.444
    1UNK    C09   10  -0.114   0.326   0.493
    1UNK    C0A   11  -0.179   0.327   0.634
    1UNK    C0B   12  -0.159   0.197   0.716
    1UNK    C0C   13  -0.014   0.165   0.750
    1UNK    C0D   14  -0.132   0.448   0.717
    1UNK    C0E   15  -0.170   0.581   0.656
    1UNK    O0F   16  -0.268   0.599   0.586
    1UNK    O0G   17  -0.079   0.675   0.693
    1UNK    C0H   18  -0.106   0.806   0.641
    1UNK    H0I   19   0.137   0.085  -0.102
    1UNK    H0J   20   0.139   0.019   0.062
    1UNK    H0K   21   0.140   0.195   0.037
    1UNK    H0M   22  -0.085   0.009  -0.051
    1UNK    H0N   23  -0.089   0.184  -0.059
    1UNK    H0O   24  -0.078   0.010   0.191
    1UNK    H0P   25  -0.222   0.086   0.129
    1UNK    H0Q   26   0.020   0.228   0.254
    1UNK    H0R   27  -0.076   0.371   0.073
    1UNK    H0S   28  -0.097   0.440   0.232
    1UNK    H0T   29  -0.336   0.363   0.236
    1UNK    H0U   30  -0.316   0.293   0.075
    1UNK    H0V   31  -0.280   0.589   0.145
    1UNK    H0W   32  -0.422   0.516   0.068
    1UNK    H0X   33  -0.267   0.518  -0.018
    1UNK    H0Y   34  -0.140   0.418   0.441
    1UNK    H0Z   35  -0.004   0.320   0.499
    1UNK    H10   36  -0.288   0.336   0.619
    1UNK    H11   37  -0.203   0.112   0.664
    1UNK    H12   38  -0.215   0.205   0.810
    1UNK    H13   39   0.055   0.188   0.669
    1UNK    H14   40  -0.004   0.059   0.773
    1UNK    H15   41   0.018   0.221   0.839
    1UNK    H16   42  -0.023   0.444   0.728
    1UNK    H17   43  -0.176   0.444   0.817
    1UNK    H18   44  -0.014   0.865   0.650
    1UNK    H19   45  -0.184   0.853   0.700
    1UNK    H1A   46  -0.134   0.802   0.535
   1.00000   1.00000   1.00000

