LIGPARGEN GENERATED GRO FILE
   39
    1UNK    C00    1   0.100   0.100   0.000
    1UNK    C01    2  -0.052   0.100   0.000
    1UNK    C02    3  -0.115   0.100   0.141
    1UNK    C03    4  -0.078   0.223   0.222
    1UNK    S04    5  -0.294   0.084   0.120
    1UNK    O05    6  -0.343   0.199   0.047
    1UNK    O06    7  -0.316  -0.051   0.069
    1UNK    C07    8  -0.365   0.091   0.285
    1UNK    C08    9  -0.518   0.085   0.284
    1UNK    C09   10  -0.574  -0.046   0.229
    1UNK    C0A   11  -0.725  -0.049   0.230
    1UNK    O0B   12  -0.790   0.008   0.317
    1UNK    C0C   13  -0.790  -0.131   0.120
    1UNK    C0D   14  -0.942  -0.128   0.129
    1UNK    C0E   15  -1.007  -0.210   0.021
    1UNK    C0F   16  -1.158  -0.213   0.021
    1UNK    O0G   17  -0.943  -0.271  -0.064
    1UNK    H0H   18   0.137   0.092  -0.103
    1UNK    H0I   19   0.139   0.015   0.057
    1UNK    H0J   20   0.140   0.193   0.042
    1UNK    H0K   21  -0.086   0.011  -0.055
    1UNK    H0M   22  -0.088   0.187  -0.057
    1UNK    H0N   23  -0.083   0.010   0.195
    1UNK    H0O   24  -0.114   0.315   0.174
    1UNK    H0P   25   0.030   0.231   0.235
    1UNK    H0Q   26  -0.121   0.219   0.322
    1UNK    H0R   27  -0.335   0.187   0.328
    1UNK    H0S   28  -0.322   0.010   0.344
    1UNK    H0T   29  -0.558   0.169   0.226
    1UNK    H0U   30  -0.553   0.099   0.387
    1UNK    H0V   31  -0.537  -0.132   0.286
    1UNK    H0W   32  -0.544  -0.058   0.124
    1UNK    H0X   33  -0.753  -0.234   0.129
    1UNK    H0Y   34  -0.757  -0.091   0.023
    1UNK    H0Z   35  -0.977  -0.024   0.120
    1UNK    H10   36  -0.974  -0.167   0.226
    1UNK    H11   37  -1.197  -0.153   0.103
    1UNK    H12   38  -1.192  -0.316   0.033
    1UNK    H13   39  -1.195  -0.172  -0.074
   1.00000   1.00000   1.00000

