LIGPARGEN GENERATED GRO FILE
   34
    1UNK    C00    1   0.100   0.100   0.000
    1UNK    C01    2  -0.052   0.100   0.000
    1UNK    C02    3  -0.106   0.100   0.143
    1UNK    O03    4  -0.249   0.106   0.143
    1UNK    C04    5  -0.312  -0.008   0.182
    1UNK    O05    6  -0.261  -0.118   0.191
    1UNK    O06    7  -0.438   0.025   0.219
    1UNK    C07    8  -0.509  -0.078   0.290
    1UNK    C08    9  -0.457  -0.089   0.434
    1UNK    C09   10  -0.529  -0.197   0.515
    1UNK    C0A   11  -0.478  -0.209   0.660
    1UNK    C0B   12  -0.332  -0.254   0.665
    1UNK    O0C   13  -0.497  -0.082   0.723
    1UNK    C0D   14  -0.466  -0.081   0.861
    1UNK    H0E   15   0.139   0.100  -0.102
    1UNK    H0F   16   0.139   0.011   0.051
    1UNK    H0G   17   0.139   0.189   0.051
    1UNK    H0H   18  -0.090   0.013  -0.054
    1UNK    H0I   19  -0.089   0.188  -0.054
    1UNK    H0J   20  -0.070   0.189   0.195
    1UNK    H0K   21  -0.068   0.014   0.198
    1UNK    H0M   22  -0.502  -0.174   0.237
    1UNK    H0N   23  -0.615  -0.050   0.291
    1UNK    H0O   24  -0.468   0.009   0.482
    1UNK    H0P   25  -0.350  -0.109   0.432
    1UNK    H0Q   26  -0.519  -0.294   0.464
    1UNK    H0R   27  -0.636  -0.172   0.517
    1UNK    H0S   28  -0.540  -0.284   0.711
    1UNK    H0T   29  -0.264  -0.175   0.631
    1UNK    H0U   30  -0.316  -0.344   0.604
    1UNK    H0V   31  -0.302  -0.278   0.768
    1UNK    H0W   32  -0.505   0.012   0.904
    1UNK    H0X   33  -0.357  -0.081   0.876
    1UNK    H0Y   34  -0.512  -0.165   0.913
   1.00000   1.00000   1.00000

