LIGPARGEN GENERATED GRO FILE
   22
    1UNK    C00    1   0.100   0.100   0.000
    1UNK    C01    2  -0.052   0.100   0.000
    1UNK    Cl0    3  -0.110   0.100   0.170
    1UNK    C03    4  -0.114   0.220  -0.073
    1UNK    C04    5  -0.075   0.226  -0.220
    1UNK    C05    6  -0.121   0.111  -0.314
    1UNK    C06    7  -0.149   0.217  -0.423
    1UNK    C07    8  -0.041   0.241  -0.517
    1UNK    N08    9   0.046   0.260  -0.592
    1UNK    C09   10  -0.160   0.321  -0.308
    1UNK    H0A   11   0.139   0.015   0.057
    1UNK    H0B   12   0.140   0.192   0.044
    1UNK    H0C   13   0.139   0.091  -0.102
    1UNK    H0D   14  -0.088   0.007  -0.044
    1UNK    H0E   15  -0.084   0.314  -0.024
    1UNK    H0F   16  -0.224   0.214  -0.064
    1UNK    H0G   17   0.032   0.247  -0.231
    1UNK    H0H   18  -0.211   0.058  -0.280
    1UNK    H0I   19  -0.044   0.036  -0.337
    1UNK    H0J   20  -0.244   0.201  -0.475
    1UNK    H0K   21  -0.264   0.334  -0.273
    1UNK    H0M   22  -0.117   0.419  -0.326
   1.00000   1.00000   1.00000

