
;
; GENERATED BY LigParGen Server
; Jorgensen Lab @ Yale University 
;
[ atomtypes ]
  opls_818  H818     1.0080     0.000    A    2.50000E-01   1.25520E-01
  opls_824  H824     1.0080     0.000    A    2.50000E-01   1.25520E-01
  opls_805  C805    12.0110     0.000    A    3.50000E-01   2.76144E-01
  opls_836  H836     1.0080     0.000    A    2.50000E-01   1.25520E-01
  opls_810  S810    32.0600     0.000    A    3.55000E-01   1.04600E+00
  opls_828  H828     1.0080     0.000    A    2.50000E-01   1.25520E-01
  opls_807  C807    12.0110     0.000    A    3.45000E-01   3.47272E-01
  opls_802  C802    12.0110     0.000    A    3.50000E-01   2.76144E-01
  opls_827  H827     1.0080     0.000    A    2.50000E-01   1.25520E-01
  opls_801  C801    12.0110     0.000    A    3.50000E-01   2.76144E-01
  opls_822  H822     1.0080     0.000    A    2.50000E-01   1.25520E-01
  opls_803  C803    12.0110     0.000    A    3.50000E-01   2.76144E-01
  opls_808  C808    12.0110     0.000    A    3.45000E-01   3.47272E-01
  opls_825  H825     1.0080     0.000    A    2.50000E-01   1.25520E-01
  opls_826  H826     1.0080     0.000    A    2.50000E-01   1.25520E-01
  opls_830  H830     1.0080     0.000    A    2.50000E-01   1.25520E-01
  opls_821  H821     1.0080     0.000    A    2.50000E-01   1.25520E-01
  opls_812  O812    15.9990     0.000    A    2.96000E-01   7.11280E-01
  opls_820  H820     1.0080     0.000    A    2.50000E-01   1.25520E-01
  opls_837  H837     1.0080     0.000    A    2.50000E-01   1.25520E-01
  opls_813  C813    12.0110     0.000    A    3.55000E-01   2.92880E-01
  opls_829  H829     1.0080     0.000    A    2.50000E-01   1.25520E-01
  opls_834  H834     1.0080     0.000    A    2.50000E-01   1.25520E-01
  opls_831  H831     1.0080     0.000    A    2.50000E-01   1.25520E-01
  opls_832  H832     1.0080     0.000    A    2.50000E-01   1.25520E-01
  opls_816  H816     1.0080     0.000    A    2.50000E-01   1.25520E-01
  opls_800  C800    12.0110     0.000    A    3.50000E-01   2.76144E-01
  opls_806  C806    12.0110     0.000    A    3.50000E-01   2.76144E-01
  opls_823  H823     1.0080     0.000    A    2.50000E-01   1.25520E-01
  opls_815  C815    12.0110     0.000    A    3.45000E-01   3.47272E-01
  opls_835  H835     1.0080     0.000    A    2.50000E-01   1.25520E-01
  opls_819  H819     1.0080     0.000    A    2.50000E-01   1.25520E-01
  opls_804  C804    12.0110     0.000    A    3.50000E-01   2.76144E-01
  opls_833  H833     1.0080     0.000    A    2.50000E-01   1.25520E-01
  opls_817  H817     1.0080     0.000    A    2.50000E-01   1.25520E-01
  opls_809  C809    12.0110     0.000    A    3.45000E-01   3.47272E-01
  opls_814  O814    15.9990     0.000    A    2.96000E-01   8.78640E-01
  opls_811  O811    15.9990     0.000    A    2.96000E-01   7.11280E-01
[ moleculetype ]
; Name               nrexcl
UNK                   3
[ atoms ]
;   nr       type  resnr residue  atom   cgnr     charge       mass  
     1   opls_800      1    UNK   C00      1    -0.2384    12.0110 
     2   opls_801      1    UNK   C01      1    -0.1719    12.0110 
     3   opls_802      1    UNK   C02      1    -0.1091    12.0110 
     4   opls_803      1    UNK   C03      1    -0.1725    12.0110 
     5   opls_804      1    UNK   C04      1    -0.2367    12.0110 
     6   opls_805      1    UNK   C05      1     -0.172    12.0110 
     7   opls_806      1    UNK   C06      1    -0.1624    12.0110 
     8   opls_807      1    UNK   C07      1    -0.1459    12.0110 
     9   opls_808      1    UNK   C08      1    -0.1365    12.0110 
    10   opls_809      1    UNK   C09      1    -0.4568    12.0110 
    11   opls_810      1    UNK   S0A      1     1.2528    32.0600 
    12   opls_811      1    UNK   O0B      1     -0.549    15.9990 
    13   opls_812      1    UNK   O0C      1     -0.549    15.9990 
    14   opls_813      1    UNK   C0D      1     0.0104    12.0110 
    15   opls_814      1    UNK   O0E      1    -0.3056    15.9990 
    16   opls_815      1    UNK   C0F      1    -0.1466    12.0110 
    17   opls_816      1    UNK   H0G      1     0.0825     1.0080 
    18   opls_817      1    UNK   H0H      1     0.0825     1.0080 
    19   opls_818      1    UNK   H0I      1     0.0825     1.0080 
    20   opls_819      1    UNK   H0J      1     0.0869     1.0080 
    21   opls_820      1    UNK   H0K      1     0.0869     1.0080 
    22   opls_821      1    UNK   H0M      1     0.0959     1.0080 
    23   opls_822      1    UNK   H0N      1     0.0877     1.0080 
    24   opls_823      1    UNK   H0O      1     0.0877     1.0080 
    25   opls_824      1    UNK   H0P      1     0.0806     1.0080 
    26   opls_825      1    UNK   H0Q      1     0.0806     1.0080 
    27   opls_826      1    UNK   H0R      1     0.0806     1.0080 
    28   opls_827      1    UNK   H0S      1     0.0899     1.0080 
    29   opls_828      1    UNK   H0T      1     0.0899     1.0080 
    30   opls_829      1    UNK   H0U      1     0.0944     1.0080 
    31   opls_830      1    UNK   H0V      1     0.0944     1.0080 
    32   opls_831      1    UNK   H0W      1     0.1467     1.0080 
    33   opls_832      1    UNK   H0X      2     0.1223     1.0080 
    34   opls_833      1    UNK   H0Y      2     0.1223     1.0080 
    35   opls_834      1    UNK   H0Z      2     0.1864     1.0080 
    36   opls_835      1    UNK   H10      2     0.1748     1.0080 
    37   opls_836      1    UNK   H11      2     0.1168     1.0080 
    38   opls_837      1    UNK   H12      2     0.1168     1.0080 
[ bonds ]
    2     1     1      0.1529 224262.400
    3     2     1      0.1529 224262.400
    4     3     1      0.1529 224262.400
    5     4     1      0.1529 224262.400
    6     3     1      0.1529 224262.400
    7     6     1      0.1529 224262.400
    8     7     1      0.1510 234304.000
    9     8     1      0.1520 217568.000
   10     9     1      0.1520 217568.000
   11    10     1      0.1810 185769.600
   12    11     1      0.1440 585760.000
   13    11     1      0.1440 585760.000
   14    11     1      0.1690 191618.832
   15    14     1      0.1229 476976.000
   16     8     1      0.1520 217568.000
   17     1     1      0.1090 284512.000
   18     1     1      0.1090 284512.000
   19     1     1      0.1090 284512.000
   20     2     1      0.1090 284512.000
   21     2     1      0.1090 284512.000
   22     3     1      0.1090 284512.000
   23     4     1      0.1090 284512.000
   24     4     1      0.1090 284512.000
   25     5     1      0.1090 284512.000
   26     5     1      0.1090 284512.000
   27     5     1      0.1090 284512.000
   28     6     1      0.1090 284512.000
   29     6     1      0.1090 284512.000
   30     7     1      0.1090 284512.000
   31     7     1      0.1090 284512.000
   32     8     1      0.1088 284512.000
   33     9     1      0.1088 284512.000
   34     9     1      0.1088 284512.000
   35    10     1      0.1088 284512.000
   36    14     1      0.1090 284512.000
   37    16     1      0.1088 284512.000
   38    16     1      0.1088 284512.000
   16    10     1      0.1520 217568.000

[ angles ]
;  ai    aj    ak funct            c0            c1            c2            c3 
    1     2     3     1    112.700    488.273
    2     3     4     1    112.700    488.273
    3     4     5     1    112.700    488.273
    2     3     6     1    112.700    488.273
    3     6     7     1    112.700    488.273
    6     7     8     1    112.700    488.273
    7     8     9     1    117.200    313.800
    8     9    10     1     83.000    251.040
    9    10    11     1    128.000    460.240
   10    11    12     1    108.900    619.232
   10    11    13     1    108.900    619.232
   10    11    14     1    104.360    658.311
   11    14    15     1    118.180    584.923
    7     8    16     1    117.200    313.800
    2     1    17     1    110.700    313.800
    2     1    18     1    110.700    313.800
    2     1    19     1    110.700    313.800
    1     2    20     1    110.700    313.800
    1     2    21     1    110.700    313.800
    2     3    22     1    110.700    313.800
    3     4    23     1    110.700    313.800
    3     4    24     1    110.700    313.800
    4     5    25     1    110.700    313.800
    4     5    26     1    110.700    313.800
    4     5    27     1    110.700    313.800
    3     6    28     1    110.700    313.800
    3     6    29     1    110.700    313.800
    6     7    30     1    110.700    313.800
    6     7    31     1    110.700    313.800
    7     8    32     1    114.300    292.880
    8     9    33     1    117.200    313.800
    8     9    34     1    117.200    313.800
    9    10    35     1    117.200    313.800
   11    14    36     1    118.180    584.923
    8    16    37     1    117.200    313.800
    8    16    38     1    117.200    313.800
    9     8    32     1    117.200    313.800
    6     3    22     1    110.700    313.800
   17     1    19     1    107.800    276.144
    3     2    20     1    110.700    313.800
   26     5    27     1    107.800    276.144
   23     4    24     1    107.800    276.144
   11    10    35     1    108.000    313.800
   20     2    21     1    107.800    276.144
   25     5    27     1    107.800    276.144
    3     2    21     1    110.700    313.800
   12    11    14     1    104.360    658.311
   28     6    29     1    107.800    276.144
   16     8    32     1    117.200    313.800
   33     9    34     1    114.300    292.880
    5     4    24     1    110.700    313.800
   15    14    36     1    123.000    292.880
    4     3    22     1    110.700    313.800
    7     6    28     1    110.700    313.800
   10     9    34     1    117.200    313.800
   11    10    16     1    128.000    460.240
   16    10    35     1    117.200    313.800
   17     1    18     1    107.800    276.144
    5     4    23     1    110.700    313.800
   18     1    19     1    107.800    276.144
    7     6    29     1    110.700    313.800
   25     5    26     1    107.800    276.144
    8     7    31     1    110.700    313.800
    4     3     6     1    112.700    488.273
   30     7    31     1    107.800    276.144
   12    11    13     1    119.000    870.272
   10     9    33     1    117.200    313.800
    8    16    10     1     83.000    251.040
   10    16    38     1    117.200    313.800
   13    11    14     1    104.360    658.311
    9     8    16     1     83.000    251.040
   10    16    37     1    117.200    313.800
    8     7    30     1    110.700    313.800
    9    10    16     1     83.000    251.040
   37    16    38     1    114.300    292.880

[ dihedrals ]
; IMPROPER DIHEDRAL ANGLES 
;  ai    aj    ak    al funct            c0            c1            c2            c3            c4            c5
    36    14    11    15    4        180.000     43.932     2  

[ dihedrals ]
; PROPER DIHEDRAL ANGLES
;  ai    aj    ak    al funct            c0            c1            c2            c3            c4            c5
   14   11   10    9        3       0.000   0.000   0.000  -0.000  -0.000   0.000
    4    3    2    1        3       2.301  -1.464   0.837  -1.674  -0.000   0.000
    5    4    3    2        3       2.301  -1.464   0.837  -1.674  -0.000   0.000
    7    6    3    2        3       2.301  -1.464   0.837  -1.674  -0.000   0.000
    6    3    4    5        3       2.301  -1.464   0.837  -1.674  -0.000   0.000
    7    6    3    4        3       2.301  -1.464   0.837  -1.674  -0.000   0.000
    6    3    2    1        3       2.301  -1.464   0.837  -1.674  -0.000   0.000
    8    7    6    3        3       2.301  -1.464   0.837  -1.674  -0.000   0.000
    9    8    7    6        3       0.000   0.000   0.000  -0.000  -0.000   0.000
   16    8    7    6        3       0.000   0.000   0.000  -0.000  -0.000   0.000
   10   16    8    7        3       0.000   0.000   0.000  -0.000  -0.000   0.000
   10    9    8    7        3       0.000   0.000   0.000  -0.000  -0.000   0.000
   16   10   11   14        3       0.000   0.000   0.000  -0.000  -0.000   0.000
   16   10   11   12        3       0.000   0.000   0.000  -0.000  -0.000   0.000
   16   10   11   13        3       0.000   0.000   0.000  -0.000  -0.000   0.000
   36   14   11   10        3       0.732   2.197   0.000  -2.929  -0.000   0.000
   36   14   11   12        3       0.732   2.197   0.000  -2.929  -0.000   0.000
   36   14   11   13        3       0.732   2.197   0.000  -2.929  -0.000   0.000
   18    1    2    3        3       0.628   1.883   0.000  -2.510  -0.000   0.000
   30    7    6    3        3       0.628   1.883   0.000  -2.510  -0.000   0.000
   17    1    2    3        3       0.628   1.883   0.000  -2.510  -0.000   0.000
   28    6    3    2        3       0.628   1.883   0.000  -2.510  -0.000   0.000
   24    4    3    2        3       0.628   1.883   0.000  -2.510  -0.000   0.000
   19    1    2    3        3       0.628   1.883   0.000  -2.510  -0.000   0.000
   26    5    4    3        3       0.628   1.883   0.000  -2.510  -0.000   0.000
   21    2    3    6        3       0.628   1.883   0.000  -2.510  -0.000   0.000
   29    6    3    4        3       0.628   1.883   0.000  -2.510  -0.000   0.000
   23    4    3    6        3       0.628   1.883   0.000  -2.510  -0.000   0.000
   22    3    6    7        3       0.628   1.883   0.000  -2.510  -0.000   0.000
   23    4    3    2        3       0.628   1.883   0.000  -2.510  -0.000   0.000
   28    6    3    4        3       0.628   1.883   0.000  -2.510  -0.000   0.000
   29    6    3    2        3       0.628   1.883   0.000  -2.510  -0.000   0.000
   22    3    4    5        3       0.628   1.883   0.000  -2.510  -0.000   0.000
   20    2    3    4        3       0.628   1.883   0.000  -2.510  -0.000   0.000
   25    5    4    3        3       0.628   1.883   0.000  -2.510  -0.000   0.000
   21    2    3    4        3       0.628   1.883   0.000  -2.510  -0.000   0.000
   22    3    2    1        3       0.628   1.883   0.000  -2.510  -0.000   0.000
   24    4    3    6        3       0.628   1.883   0.000  -2.510  -0.000   0.000
   31    7    6    3        3       0.628   1.883   0.000  -2.510  -0.000   0.000
   27    5    4    3        3       0.628   1.883   0.000  -2.510  -0.000   0.000
   20    2    3    6        3       0.628   1.883   0.000  -2.510  -0.000   0.000
   28    6    7    8        3       0.628   1.883   0.000  -2.510  -0.000   0.000
   29    6    7    8        3       0.628   1.883   0.000  -2.510  -0.000   0.000
   24    4    3   22        3       0.628   1.883   0.000  -2.510  -0.000   0.000
   25    5    4   24        3       0.628   1.883   0.000  -2.510  -0.000   0.000
   27    5    4   23        3       0.628   1.883   0.000  -2.510  -0.000   0.000
   26    5    4   23        3       0.628   1.883   0.000  -2.510  -0.000   0.000
   25    5    4   23        3       0.628   1.883   0.000  -2.510  -0.000   0.000
   23    4    3   22        3       0.628   1.883   0.000  -2.510  -0.000   0.000
   27    5    4   24        3       0.628   1.883   0.000  -2.510  -0.000   0.000
   21    2    1   19        3       0.628   1.883   0.000  -2.510  -0.000   0.000
   20    2    1   17        3       0.628   1.883   0.000  -2.510  -0.000   0.000
   22    3    2   20        3       0.628   1.883   0.000  -2.510  -0.000   0.000
   31    7    6   29        3       0.628   1.883   0.000  -2.510  -0.000   0.000
   21    2    1   18        3       0.628   1.883   0.000  -2.510  -0.000   0.000
   28    6    3   22        3       0.628   1.883   0.000  -2.510  -0.000   0.000
   20    2    1   19        3       0.628   1.883   0.000  -2.510  -0.000   0.000
   26    5    4   24        3       0.628   1.883   0.000  -2.510  -0.000   0.000
   31    7    6   28        3       0.628   1.883   0.000  -2.510  -0.000   0.000
   21    2    1   17        3       0.628   1.883   0.000  -2.510  -0.000   0.000
   20    2    1   18        3       0.628   1.883   0.000  -2.510  -0.000   0.000
   22    3    2   21        3       0.628   1.883   0.000  -2.510  -0.000   0.000
   30    7    6   28        3       0.628   1.883   0.000  -2.510  -0.000   0.000
   29    6    3   22        3       0.628   1.883   0.000  -2.510  -0.000   0.000
   30    7    6   29        3       0.628   1.883   0.000  -2.510  -0.000   0.000
   31    7    8    9        3       0.628   1.883   0.000  -2.510  -0.000   0.000
   30    7    8   16        3       0.628   1.883   0.000  -2.510  -0.000   0.000
   31    7    8   16        3       0.628   1.883   0.000  -2.510  -0.000   0.000
   30    7    8    9        3       0.628   1.883   0.000  -2.510  -0.000   0.000
   32    8    7    6        3       0.628   1.883   0.000  -2.510  -0.000   0.000
   32    8    7   30        3       0.628   1.883   0.000  -2.510  -0.000   0.000
   32    8    7   31        3       0.628   1.883   0.000  -2.510  -0.000   0.000
   37   16    8    7        3       0.000   0.000   0.000  -0.000  -0.000   0.000
   34    9    8    7        3       0.000   0.000   0.000  -0.000  -0.000   0.000
   38   16    8    7        3       0.000   0.000   0.000  -0.000  -0.000   0.000
   33    9    8    7        3       0.000   0.000   0.000  -0.000  -0.000   0.000
   35   10   16    8        3       0.000   0.000   0.000  -0.000  -0.000   0.000
   37   16    8    9        3       0.000   0.000   0.000  -0.000  -0.000   0.000
   35   10    9    8        3       0.000   0.000   0.000  -0.000  -0.000   0.000
   32    8   16   10        3       0.000   0.000   0.000  -0.000  -0.000   0.000
   34    9    8   16        3       0.000   0.000   0.000  -0.000  -0.000   0.000
   33    9    8   16        3       0.000   0.000   0.000  -0.000  -0.000   0.000
   38   16    8    9        3       0.000   0.000   0.000  -0.000  -0.000   0.000
   34    9   10   16        3       0.000   0.000   0.000  -0.000  -0.000   0.000
   32    8    9   10        3       0.000   0.000   0.000  -0.000  -0.000   0.000
   38   16   10    9        3       0.000   0.000   0.000  -0.000  -0.000   0.000
   37   16   10    9        3       0.000   0.000   0.000  -0.000  -0.000   0.000
   33    9   10   16        3       0.000   0.000   0.000  -0.000  -0.000   0.000
   33    9    8   32        3       0.000   0.000   0.000  -0.000  -0.000   0.000
   35   10    9   34        3       0.000   0.000   0.000  -0.000  -0.000   0.000
   35   10    9   33        3       0.000   0.000   0.000  -0.000  -0.000   0.000
   37   16   10   35        3       0.000   0.000   0.000  -0.000  -0.000   0.000
   37   16    8   32        3       0.000   0.000   0.000  -0.000  -0.000   0.000
   34    9    8   32        3       0.000   0.000   0.000  -0.000  -0.000   0.000
   38   16   10   35        3       0.000   0.000   0.000  -0.000  -0.000   0.000
   38   16    8   32        3       0.000   0.000   0.000  -0.000  -0.000   0.000
   37   16   10   11        3       0.000   0.000   0.000  -0.000  -0.000   0.000
   38   16   10   11        3       0.000   0.000   0.000  -0.000  -0.000   0.000
   34    9   10   11        3       0.000   0.000   0.000  -0.000  -0.000   0.000
   33    9   10   11        3       0.000   0.000   0.000  -0.000  -0.000   0.000
   35   10   11   14        3       0.732   2.197   0.000  -2.929  -0.000   0.000
   35   10   11   12        3       0.732   2.197   0.000  -2.929  -0.000   0.000
   35   10   11   13        3       0.732   2.197   0.000  -2.929  -0.000   0.000
   15   14   11   10        3       0.000   0.000   0.000  -0.000  -0.000   0.000
   15   14   11   12        3       0.000   0.000   0.000  -0.000  -0.000   0.000
   15   14   11   13        3       0.000   0.000   0.000  -0.000  -0.000   0.000
   13   11   10    9        3       0.000   0.000   0.000  -0.000  -0.000   0.000
   12   11   10    9        3       0.000   0.000   0.000  -0.000  -0.000   0.000
   11   10   16    8        3       0.000   0.000   0.000  -0.000  -0.000   0.000
   11   10    9    8        3       0.000   0.000   0.000  -0.000  -0.000   0.000

[ pairs ]
     1     4    1
     2     5    1
     1     6    1
     2     7    1
     5     6    1
     4     7    1
     3     8    1
     6     9    1
     7    10    1
     8    11    1
     3    17    1
     9    12    1
     3    18    1
     9    13    1
     6    16    1
     3    19    1
     9    14    1
     1    22    1
     4    20    1
    10    15    1
     4    21    1
     2    23    1
     6    20    1
     2    24    1
    12    15    1
     6    21    1
     5    22    1
    13    15    1
    12    16    1
     3    25    1
    13    16    1
     7    22    1
     6    23    1
     3    26    1
    14    16    1
     6    24    1
     3    27    1
     2    28    1
     2    29    1
     4    28    1
     4    29    1
     3    30    1
     3    31    1
     8    28    1
    17    20    1
     8    29    1
    18    20    1
    17    21    1
     6    32    1
    19    20    1
    18    21    1
     9    30    1
    19    21    1
     9    31    1
     7    33    1
     7    34    1
    20    22    1
    10    32    1
    21    22    1
     8    35    1
    11    33    1
     7    37    1
    22    23    1
    11    34    1
     7    38    1
    22    24    1
    16    30    1
    10    36    1
     9    37    1
    16    31    1
    12    35    1
     9    38    1
    23    25    1
    13    35    1
    12    36    1
    11    37    1
    24    25    1
    23    26    1
    16    33    1
    14    35    1
    13    36    1
    11    38    1
    24    26    1
    23    27    1
    22    28    1
    16    34    1
    24    27    1
    22    29    1
    28    30    1
    29    30    1
    28    31    1
    29    31    1
    30    32    1
    31    32    1
    32    33    1
    32    34    1
    33    35    1
    34    35    1
    32    37    1
    32    38    1
    35    37    1
    35    38    1

