LIGPARGEN GENERATED GRO FILE
   38
    1UNK    C00    1   0.100   0.100   0.000
    1UNK    C01    2  -0.052   0.100   0.000
    1UNK    C02    3  -0.115   0.100   0.141
    1UNK    C03    4  -0.067   0.216   0.231
    1UNK    C04    5  -0.107   0.356   0.184
    1UNK    C05    6  -0.270   0.097   0.133
    1UNK    C06    7  -0.331  -0.025   0.062
    1UNK    C07    8  -0.290  -0.156   0.128
    1UNK    C08    9  -0.334  -0.180   0.274
    1UNK    C09   10  -0.357  -0.329   0.237
    1UNK    S0A   11  -0.219  -0.437   0.272
    1UNK    O0B   12  -0.101  -0.399   0.196
    1UNK    O0C   13  -0.210  -0.462   0.415
    1UNK    C0D   14  -0.272  -0.590   0.199
    1UNK    O0E   15  -0.385  -0.633   0.218
    1UNK    C0F   16  -0.371  -0.282   0.090
    1UNK    H0G   17   0.137   0.078  -0.101
    1UNK    H0H   18   0.140   0.024   0.068
    1UNK    H0I   19   0.140   0.198   0.029
    1UNK    H0J   20  -0.084   0.010  -0.053
    1UNK    H0K   21  -0.089   0.185  -0.058
    1UNK    H0M   22  -0.081   0.009   0.192
    1UNK    H0N   23   0.042   0.212   0.240
    1UNK    H0O   24  -0.106   0.201   0.332
    1UNK    H0P   25  -0.083   0.372   0.079
    1UNK    H0Q   26  -0.052   0.431   0.243
    1UNK    H0R   27  -0.213   0.373   0.200
    1UNK    H0S   28  -0.306   0.187   0.082
    1UNK    H0T   29  -0.310   0.101   0.235
    1UNK    H0U   30  -0.302  -0.026  -0.044
    1UNK    H0V   31  -0.440  -0.014   0.064
    1UNK    H0W   32  -0.182  -0.173   0.114
    1UNK    H0X   33  -0.427  -0.128   0.302
    1UNK    H0Y   34  -0.259  -0.160   0.350
    1UNK    H0Z   35  -0.449  -0.370   0.279
    1UNK    H10   36  -0.199  -0.640   0.133
    1UNK    H11   37  -0.475  -0.262   0.061
    1UNK    H12   38  -0.326  -0.347   0.014
   1.00000   1.00000   1.00000

