LIGPARGEN GENERATED GRO FILE
   50
    1UNK    C00    1   0.100   0.100   0.000
    1UNK    O01    2  -0.042   0.100   0.000
    1UNK    C02    3  -0.095   0.100   0.133
    1UNK    C03    4  -0.247   0.100   0.126
    1UNK    O04    5  -0.301   0.100   0.258
    1UNK    C05    6  -0.444   0.100   0.257
    1UNK    C06    7  -0.492   0.100   0.402
    1UNK    O07    8  -0.634   0.100   0.409
    1UNK    C08    9  -0.687   0.090   0.535
    1UNK    C09   10  -0.614   0.093   0.654
    1UNK    C0A   11  -0.678   0.082   0.779
    1UNK    C0B   12  -0.817   0.069   0.787
    1UNK    C0C   13  -0.887   0.067   0.668
    1UNK    C0D   14  -0.825   0.077   0.546
    1UNK    O0E   15  -0.914   0.072   0.443
    1UNK    N0F   16  -1.045   0.058   0.510
    1UNK    O0G   17  -1.123   0.179   0.483
    1UNK    C0H   18  -1.166   0.175   0.348
    1UNK    C0I   19  -1.261   0.292   0.324
    1UNK    O0J   20  -1.290   0.300   0.184
    1UNK    C0K   21  -1.379   0.408   0.155
    1UNK    C0M   22  -1.406   0.413   0.005
    1UNK    O0N   23  -1.495   0.521  -0.023
    1UNK    C0O   24  -1.524   0.529  -0.162
    1UNK    O0P   25  -1.022   0.055   0.656
    1UNK    H0Q   26   0.134   0.100  -0.104
    1UNK    H0R   27   0.138   0.010   0.049
    1UNK    H0S   28   0.138   0.190   0.050
    1UNK    H0T   29  -0.060   0.189   0.187
    1UNK    H0U   30  -0.060   0.011   0.187
    1UNK    H0V   31  -0.282   0.011   0.071
    1UNK    H0W   32  -0.282   0.188   0.071
    1UNK    H0X   33  -0.481   0.011   0.205
    1UNK    H0Y   34  -0.482   0.188   0.204
    1UNK    H0Z   35  -0.452   0.190   0.451
    1UNK    H10   36  -0.451   0.011   0.452
    1UNK    H11   37  -0.506   0.103   0.654
    1UNK    H12   38  -0.618   0.084   0.870
    1UNK    H13   39  -0.867   0.061   0.882
    1UNK    H14   40  -1.217   0.081   0.325
    1UNK    H15   41  -1.080   0.185   0.281
    1UNK    H16   42  -1.215   0.385   0.358
    1UNK    H17   43  -1.354   0.277   0.380
    1UNK    H18   44  -1.335   0.503   0.187
    1UNK    H19   45  -1.473   0.395   0.210
    1UNK    H1A   46  -1.451   0.318  -0.027
    1UNK    H1B   47  -1.312   0.426  -0.049
    1UNK    H1C   48  -1.593   0.613  -0.177
    1UNK    H1D   49  -1.573   0.437  -0.196
    1UNK    H1E   50  -1.433   0.547  -0.219
   1.00000   1.00000   1.00000

