LIGPARGEN GENERATED GRO FILE
   30
    1UNK    C00    1   0.100   0.100   0.000
    1UNK    C01    2  -0.052   0.100   0.000
    1UNK    C02    3  -0.106   0.100   0.143
    1UNK    C03    4  -0.259   0.100   0.146
    1UNK    C04    5  -0.316   0.094   0.289
    1UNK    C05    6  -0.278   0.217   0.371
    1UNK    O06    7  -0.460   0.091   0.285
    1UNK    C07    8  -0.516  -0.027   0.248
    1UNK    O08    9  -0.455  -0.130   0.223
    1UNK    O09   10  -0.649  -0.007   0.237
    1UNK    C0A   11  -0.719  -0.108   0.164
    1UNK    C0B   12  -0.715  -0.072   0.016
    1UNK    H0C   13   0.138   0.100  -0.102
    1UNK    H0D   14   0.139   0.011   0.051
    1UNK    H0E   15   0.139   0.189   0.051
    1UNK    H0F   16  -0.088   0.012  -0.054
    1UNK    H0G   17  -0.088   0.189  -0.054
    1UNK    H0H   18  -0.068   0.188   0.195
    1UNK    H0I   19  -0.069   0.012   0.196
    1UNK    H0J   20  -0.296   0.015   0.088
    1UNK    H0K   21  -0.298   0.189   0.095
    1UNK    H0M   22  -0.279   0.005   0.342
    1UNK    H0N   23  -0.310   0.309   0.320
    1UNK    H0O   24  -0.171   0.223   0.390
    1UNK    H0P   25  -0.330   0.216   0.468
    1UNK    H0Q   26  -0.822  -0.110   0.199
    1UNK    H0R   27  -0.677  -0.208   0.181
    1UNK    H0S   28  -0.759   0.028   0.001
    1UNK    H0T   29  -0.770  -0.144  -0.044
    1UNK    H0U   30  -0.612  -0.066  -0.020
   1.00000   1.00000   1.00000

