
;
; GENERATED BY LigParGen Server
; Jorgensen Lab @ Yale University 
;
[ atomtypes ]
  opls_818  H818     1.0080     0.000    A    2.50000E-01   1.25520E-01
  opls_824  H824     1.0080     0.000    A    2.50000E-01   1.25520E-01
  opls_809  O809    15.9990     0.000    A    2.90000E-01   5.85760E-01
  opls_828  H828     1.0080     0.000    A    2.50000E-01   1.25520E-01
  opls_813  H813     1.0080     0.000    A    2.50000E-01   1.25520E-01
  opls_806  O806    15.9990     0.000    A    2.90000E-01   5.85760E-01
  opls_802  C802    12.0110     0.000    A    3.50000E-01   2.76144E-01
  opls_815  H815     1.0080     0.000    A    2.50000E-01   1.25520E-01
  opls_801  C801    12.0110     0.000    A    3.50000E-01   2.76144E-01
  opls_822  H822     1.0080     0.000    A    2.50000E-01   1.25520E-01
  opls_803  C803    12.0110     0.000    A    3.50000E-01   2.76144E-01
  opls_825  H825     1.0080     0.000    A    2.50000E-01   1.25520E-01
  opls_814  H814     1.0080     0.000    A    2.50000E-01   1.25520E-01
  opls_810  C810    12.0110     0.000    A    3.50000E-01   2.76144E-01
  opls_820  H820     1.0080     0.000    A    2.50000E-01   1.25520E-01
  opls_821  H821     1.0080     0.000    A    2.50000E-01   1.25520E-01
  opls_816  H816     1.0080     0.000    A    2.50000E-01   1.25520E-01
  opls_800  C800    12.0110     0.000    A    3.50000E-01   2.76144E-01
  opls_808  O808    15.9990     0.000    A    2.96000E-01   8.78640E-01
  opls_811  C811    12.0110     0.000    A    3.50000E-01   2.76144E-01
  opls_823  H823     1.0080     0.000    A    2.50000E-01   1.25520E-01
  opls_805  C805    12.0110     0.000    A    3.50000E-01   2.76144E-01
  opls_826  H826     1.0080     0.000    A    2.50000E-01   1.25520E-01
  opls_819  H819     1.0080     0.000    A    2.50000E-01   1.25520E-01
  opls_804  C804    12.0110     0.000    A    3.50000E-01   2.76144E-01
  opls_827  H827     1.0080     0.000    A    2.50000E-01   1.25520E-01
  opls_807  C807    12.0110     0.000    A    3.55000E-01   2.92880E-01
  opls_817  H817     1.0080     0.000    A    2.50000E-01   1.25520E-01
  opls_812  H812     1.0080     0.000    A    2.50000E-01   1.25520E-01
  opls_829  H829     1.0080     0.000    A    2.50000E-01   1.25520E-01
[ moleculetype ]
; Name               nrexcl
UNK                   3
[ atoms ]
;   nr       type  resnr residue  atom   cgnr     charge       mass  
     1   opls_800      1    UNK   C00      1    -0.2394    12.0110 
     2   opls_801      1    UNK   C01      1    -0.1782    12.0110 
     3   opls_802      1    UNK   C02      1    -0.1711    12.0110 
     4   opls_803      1    UNK   C03      1    -0.2106    12.0110 
     5   opls_804      1    UNK   C04      1     0.0864    12.0110 
     6   opls_805      1    UNK   C05      1    -0.2465    12.0110 
     7   opls_806      1    UNK   O06      1    -0.3307    15.9990 
     8   opls_807      1    UNK   C07      1      0.576    12.0110 
     9   opls_808      1    UNK   O08      1    -0.4989    15.9990 
    10   opls_809      1    UNK   O09      1    -0.3249    15.9990 
    11   opls_810      1    UNK   C0A      1     0.0159    12.0110 
    12   opls_811      1    UNK   C0B      1    -0.2801    12.0110 
    13   opls_812      1    UNK   H0C      1     0.0821     1.0080 
    14   opls_813      1    UNK   H0D      1     0.0821     1.0080 
    15   opls_814      1    UNK   H0E      1     0.0821     1.0080 
    16   opls_815      1    UNK   H0F      1     0.0914     1.0080 
    17   opls_816      1    UNK   H0G      1     0.0914     1.0080 
    18   opls_817      1    UNK   H0H      1     0.0918     1.0080 
    19   opls_818      1    UNK   H0I      1     0.0918     1.0080 
    20   opls_819      1    UNK   H0J      1     0.1072     1.0080 
    21   opls_820      1    UNK   H0K      1     0.1072     1.0080 
    22   opls_821      1    UNK   H0M      1     0.1221     1.0080 
    23   opls_822      1    UNK   H0N      1     0.1015     1.0080 
    24   opls_823      1    UNK   H0O      1     0.1015     1.0080 
    25   opls_824      1    UNK   H0P      1     0.1015     1.0080 
    26   opls_825      1    UNK   H0Q      1      0.124     1.0080 
    27   opls_826      1    UNK   H0R      1      0.124     1.0080 
    28   opls_827      1    UNK   H0S      1     0.1002     1.0080 
    29   opls_828      1    UNK   H0T      1     0.1002     1.0080 
    30   opls_829      1    UNK   H0U      1     0.1002     1.0080 
[ bonds ]
    2     1     1      0.1529 224262.400
    3     2     1      0.1529 224262.400
    4     3     1      0.1529 224262.400
    5     4     1      0.1529 224262.400
    6     5     1      0.1529 224262.400
    7     5     1      0.1410 267776.000
    8     7     1      0.1327 179075.200
    9     8     1      0.1229 476976.000
   10     8     1      0.1327 179075.200
   11    10     1      0.1410 267776.000
   12    11     1      0.1529 224262.400
   13     1     1      0.1090 284512.000
   14     1     1      0.1090 284512.000
   15     1     1      0.1090 284512.000
   16     2     1      0.1090 284512.000
   17     2     1      0.1090 284512.000
   18     3     1      0.1090 284512.000
   19     3     1      0.1090 284512.000
   20     4     1      0.1090 284512.000
   21     4     1      0.1090 284512.000
   22     5     1      0.1090 284512.000
   23     6     1      0.1090 284512.000
   24     6     1      0.1090 284512.000
   25     6     1      0.1090 284512.000
   26    11     1      0.1090 284512.000
   27    11     1      0.1090 284512.000
   28    12     1      0.1090 284512.000
   29    12     1      0.1090 284512.000
   30    12     1      0.1090 284512.000

[ angles ]
;  ai    aj    ak funct            c0            c1            c2            c3 
    1     2     3     1    112.700    488.273
    2     3     4     1    112.700    488.273
    3     4     5     1    112.700    488.273
    4     5     6     1    112.700    488.273
    4     5     7     1    109.500    418.400
    5     7     8     1    116.900    694.544
    7     8     9     1    123.400    694.544
    7     8    10     1    118.180    584.923
    8    10    11     1    116.900    694.544
   10    11    12     1    109.500    418.400
    2     1    13     1    110.700    313.800
    2     1    14     1    110.700    313.800
    2     1    15     1    110.700    313.800
    1     2    16     1    110.700    313.800
    1     2    17     1    110.700    313.800
    2     3    18     1    110.700    313.800
    2     3    19     1    110.700    313.800
    3     4    20     1    110.700    313.800
    3     4    21     1    110.700    313.800
    4     5    22     1    110.700    313.800
    5     6    23     1    110.700    313.800
    5     6    24     1    110.700    313.800
    5     6    25     1    110.700    313.800
   10    11    26     1    109.500    292.880
   10    11    27     1    109.500    292.880
   11    12    28     1    110.700    313.800
   11    12    29     1    110.700    313.800
   11    12    30     1    110.700    313.800
   13     1    14     1    107.800    276.144
   12    11    27     1    110.700    313.800
   28    12    29     1    107.800    276.144
   29    12    30     1    107.800    276.144
    6     5    22     1    110.700    313.800
    3     2    17     1    110.700    313.800
    4     3    19     1    110.700    313.800
    3     2    16     1    110.700    313.800
   18     3    19     1    107.800    276.144
    4     3    18     1    110.700    313.800
   16     2    17     1    107.800    276.144
    6     5     7     1    109.500    418.400
   14     1    15     1    107.800    276.144
   23     6    24     1    107.800    276.144
    5     4    20     1    110.700    313.800
   28    12    30     1    107.800    276.144
   24     6    25     1    107.800    276.144
   26    11    27     1    107.800    276.144
   23     6    25     1    107.800    276.144
    5     4    21     1    110.700    313.800
   12    11    26     1    110.700    313.800
    7     5    22     1    109.500    292.880
   13     1    15     1    107.800    276.144
    9     8    10     1    123.400    694.544
   20     4    21     1    107.800    276.144

[ dihedrals ]
; IMPROPER DIHEDRAL ANGLES 
;  ai    aj    ak    al funct            c0            c1            c2            c3            c4            c5
    10     8     7     9    4        180.000     43.932     2  

[ dihedrals ]
; PROPER DIHEDRAL ANGLES
;  ai    aj    ak    al funct            c0            c1            c2            c3            c4            c5
    8    7    5    6        3      -2.197   5.201   0.527  -3.531  -0.000   0.000
    8    7    5    4        3      -2.197   5.201   0.527  -3.531  -0.000   0.000
    4    3    2    1        3       2.301  -1.464   0.837  -1.674  -0.000   0.000
    5    4    3    2        3       2.301  -1.464   0.837  -1.674  -0.000   0.000
    6    5    4    3        3       2.301  -1.464   0.837  -1.674  -0.000   0.000
   12   11   10    8        3      -2.197   5.201   0.527  -3.531  -0.000   0.000
   11   10    8    9        3      21.439   0.000  -21.439  -0.000  -0.000   0.000
   11   10    8    7        3      31.206  -9.768  -21.439  -0.000  -0.000   0.000
   15    1    2    3        3       0.628   1.883   0.000  -2.510  -0.000   0.000
   20    4    3    2        3       0.628   1.883   0.000  -2.510  -0.000   0.000
   25    6    5    4        3       0.628   1.883   0.000  -2.510  -0.000   0.000
   21    4    5    6        3       0.628   1.883   0.000  -2.510  -0.000   0.000
   24    6    5    4        3       0.628   1.883   0.000  -2.510  -0.000   0.000
   17    2    3    4        3       0.628   1.883   0.000  -2.510  -0.000   0.000
   18    3    4    5        3       0.628   1.883   0.000  -2.510  -0.000   0.000
   20    4    5    6        3       0.628   1.883   0.000  -2.510  -0.000   0.000
   19    3    4    5        3       0.628   1.883   0.000  -2.510  -0.000   0.000
   19    3    2    1        3       0.628   1.883   0.000  -2.510  -0.000   0.000
   18    3    2    1        3       0.628   1.883   0.000  -2.510  -0.000   0.000
   22    5    4    3        3       0.628   1.883   0.000  -2.510  -0.000   0.000
   14    1    2    3        3       0.628   1.883   0.000  -2.510  -0.000   0.000
   16    2    3    4        3       0.628   1.883   0.000  -2.510  -0.000   0.000
   21    4    3    2        3       0.628   1.883   0.000  -2.510  -0.000   0.000
   23    6    5    4        3       0.628   1.883   0.000  -2.510  -0.000   0.000
   13    1    2    3        3       0.628   1.883   0.000  -2.510  -0.000   0.000
   30   12   11   27        3       0.628   1.883   0.000  -2.510  -0.000   0.000
   19    3    2   16        3       0.628   1.883   0.000  -2.510  -0.000   0.000
   21    4    3   18        3       0.628   1.883   0.000  -2.510  -0.000   0.000
   21    4    3   19        3       0.628   1.883   0.000  -2.510  -0.000   0.000
   20    4    3   18        3       0.628   1.883   0.000  -2.510  -0.000   0.000
   20    4    3   19        3       0.628   1.883   0.000  -2.510  -0.000   0.000
   29   12   11   27        3       0.628   1.883   0.000  -2.510  -0.000   0.000
   16    2    1   13        3       0.628   1.883   0.000  -2.510  -0.000   0.000
   17    2    1   15        3       0.628   1.883   0.000  -2.510  -0.000   0.000
   30   12   11   26        3       0.628   1.883   0.000  -2.510  -0.000   0.000
   18    3    2   16        3       0.628   1.883   0.000  -2.510  -0.000   0.000
   28   12   11   27        3       0.628   1.883   0.000  -2.510  -0.000   0.000
   19    3    2   17        3       0.628   1.883   0.000  -2.510  -0.000   0.000
   28   12   11   26        3       0.628   1.883   0.000  -2.510  -0.000   0.000
   17    2    1   13        3       0.628   1.883   0.000  -2.510  -0.000   0.000
   22    5    4   21        3       0.628   1.883   0.000  -2.510  -0.000   0.000
   16    2    1   14        3       0.628   1.883   0.000  -2.510  -0.000   0.000
   23    6    5   22        3       0.628   1.883   0.000  -2.510  -0.000   0.000
   17    2    1   14        3       0.628   1.883   0.000  -2.510  -0.000   0.000
   24    6    5   22        3       0.628   1.883   0.000  -2.510  -0.000   0.000
   25    6    5   22        3       0.628   1.883   0.000  -2.510  -0.000   0.000
   22    5    4   20        3       0.628   1.883   0.000  -2.510  -0.000   0.000
   16    2    1   15        3       0.628   1.883   0.000  -2.510  -0.000   0.000
   29   12   11   26        3       0.628   1.883   0.000  -2.510  -0.000   0.000
   18    3    2   17        3       0.628   1.883   0.000  -2.510  -0.000   0.000
   21    4    5    7        3       0.979   2.937   0.000  -3.916  -0.000   0.000
   23    6    5    7        3       0.979   2.937   0.000  -3.916  -0.000   0.000
   29   12   11   10        3       0.979   2.937   0.000  -3.916  -0.000   0.000
   20    4    5    7        3       0.979   2.937   0.000  -3.916  -0.000   0.000
   30   12   11   10        3       0.979   2.937   0.000  -3.916  -0.000   0.000
   24    6    5    7        3       0.979   2.937   0.000  -3.916  -0.000   0.000
   25    6    5    7        3       0.979   2.937   0.000  -3.916  -0.000   0.000
   28   12   11   10        3       0.979   2.937   0.000  -3.916  -0.000   0.000
   27   11   10    8        3       0.414   1.243   0.000  -1.657  -0.000   0.000
   26   11   10    8        3       0.414   1.243   0.000  -1.657  -0.000   0.000
   22    5    7    8        3       0.414   1.243   0.000  -1.657  -0.000   0.000
    9    8    7    5        3      21.439   0.000  -21.439  -0.000  -0.000   0.000
   10    8    7    5        3      31.206  -9.768  -21.439  -0.000  -0.000   0.000
    7    5    4    3        3       2.874   0.582   2.092  -5.548  -0.000   0.000

[ pairs ]
     1     4    1
     2     5    1
     3     6    1
     3     7    1
     4     8    1
     6     8    1
     5     9    1
     5    10    1
     3    13    1
     3    14    1
     7    11    1
     3    15    1
     1    18    1
     9    11    1
     8    12    1
     4    16    1
     1    19    1
     4    17    1
     2    20    1
     5    18    1
     2    21    1
     5    19    1
     3    22    1
     6    20    1
     7    20    1
     6    21    1
     4    23    1
     7    21    1
     4    24    1
    13    16    1
     4    25    1
    14    16    1
    13    17    1
     8    22    1
     7    23    1
    15    16    1
    14    17    1
     7    24    1
    15    17    1
     7    25    1
    16    18    1
     8    26    1
    17    18    1
    16    19    1
     8    27    1
    17    19    1
    18    20    1
    10    28    1
    19    20    1
    18    21    1
    10    29    1
    19    21    1
    10    30    1
    20    22    1
    21    22    1
    22    23    1
    22    24    1
    22    25    1
    26    28    1
    27    28    1
    26    29    1
    27    29    1
    26    30    1
    27    30    1

