LIGPARGEN GENERATED GRO FILE
   28
    1UNK    C00    1   0.100   0.100   0.000
    1UNK    C01    2  -0.054   0.100   0.000
    1UNK    C02    3  -0.099   0.100   0.148
    1UNK    C03    4  -0.250   0.100   0.171
    1UNK    C04    5  -0.327   0.229   0.134
    1UNK    C05    6  -0.357   0.162  -0.002
    1UNK    C06    7  -0.340   0.026   0.070
    1UNK    C07    8  -0.263   0.190  -0.120
    1UNK    C08    9  -0.114   0.217  -0.082
    1UNK    C09   10  -0.037   0.244  -0.213
    1UNK    H0A   11   0.139   0.021   0.066
    1UNK    H0B   12   0.140   0.196   0.035
    1UNK    H0C   13   0.140   0.080  -0.100
    1UNK    H0D   14  -0.085   0.006  -0.046
    1UNK    H0E   15  -0.055   0.186   0.200
    1UNK    H0F   16  -0.058   0.010   0.196
    1UNK    H0G   17  -0.269   0.070   0.275
    1UNK    H0H   18  -0.270   0.323   0.132
    1UNK    H0I   19  -0.417   0.246   0.195
    1UNK    H0J   20  -0.461   0.178  -0.035
    1UNK    H0K   21  -0.295  -0.055   0.012
    1UNK    H0M   22  -0.433  -0.012   0.114
    1UNK    H0N   23  -0.301   0.279  -0.172
    1UNK    H0O   24  -0.270   0.107  -0.191
    1UNK    H0P   25  -0.107   0.309  -0.022
    1UNK    H0Q   26  -0.030   0.154  -0.275
    1UNK    H0R   27   0.064   0.280  -0.192
    1UNK    H0S   28  -0.087   0.322  -0.272
   1.00000   1.00000   1.00000

