LIGPARGEN GENERATED GRO FILE
   40
    1UNK    C00    1   0.100   0.100   0.000
    1UNK    C01    2  -0.052   0.100   0.000
    1UNK    C02    3  -0.115   0.100   0.141
    1UNK    C03    4  -0.077   0.224   0.222
    1UNK    C04    5  -0.268   0.091   0.130
    1UNK    O05    6  -0.326   0.097   0.022
    1UNK    C06    7  -0.345   0.074   0.260
    1UNK    C07    8  -0.474  -0.006   0.243
    1UNK    C08    9  -0.456  -0.153   0.195
    1UNK    C09   10  -0.368  -0.230   0.295
    1UNK    C0A   11  -0.593  -0.225   0.164
    1UNK    C0B   12  -0.669  -0.152   0.051
    1UNK    C0C   13  -0.569  -0.369   0.114
    1UNK    C0D   14  -0.685  -0.231   0.288
    1UNK    H0E   15   0.137   0.090  -0.102
    1UNK    H0F   16   0.139   0.017   0.059
    1UNK    H0G   17   0.140   0.194   0.040
    1UNK    H0H   18  -0.086   0.011  -0.054
    1UNK    H0I   19  -0.088   0.187  -0.057
    1UNK    H0J   20  -0.081   0.010   0.194
    1UNK    H0K   21  -0.113   0.315   0.173
    1UNK    H0M   22   0.032   0.232   0.234
    1UNK    H0N   23  -0.120   0.220   0.322
    1UNK    H0O   24  -0.369   0.175   0.296
    1UNK    H0P   25  -0.281   0.028   0.335
    1UNK    H0Q   26  -0.538   0.049   0.173
    1UNK    H0R   27  -0.526  -0.006   0.340
    1UNK    H0S   28  -0.400  -0.150   0.100
    1UNK    H0T   29  -0.413  -0.232   0.395
    1UNK    H0U   30  -0.269  -0.185   0.304
    1UNK    H0V   31  -0.351  -0.333   0.263
    1UNK    H0W   32  -0.607  -0.143  -0.039
    1UNK    H0X   33  -0.700  -0.051   0.081
    1UNK    H0Y   34  -0.760  -0.206   0.024
    1UNK    H0Z   35  -0.504  -0.370   0.026
    1UNK    H10   36  -0.664  -0.417   0.086
    1UNK    H11   37  -0.524  -0.433   0.191
    1UNK    H12   38  -0.714  -0.131   0.321
    1UNK    H13   39  -0.637  -0.282   0.372
    1UNK    H14   40  -0.777  -0.286   0.265
   1.00000   1.00000   1.00000

