LIGPARGEN GENERATED GRO FILE
   25
    1UNK    C00    1   0.100   0.100   0.000
    1UNK    C01    2  -0.052   0.100   0.000
    1UNK    C02    3  -0.108   0.100   0.143
    1UNK    C03    4  -0.263   0.094   0.155
    1UNK    C04    5  -0.301   0.088   0.305
    1UNK    P05    6  -0.339   0.255   0.086
    1UNK    C06    7  -0.327  -0.025   0.079
    1UNK    C07    8  -0.278  -0.163   0.121
    1UNK    H08    9   0.138   0.100  -0.103
    1UNK    H09   10   0.139   0.011   0.050
    1UNK    H0A   11   0.139   0.189   0.051
    1UNK    H0B   12  -0.087   0.012  -0.055
    1UNK    H0C   13  -0.087   0.188  -0.055
    1UNK    H0D   14  -0.071   0.189   0.195
    1UNK    H0E   15  -0.065   0.015   0.197
    1UNK    H0F   16  -0.264   0.175   0.360
    1UNK    H0G   17  -0.258  -0.000   0.354
    1UNK    H0H   18  -0.410   0.083   0.319
    1UNK    H0I   19  -0.291   0.342   0.187
    1UNK    H0J   20  -0.468   0.239   0.141
    1UNK    H0K   21  -0.310  -0.015  -0.029
    1UNK    H0M   22  -0.436  -0.023   0.092
    1UNK    H0N   23  -0.170  -0.174   0.108
    1UNK    H0O   24  -0.327  -0.240   0.060
    1UNK    H0P   25  -0.303  -0.184   0.226
   1.00000   1.00000   1.00000

