LIGPARGEN GENERATED GRO FILE
   53
    1UNK    C00    1   0.100   0.100   0.000
    1UNK    C01    2  -0.052   0.100   0.000
    1UNK    C02    3  -0.108   0.100   0.142
    1UNK    C03    4  -0.261   0.100   0.139
    1UNK    C04    5  -0.323   0.100   0.279
    1UNK    C05    6  -0.474   0.100   0.264
    1UNK    O06    7  -0.541   0.092   0.391
    1UNK    C07    8  -0.605   0.206   0.426
    1UNK    O08    9  -0.566   0.320   0.403
    1UNK    C09   10  -0.744   0.173   0.474
    1UNK    C0A   11  -0.748   0.081   0.597
    1UNK    C0B   12  -0.891   0.038   0.624
    1UNK    C0C   13  -0.901  -0.054   0.746
    1UNK    C0D   14  -1.047  -0.095   0.780
    1UNK    C0E   15  -1.120  -0.166   0.664
    1UNK    C0F   16  -1.060  -0.299   0.621
    1UNK    C0G   17  -1.051  -0.182   0.908
    1UNK    C0H   18  -1.002  -0.108   1.030
    1UNK    O0I   19  -1.019   0.011   1.052
    1UNK    O0J   20  -0.938  -0.195   1.114
    1UNK    C0K   21  -0.888  -0.135   1.233
    1UNK    H0M   22   0.138   0.100  -0.103
    1UNK    H0N   23   0.139   0.011   0.050
    1UNK    H0O   24   0.139   0.189   0.051
    1UNK    H0P   25  -0.088   0.012  -0.054
    1UNK    H0Q   26  -0.088   0.188  -0.054
    1UNK    H0R   27  -0.072   0.188   0.196
    1UNK    H0S   28  -0.072   0.012   0.196
    1UNK    H0T   29  -0.296   0.012   0.084
    1UNK    H0U   30  -0.296   0.188   0.084
    1UNK    H0V   31  -0.290   0.188   0.336
    1UNK    H0W   32  -0.291   0.012   0.336
    1UNK    H0X   33  -0.506   0.012   0.208
    1UNK    H0Y   34  -0.508   0.188   0.207
    1UNK    H0Z   35  -0.796   0.126   0.390
    1UNK    H10   36  -0.797   0.266   0.496
    1UNK    H11   37  -0.706   0.134   0.683
    1UNK    H12   38  -0.685  -0.007   0.580
    1UNK    H13   39  -0.929  -0.014   0.535
    1UNK    H14   40  -0.954   0.126   0.640
    1UNK    H15   41  -0.857  -0.001   0.832
    1UNK    H16   42  -0.839  -0.143   0.731
    1UNK    H17   43  -1.102  -0.002   0.801
    1UNK    H18   44  -1.124  -0.099   0.577
    1UNK    H19   45  -1.224  -0.182   0.693
    1UNK    H1A   46  -0.951  -0.296   0.616
    1UNK    H1B   47  -1.096  -0.325   0.521
    1UNK    H1C   48  -1.090  -0.379   0.689
    1UNK    H1D   49  -0.989  -0.271   0.893
    1UNK    H1E   50  -1.153  -0.214   0.928
    1UNK    H1F   51  -0.830  -0.210   1.287
    1UNK    H1G   52  -0.971  -0.102   1.297
    1UNK    H1H   53  -0.822  -0.051   1.210
   1.00000   1.00000   1.00000

