LIGPARGEN GENERATED GRO FILE
   21
    1UNK    C00    1   0.100   0.100   0.000
    1UNK    C01    2  -0.052   0.100   0.000
    1UNK    C02    3  -0.109   0.100   0.143
    1UNK    C03    4  -0.264   0.100   0.152
    1UNK    C04    5  -0.306   0.100   0.300
    1UNK    C05    6  -0.315   0.229   0.089
    1UNK    N06    7  -0.357   0.335   0.036
    1UNK    C07    8  -0.330  -0.017   0.077
    1UNK    Cl0    9  -0.277  -0.177   0.133
    1UNK    H09   10   0.138   0.100  -0.103
    1UNK    H0A   11   0.139   0.011   0.050
    1UNK    H0B   12   0.139   0.189   0.051
    1UNK    H0C   13  -0.087   0.012  -0.055
    1UNK    H0D   14  -0.087   0.188  -0.055
    1UNK    H0E   15  -0.070   0.189   0.195
    1UNK    H0F   16  -0.068   0.013   0.197
    1UNK    H0G   17  -0.268   0.190   0.352
    1UNK    H0H   18  -0.267   0.013   0.354
    1UNK    H0I   19  -0.415   0.100   0.311
    1UNK    H0J   20  -0.311  -0.012  -0.031
    1UNK    H0K   21  -0.439  -0.014   0.089
   1.00000   1.00000   1.00000

