LIGPARGEN GENERATED GRO FILE
   21
    1UNK    C00    1   0.100   0.100   0.000
    1UNK    C01    2  -0.052   0.100   0.000
    1UNK    C02    3  -0.117   0.100   0.141
    1UNK    C03    4  -0.071   0.218   0.231
    1UNK    C04    5  -0.111   0.350   0.168
    1UNK    N05    6  -0.144   0.460   0.116
    1UNK    C06    7  -0.272   0.098   0.130
    1UNK    C07    8  -0.328  -0.024   0.058
    1UNK    F08    9  -0.286  -0.136   0.122
    1UNK    H09   10   0.137   0.079  -0.101
    1UNK    H0A   11   0.139   0.023   0.067
    1UNK    H0B   12   0.140   0.197   0.030
    1UNK    H0C   13  -0.083   0.010  -0.054
    1UNK    H0D   14  -0.088   0.185  -0.059
    1UNK    H0E   15  -0.086   0.007   0.191
    1UNK    H0F   16   0.038   0.215   0.245
    1UNK    H0G   17  -0.117   0.210   0.330
    1UNK    H0H   18  -0.308   0.188   0.078
    1UNK    H0I   19  -0.314   0.100   0.231
    1UNK    H0J   20  -0.297  -0.030  -0.046
    1UNK    H0K   21  -0.438  -0.023   0.061
   1.00000   1.00000   1.00000

