
;
; GENERATED BY LigParGen Server
; Jorgensen Lab @ Yale University 
;
[ atomtypes ]
  opls_814  C814    12.0110     0.000    A    3.50000E-01   2.76144E-01
  opls_815  C815    12.0110     0.000    A    3.30000E-01   2.76144E-01
  opls_824  H824     1.0080     0.000    A    2.50000E-01   1.25520E-01
  opls_809  O809    15.9990     0.000    A    2.90000E-01   5.85760E-01
  opls_836  H836     1.0080     0.000    A    2.50000E-01   1.25520E-01
  opls_834  H834     1.0080     0.000    A    2.50000E-01   1.25520E-01
  opls_828  H828     1.0080     0.000    A    2.50000E-01   1.25520E-01
  opls_812  O812    15.9990     0.000    A    2.90000E-01   5.85760E-01
  opls_802  C802    12.0110     0.000    A    3.50000E-01   2.76144E-01
  opls_827  H827     1.0080     0.000    A    2.50000E-01   1.25520E-01
  opls_801  C801    12.0110     0.000    A    3.50000E-01   2.76144E-01
  opls_838  H838     1.0080     0.000    A    2.50000E-01   1.25520E-01
  opls_811  O811    15.9990     0.000    A    2.96000E-01   8.78640E-01
  opls_822  H822     1.0080     0.000    A    2.50000E-01   1.25520E-01
  opls_807  C807    12.0110     0.000    A    3.50000E-01   2.76144E-01
  opls_830  H830     1.0080     0.000    A    2.50000E-01   1.25520E-01
  opls_805  C805    12.0110     0.000    A    3.50000E-01   2.76144E-01
  opls_842  H842     1.0080     0.000    A    2.50000E-01   1.25520E-01
  opls_820  H820     1.0080     0.000    A    2.50000E-01   1.25520E-01
  opls_803  N803    14.0070     0.000    A    3.30000E-01   7.11280E-01
  opls_837  H837     1.0080     0.000    A    2.50000E-01   1.25520E-01
  opls_821  H821     1.0080     0.000    A    2.50000E-01   1.25520E-01
  opls_831  H831     1.0080     0.000    A    2.50000E-01   1.25520E-01
  opls_810  C810    12.0110     0.000    A    3.55000E-01   2.92880E-01
  opls_832  H832     1.0080     0.000    A    2.50000E-01   1.25520E-01
  opls_800  C800    12.0110     0.000    A    3.50000E-01   2.76144E-01
  opls_806  C806    12.0110     0.000    A    3.50000E-01   2.76144E-01
  opls_823  H823     1.0080     0.000    A    2.50000E-01   1.25520E-01
  opls_819  C819    12.0110     0.000    A    3.50000E-01   2.76144E-01
  opls_826  H826     1.0080     0.000    A    2.50000E-01   1.25520E-01
  opls_835  H835     1.0080     0.000    A    2.50000E-01   1.25520E-01
  opls_841  H841     1.0080     0.000    A    2.50000E-01   1.25520E-01
  opls_816  N816    14.0070     0.000    A    3.20000E-01   7.11280E-01
  opls_825  H825     1.0080     0.000    A    2.50000E-01   1.25520E-01
  opls_804  C804    12.0110     0.000    A    3.50000E-01   2.76144E-01
  opls_833  H833     1.0080     0.000    A    2.50000E-01   1.25520E-01
  opls_839  H839     1.0080     0.000    A    2.50000E-01   1.25520E-01
  opls_817  C817    12.0110     0.000    A    3.50000E-01   2.76144E-01
  opls_808  C808    12.0110     0.000    A    3.50000E-01   2.76144E-01
  opls_840  H840     1.0080     0.000    A    2.50000E-01   1.25520E-01
  opls_813  C813    12.0110     0.000    A    3.50000E-01   2.76144E-01
  opls_829  H829     1.0080     0.000    A    2.50000E-01   1.25520E-01
  opls_818  N818    14.0070     0.000    A    3.30000E-01   7.11280E-01
[ moleculetype ]
; Name               nrexcl
UNK                   3
[ atoms ]
;   nr       type  resnr residue  atom   cgnr     charge       mass  
     1   opls_800      1    UNK   C00      1    -0.2376    12.0110 
     2   opls_801      1    UNK   C01      1     -0.184    12.0110 
     3   opls_802      1    UNK   C02      1     0.1016    12.0110 
     4   opls_803      1    UNK   N03      1    -0.5547    14.0070 
     5   opls_804      1    UNK   C04      1    -0.0606    12.0110 
     6   opls_805      1    UNK   C05      1     -0.057    12.0110 
     7   opls_806      1    UNK   C06      1     0.2859    12.0110 
     8   opls_807      1    UNK   C07      1    -0.2371    12.0110 
     9   opls_808      1    UNK   C08      1     0.0613    12.0110 
    10   opls_809      1    UNK   O09      1    -0.3051    15.9990 
    11   opls_810      1    UNK   C0A      1     0.5893    12.0110 
    12   opls_811      1    UNK   O0B      1    -0.3473    15.9990 
    13   opls_812      1    UNK   O0C      1     -0.404    15.9990 
    14   opls_813      1    UNK   C0D      1      0.007    12.0110 
    15   opls_814      1    UNK   C0E      1     0.0152    12.0110 
    16   opls_815      1    UNK   C0F      1     0.1446    12.0110 
    17   opls_816      1    UNK   N0G      1    -0.3362    14.0070 
    18   opls_817      1    UNK   C0H      1      0.167    12.0110 
    19   opls_818      1    UNK   N0I      1    -0.9173    14.0070 
    20   opls_819      1    UNK   C0J      1     0.0838    12.0110 
    21   opls_820      1    UNK   H0K      1     0.0834     1.0080 
    22   opls_821      1    UNK   H0M      1     0.0834     1.0080 
    23   opls_822      1    UNK   H0N      1     0.0834     1.0080 
    24   opls_823      1    UNK   H0O      1     0.1066     1.0080 
    25   opls_824      1    UNK   H0P      1     0.1066     1.0080 
    26   opls_825      1    UNK   H0Q      1     0.0747     1.0080 
    27   opls_826      1    UNK   H0R      1     0.0827     1.0080 
    28   opls_827      1    UNK   H0S      1     0.0827     1.0080 
    29   opls_828      1    UNK   H0T      1     0.0827     1.0080 
    30   opls_829      1    UNK   H0U      1     0.0854     1.0080 
    31   opls_830      1    UNK   H0V      1     0.0854     1.0080 
    32   opls_831      1    UNK   H0W      1     0.0854     1.0080 
    33   opls_832      1    UNK   H0X      2     0.0941     1.0080 
    34   opls_833      1    UNK   H0Y      2     0.0941     1.0080 
    35   opls_834      1    UNK   H0Z      2     0.0941     1.0080 
    36   opls_835      1    UNK   H10      2      0.116     1.0080 
    37   opls_836      1    UNK   H11      2     0.1348     1.0080 
    38   opls_837      1    UNK   H12      2     0.1348     1.0080 
    39   opls_838      1    UNK   H13      2     0.1121     1.0080 
    40   opls_839      1    UNK   H14      2     0.1121     1.0080 
    41   opls_840      1    UNK   H15      2     0.0836     1.0080 
    42   opls_841      1    UNK   H16      2     0.0836     1.0080 
    43   opls_842      1    UNK   H17      2     0.0836     1.0080 
[ bonds ]
    2     1     1      0.1529 224262.400
    3     2     1      0.1529 224262.400
    4     3     1      0.1448 319657.600
    5     4     1      0.1448 319657.600
    6     4     1      0.1448 319657.600
    7     3     1      0.1529 224262.400
    8     7     1      0.1529 224262.400
    9     7     1      0.1529 224262.400
   10     9     1      0.1410 267776.000
   11    10     1      0.1327 179075.200
   12    11     1      0.1229 476976.000
   13    11     1      0.1327 179075.200
   14    13     1      0.1410 267776.000
   15     9     1      0.1529 224262.400
   16    15     1      0.1470 326352.000
   17    16     1      0.1157 543920.000
   18    15     1      0.1529 224262.400
   19     7     1      0.1448 319657.600
   20    19     1      0.1448 319657.600
   21     1     1      0.1090 284512.000
   22     1     1      0.1090 284512.000
   23     1     1      0.1090 284512.000
   24     2     1      0.1090 284512.000
   25     2     1      0.1090 284512.000
   26     3     1      0.1090 284512.000
   27     5     1      0.1090 284512.000
   28     5     1      0.1090 284512.000
   29     5     1      0.1090 284512.000
   30     6     1      0.1090 284512.000
   31     6     1      0.1090 284512.000
   32     6     1      0.1090 284512.000
   33     8     1      0.1090 284512.000
   34     8     1      0.1090 284512.000
   35     8     1      0.1090 284512.000
   36     9     1      0.1090 284512.000
   37    14     1      0.1090 284512.000
   38    14     1      0.1090 284512.000
   39    18     1      0.1090 284512.000
   40    18     1      0.1090 284512.000
   41    20     1      0.1090 284512.000
   42    20     1      0.1090 284512.000
   43    20     1      0.1090 284512.000
   15    14     1      0.1529 224262.400
   19    18     1      0.1448 319657.600

[ angles ]
;  ai    aj    ak funct            c0            c1            c2            c3 
    1     2     3     1    112.700    488.273
    2     3     4     1    109.470    470.282
    3     4     5     1    107.200    433.462
    3     4     6     1    107.200    433.462
    2     3     7     1    112.700    488.273
    3     7     8     1    112.700    488.273
    3     7     9     1    112.700    488.273
    7     9    10     1    109.500    418.400
    9    10    11     1    116.900    694.544
   10    11    12     1    123.400    694.544
   10    11    13     1    118.180    584.923
   11    13    14     1    116.900    694.544
    7     9    15     1    112.700    488.273
    9    15    16     1    112.700    488.273
   15    16    17     1    180.000   1255.200
    9    15    18     1    112.700    488.273
    3     7    19     1    109.470    470.282
    7    19    20     1    107.200    433.462
    2     1    21     1    110.700    313.800
    2     1    22     1    110.700    313.800
    2     1    23     1    110.700    313.800
    1     2    24     1    110.700    313.800
    1     2    25     1    110.700    313.800
    2     3    26     1    110.700    313.800
    4     5    27     1    109.500    292.880
    4     5    28     1    109.500    292.880
    4     5    29     1    109.500    292.880
    4     6    30     1    109.500    292.880
    4     6    31     1    109.500    292.880
    4     6    32     1    109.500    292.880
    7     8    33     1    110.700    313.800
    7     8    34     1    110.700    313.800
    7     8    35     1    110.700    313.800
    7     9    36     1    110.700    313.800
   13    14    37     1    109.500    292.880
   13    14    38     1    109.500    292.880
   15    18    39     1    110.700    313.800
   15    18    40     1    110.700    313.800
   19    20    41     1    109.500    292.880
   19    20    42     1    109.500    292.880
   19    20    43     1    109.500    292.880
   41    20    43     1    107.800    276.144
    5     4     6     1    107.200    433.462
   21     1    23     1    107.800    276.144
    7     3    26     1    110.700    313.800
    3     2    25     1    110.700    313.800
   28     5    29     1    107.800    276.144
   22     1    23     1    107.800    276.144
   34     8    35     1    107.800    276.144
   13    14    15     1    109.500    418.400
   16    15    18     1    112.700    488.273
   41    20    42     1    107.800    276.144
   37    14    38     1    107.800    276.144
   30     6    31     1    107.800    276.144
    8     7     9     1    112.700    488.273
   39    18    40     1    107.800    276.144
    4     3     7     1    109.470    470.282
   27     5    29     1    107.800    276.144
   15    18    19     1    109.470    470.282
   15    14    37     1    110.700    313.800
   15    14    38     1    110.700    313.800
   24     2    25     1    107.800    276.144
   33     8    34     1    107.800    276.144
   10     9    15     1    109.500    418.400
   31     6    32     1    107.800    276.144
    9    15    14     1    112.700    488.273
    8     7    19     1    109.470    470.282
    9     7    19     1    109.470    470.282
   14    15    18     1    112.700    488.273
   10     9    36     1    109.500    292.880
   15     9    36     1    110.700    313.800
   27     5    28     1    107.800    276.144
   12    11    13     1    123.400    694.544
   14    15    16     1    112.700    488.273
    3     2    24     1    110.700    313.800
   42    20    43     1    107.800    276.144
   21     1    22     1    107.800    276.144
   33     8    35     1    107.800    276.144
   19    18    40     1    109.500    292.880
   19    18    39     1    109.500    292.880
   30     6    32     1    107.800    276.144
    4     3    26     1    109.500    292.880
   18    19    20     1    107.200    433.462
    7    19    18     1    107.200    433.462

[ dihedrals ]
; IMPROPER DIHEDRAL ANGLES 
;  ai    aj    ak    al funct            c0            c1            c2            c3            c4            c5
    13    11    10    12    4        180.000     43.932     2  

[ dihedrals ]
; PROPER DIHEDRAL ANGLES
;  ai    aj    ak    al funct            c0            c1            c2            c3            c4            c5
   11   10    9    7        3      -2.197   5.201   0.527  -3.531  -0.000   0.000
   15    9    7    8        3       2.301  -1.464   0.837  -1.674  -0.000   0.000
   14   15    9    7        3       2.301  -1.464   0.837  -1.674  -0.000   0.000
   18   15    9    7        3       2.301  -1.464   0.837  -1.674  -0.000   0.000
    7    3    2    1        3       2.301  -1.464   0.837  -1.674  -0.000   0.000
    9    7    3    2        3       2.301  -1.464   0.837  -1.674  -0.000   0.000
   15    9    7    3        3       2.301  -1.464   0.837  -1.674  -0.000   0.000
    8    7    3    2        3       2.301  -1.464   0.837  -1.674  -0.000   0.000
    9    7    3    4        3       3.335  -1.552   2.820  -4.602  -0.000   0.000
    8    7    3    4        3       3.335  -1.552   2.820  -4.602  -0.000   0.000
   14   15    9   10        3       2.874   0.582   2.092  -5.548  -0.000   0.000
   18   15    9   10        3       2.874   0.582   2.092  -5.548  -0.000   0.000
   18   15   14   13        3       2.874   0.582   2.092  -5.548  -0.000   0.000
   18   15   16   17        3       0.000   0.000   0.000  -0.000  -0.000   0.000
   15   18   19    7        3       1.789   3.492   0.536  -5.816  -0.000   0.000
    7    3    4    5        3       1.789   3.492   0.536  -5.816  -0.000   0.000
    7    3    4    6        3       1.789   3.492   0.536  -5.816  -0.000   0.000
   15   14   13   11        3      -2.197   5.201   0.527  -3.531  -0.000   0.000
   15    9   10   11        3      -2.197   5.201   0.527  -3.531  -0.000   0.000
   20   19    7    8        3       1.789   3.492   0.536  -5.816  -0.000   0.000
    6    4    3    2        3       1.789   3.492   0.536  -5.816  -0.000   0.000
   20   19   18   15        3       1.789   3.492   0.536  -5.816  -0.000   0.000
   18   19    7    3        3       1.789   3.492   0.536  -5.816  -0.000   0.000
   18   19    7    9        3       1.789   3.492   0.536  -5.816  -0.000   0.000
    5    4    3    2        3       1.789   3.492   0.536  -5.816  -0.000   0.000
   20   19    7    9        3       1.789   3.492   0.536  -5.816  -0.000   0.000
   20   19    7    3        3       1.789   3.492   0.536  -5.816  -0.000   0.000
   18   19    7    8        3       1.789   3.492   0.536  -5.816  -0.000   0.000
   14   13   11   12        3      21.439   0.000  -21.439  -0.000  -0.000   0.000
   14   13   11   10        3      31.206  -9.768  -21.439  -0.000  -0.000   0.000
   16   15    9    7        3      -2.720   0.000   2.720  -0.000  -0.000   0.000
   16   15    9   10        3       2.874   0.582   2.092  -5.548  -0.000   0.000
   16   15   14   13        3       2.874   0.582   2.092  -5.548  -0.000   0.000
   37   14   15    9        3       0.628   1.883   0.000  -2.510  -0.000   0.000
   35    8    7    3        3       0.628   1.883   0.000  -2.510  -0.000   0.000
   38   14   15   18        3       0.628   1.883   0.000  -2.510  -0.000   0.000
   40   18   15   14        3       0.628   1.883   0.000  -2.510  -0.000   0.000
   25    2    3    7        3       0.628   1.883   0.000  -2.510  -0.000   0.000
   40   18   15    9        3       0.628   1.883   0.000  -2.510  -0.000   0.000
   38   14   15    9        3       0.628   1.883   0.000  -2.510  -0.000   0.000
   34    8    7    9        3       0.628   1.883   0.000  -2.510  -0.000   0.000
   36    9    7    8        3       0.628   1.883   0.000  -2.510  -0.000   0.000
   22    1    2    3        3       0.628   1.883   0.000  -2.510  -0.000   0.000
   39   18   15   14        3       0.628   1.883   0.000  -2.510  -0.000   0.000
   36    9   15   14        3       0.628   1.883   0.000  -2.510  -0.000   0.000
   36    9    7    3        3       0.628   1.883   0.000  -2.510  -0.000   0.000
   39   18   15    9        3       0.628   1.883   0.000  -2.510  -0.000   0.000
   24    2    3    7        3       0.628   1.883   0.000  -2.510  -0.000   0.000
   33    8    7    9        3       0.628   1.883   0.000  -2.510  -0.000   0.000
   26    3    2    1        3       0.628   1.883   0.000  -2.510  -0.000   0.000
   33    8    7    3        3       0.628   1.883   0.000  -2.510  -0.000   0.000
   26    3    7    8        3       0.628   1.883   0.000  -2.510  -0.000   0.000
   23    1    2    3        3       0.628   1.883   0.000  -2.510  -0.000   0.000
   34    8    7    3        3       0.628   1.883   0.000  -2.510  -0.000   0.000
   37   14   15   18        3       0.628   1.883   0.000  -2.510  -0.000   0.000
   26    3    7    9        3       0.628   1.883   0.000  -2.510  -0.000   0.000
   21    1    2    3        3       0.628   1.883   0.000  -2.510  -0.000   0.000
   35    8    7    9        3       0.628   1.883   0.000  -2.510  -0.000   0.000
   36    9   15   18        3       0.628   1.883   0.000  -2.510  -0.000   0.000
   39   18   15   16        3       0.766   2.297   0.000  -3.063  -0.000   0.000
   38   14   15   16        3       0.766   2.297   0.000  -3.063  -0.000   0.000
   36    9   15   16        3       0.766   2.297   0.000  -3.063  -0.000   0.000
   40   18   15   16        3       0.766   2.297   0.000  -3.063  -0.000   0.000
   37   14   15   16        3       0.766   2.297   0.000  -3.063  -0.000   0.000
   26    3    2   24        3       0.628   1.883   0.000  -2.510  -0.000   0.000
   24    2    1   23        3       0.628   1.883   0.000  -2.510  -0.000   0.000
   24    2    1   21        3       0.628   1.883   0.000  -2.510  -0.000   0.000
   25    2    1   22        3       0.628   1.883   0.000  -2.510  -0.000   0.000
   24    2    1   22        3       0.628   1.883   0.000  -2.510  -0.000   0.000
   25    2    1   21        3       0.628   1.883   0.000  -2.510  -0.000   0.000
   25    2    1   23        3       0.628   1.883   0.000  -2.510  -0.000   0.000
   26    3    2   25        3       0.628   1.883   0.000  -2.510  -0.000   0.000
   24    2    3    4        3      -4.096   5.088   2.966  -3.958  -0.000   0.000
   25    2    3    4        3      -4.096   5.088   2.966  -3.958  -0.000   0.000
   26    3    7   19        3      -4.096   5.088   2.966  -3.958  -0.000   0.000
   33    8    7   19        3      -4.096   5.088   2.966  -3.958  -0.000   0.000
   34    8    7   19        3      -4.096   5.088   2.966  -3.958  -0.000   0.000
   36    9    7   19        3      -4.096   5.088   2.966  -3.958  -0.000   0.000
   35    8    7   19        3      -4.096   5.088   2.966  -3.958  -0.000   0.000
   41   20   19   18        3       1.172   3.515   0.000  -4.686  -0.000   0.000
   30    6    4    5        3       1.172   3.515   0.000  -4.686  -0.000   0.000
   32    6    4    3        3       1.172   3.515   0.000  -4.686  -0.000   0.000
   39   18   19    7        3       1.172   3.515   0.000  -4.686  -0.000   0.000
   42   20   19   18        3       1.172   3.515   0.000  -4.686  -0.000   0.000
   31    6    4    5        3       1.172   3.515   0.000  -4.686  -0.000   0.000
   40   18   19    7        3       1.172   3.515   0.000  -4.686  -0.000   0.000
   31    6    4    3        3       1.172   3.515   0.000  -4.686  -0.000   0.000
   27    5    4    3        3       1.172   3.515   0.000  -4.686  -0.000   0.000
   26    3    4    5        3       1.172   3.515   0.000  -4.686  -0.000   0.000
   40   18   19   20        3       1.172   3.515   0.000  -4.686  -0.000   0.000
   41   20   19    7        3       1.172   3.515   0.000  -4.686  -0.000   0.000
   29    5    4    6        3       1.172   3.515   0.000  -4.686  -0.000   0.000
   30    6    4    3        3       1.172   3.515   0.000  -4.686  -0.000   0.000
   27    5    4    6        3       1.172   3.515   0.000  -4.686  -0.000   0.000
   39   18   19   20        3       1.172   3.515   0.000  -4.686  -0.000   0.000
   29    5    4    3        3       1.172   3.515   0.000  -4.686  -0.000   0.000
   28    5    4    6        3       1.172   3.515   0.000  -4.686  -0.000   0.000
   43   20   19    7        3       1.172   3.515   0.000  -4.686  -0.000   0.000
   26    3    4    6        3       1.172   3.515   0.000  -4.686  -0.000   0.000
   32    6    4    5        3       1.172   3.515   0.000  -4.686  -0.000   0.000
   42   20   19    7        3       1.172   3.515   0.000  -4.686  -0.000   0.000
   43   20   19   18        3       1.172   3.515   0.000  -4.686  -0.000   0.000
   28    5    4    3        3       1.172   3.515   0.000  -4.686  -0.000   0.000
   37   14   13   11        3       0.414   1.243   0.000  -1.657  -0.000   0.000
   38   14   13   11        3       0.414   1.243   0.000  -1.657  -0.000   0.000
   36    9   10   11        3       0.414   1.243   0.000  -1.657  -0.000   0.000
   19    7    3    2        3       3.335  -1.552   2.820  -4.602  -0.000   0.000
   19   18   15    9        3       3.335  -1.552   2.820  -4.602  -0.000   0.000
    4    3    2    1        3       3.335  -1.552   2.820  -4.602  -0.000   0.000
   19   18   15   14        3       3.335  -1.552   2.820  -4.602  -0.000   0.000
   19    7    9   15        3       3.335  -1.552   2.820  -4.602  -0.000   0.000
   19   18   15   16        3       3.335  -1.552   2.820  -4.602  -0.000   0.000
   19    7    3    4        3      19.600  -21.391   4.050  -2.259  -0.000   0.000
   19    7    9   10        3      16.736  -16.736   0.000  -0.000  -0.000   0.000
   17   16   15   14        3       0.000   0.000   0.000  -0.000  -0.000   0.000
   17   16   15    9        3       0.000   0.000   0.000  -0.000  -0.000   0.000
   12   11   10    9        3      21.439   0.000  -21.439  -0.000  -0.000   0.000
   13   11   10    9        3      31.206  -9.768  -21.439  -0.000  -0.000   0.000
   10    9    7    8        3       2.874   0.582   2.092  -5.548  -0.000   0.000
   10    9    7    3        3       2.874   0.582   2.092  -5.548  -0.000   0.000
   13   14   15    9        3       2.874   0.582   2.092  -5.548  -0.000   0.000

[ pairs ]
     1     4    1
     2     5    1
     2     6    1
     1     7    1
     2     8    1
     2     9    1
     5     7    1
     4     8    1
     6     7    1
     4     9    1
     3    10    1
     8    10    1
     7    11    1
     3    15    1
     9    12    1
     7    14    1
     3    18    1
     2    19    1
     9    13    1
     8    15    1
     7    16    1
     4    19    1
     3    20    1
    10    14    1
     3    21    1
     3    22    1
    12    14    1
    11    15    1
    10    16    1
     9    17    1
     8    18    1
     3    23    1
     1    26    1
    10    18    1
     8    20    1
     4    24    1
    13    16    1
    10    19    1
     9    20    1
     4    25    1
     3    27    1
    14    17    1
    13    18    1
     7    24    1
     5    26    1
     3    28    1
     7    25    1
     6    26    1
     3    29    1
    14    19    1
     6    27    1
     3    30    1
     8    26    1
     6    28    1
     3    31    1
    17    18    1
    16    19    1
    15    20    1
     9    26    1
     6    29    1
     5    30    1
     3    32    1
     5    31    1
     3    33    1
     5    32    1
     3    34    1
     3    35    1
     3    36    1
     9    33    1
     9    34    1
     9    35    1
     8    36    1
    21    24    1
    19    26    1
    22    24    1
    21    25    1
     9    37    1
     7    39    1
    23    24    1
    22    25    1
    11    36    1
     9    38    1
     7    40    1
    23    25    1
    11    37    1
     9    39    1
     7    41    1
    11    38    1
     9    40    1
     7    42    1
    24    26    1
    14    36    1
     7    43    1
    25    26    1
    19    33    1
    16    36    1
    19    34    1
    16    37    1
    14    39    1
    19    35    1
    18    36    1
    16    38    1
    14    40    1
    19    36    1
    18    37    1
    16    39    1
    18    38    1
    16    40    1
    20    39    1
    18    41    1
    20    40    1
    18    42    1
    18    43    1

