LIGPARGEN GENERATED GRO FILE
   43
    1UNK    C00    1   0.100   0.100   0.000
    1UNK    C01    2  -0.052   0.100   0.000
    1UNK    C02    3  -0.125   0.100   0.139
    1UNK    N03    4  -0.112   0.233   0.210
    1UNK    C04    5  -0.189   0.246   0.334
    1UNK    C05    6   0.027   0.264   0.245
    1UNK    C06    7  -0.272   0.044   0.109
    1UNK    C07    8  -0.359   0.027   0.240
    1UNK    C08    9  -0.351   0.127   0.005
    1UNK    O09   10  -0.333   0.253  -0.053
    1UNK    C0A   11  -0.459   0.307  -0.084
    1UNK    O0B   12  -0.473   0.424  -0.119
    1UNK    O0C   13  -0.567   0.219  -0.072
    1UNK    C0D   14  -0.553   0.068  -0.059
    1UNK    C0E   15  -0.402   0.031  -0.102
    1UNK    C0F   16  -0.444   0.058  -0.245
    1UNK    N0G   17  -0.479   0.082  -0.364
    1UNK    C0H   18  -0.358  -0.108  -0.068
    1UNK    N0I   19  -0.287  -0.095   0.059
    1UNK    C0J   20  -0.193  -0.199   0.095
    1UNK    H0K   21   0.137   0.046  -0.088
    1UNK    H0M   22   0.141   0.052   0.089
    1UNK    H0N   23   0.139   0.202  -0.009
    1UNK    H0O   24  -0.081   0.010  -0.056
    1UNK    H0P   25  -0.087   0.184  -0.061
    1UNK    H0Q   26  -0.077   0.026   0.203
    1UNK    H0R   27  -0.292   0.273   0.313
    1UNK    H0S   28  -0.154   0.330   0.396
    1UNK    H0T   29  -0.182   0.157   0.397
    1UNK    H0U   30   0.083   0.298   0.157
    1UNK    H0V   31   0.078   0.180   0.293
    1UNK    H0W   32   0.034   0.350   0.313
    1UNK    H0X   33  -0.402   0.121   0.277
    1UNK    H0Y   34  -0.304  -0.021   0.321
    1UNK    H0Z   35  -0.449  -0.034   0.222
    1UNK    H10   36  -0.426   0.158   0.079
    1UNK    H11   37  -0.631   0.023  -0.122
    1UNK    H12   38  -0.580   0.041   0.044
    1UNK    H13   39  -0.292  -0.148  -0.145
    1UNK    H14   40  -0.443  -0.176  -0.056
    1UNK    H15   41  -0.238  -0.298   0.082
    1UNK    H16   42  -0.164  -0.192   0.200
    1UNK    H17   43  -0.103  -0.195   0.033
   1.00000   1.00000   1.00000

