LIGPARGEN GENERATED GRO FILE
   36
    1UNK    C00    1   0.100   0.100   0.000
    1UNK    C01    2  -0.052   0.100   0.000
    1UNK    C02    3  -0.116   0.100   0.140
    1UNK    C03    4  -0.269   0.100   0.128
    1UNK    C04    5  -0.319   0.202   0.230
    1UNK    C05    6  -0.432   0.296   0.189
    1UNK    C06    7  -0.365   0.383   0.080
    1UNK    C07    8  -0.223   0.405   0.132
    1UNK    C08    9  -0.204   0.302   0.247
    1UNK    C09   10  -0.078   0.219   0.231
    1UNK    C0A   11  -0.222   0.370   0.385
    1UNK    C0B   12  -0.360   0.430   0.400
    1UNK    C0C   13  -0.476   0.345   0.448
    1UNK    C0D   14  -0.470   0.389   0.304
    1UNK    H0E   15   0.137   0.080  -0.101
    1UNK    H0F   16   0.140   0.023   0.067
    1UNK    H0G   17   0.140   0.197   0.030
    1UNK    H0H   18  -0.086   0.010  -0.053
    1UNK    H0I   19  -0.087   0.186  -0.058
    1UNK    H0J   20  -0.084   0.007   0.190
    1UNK    H0K   21  -0.309   0.001   0.151
    1UNK    H0M   22  -0.303   0.123   0.026
    1UNK    H0N   23  -0.341   0.147   0.323
    1UNK    H0O   24  -0.520   0.244   0.151
    1UNK    H0P   25  -0.416   0.478   0.063
    1UNK    H0Q   26  -0.362   0.330  -0.015
    1UNK    H0R   27  -0.210   0.507   0.169
    1UNK    H0S   28  -0.150   0.391   0.051
    1UNK    H0T   29  -0.047   0.179   0.329
    1UNK    H0U   30   0.006   0.278   0.194
    1UNK    H0V   31  -0.146   0.449   0.397
    1UNK    H0W   32  -0.205   0.298   0.466
    1UNK    H0X   33  -0.357   0.533   0.432
    1UNK    H0Y   34  -0.551   0.393   0.511
    1UNK    H0Z   35  -0.460   0.242   0.473
    1UNK    H10   36  -0.541   0.464   0.272
   1.00000   1.00000   1.00000

