
;
; GENERATED BY LigParGen Server
; Jorgensen Lab @ Yale University 
;
[ atomtypes ]
  opls_818  H818     1.0080     0.000    A    2.50000E-01   1.25520E-01
  opls_814  C814    12.0110     0.000    A    3.50000E-01   2.76144E-01
  opls_824  H824     1.0080     0.000    A    2.50000E-01   1.25520E-01
  opls_815  C815    12.0110     0.000    A    3.50000E-01   2.76144E-01
  opls_804  C804    12.0110     0.000    A    3.50000E-01   2.76144E-01
  opls_843  H843     1.0080     0.000    A    2.50000E-01   1.25520E-01
  opls_836  H836     1.0080     0.000    A    2.50000E-01   1.25520E-01
  opls_834  H834     1.0080     0.000    A    2.50000E-01   1.25520E-01
  opls_828  H828     1.0080     0.000    A    2.50000E-01   1.25520E-01
  opls_812  C812    12.0110     0.000    A    3.50000E-01   2.76144E-01
  opls_811  C811    12.0110     0.000    A    3.50000E-01   2.76144E-01
  opls_827  H827     1.0080     0.000    A    2.50000E-01   1.25520E-01
  opls_809  C809    12.0110     0.000    A    3.50000E-01   2.76144E-01
  opls_838  H838     1.0080     0.000    A    2.50000E-01   1.25520E-01
  opls_822  H822     1.0080     0.000    A    2.50000E-01   1.25520E-01
  opls_803  C803    12.0110     0.000    A    3.50000E-01   2.76144E-01
  opls_825  H825     1.0080     0.000    A    2.50000E-01   1.25520E-01
  opls_830  H830     1.0080     0.000    A    2.50000E-01   1.25520E-01
  opls_821  H821     1.0080     0.000    A    2.50000E-01   1.25520E-01
  opls_842  H842     1.0080     0.000    A    2.50000E-01   1.25520E-01
  opls_820  H820     1.0080     0.000    A    2.50000E-01   1.25520E-01
  opls_837  H837     1.0080     0.000    A    2.50000E-01   1.25520E-01
  opls_829  H829     1.0080     0.000    A    2.50000E-01   1.25520E-01
  opls_831  H831     1.0080     0.000    A    2.50000E-01   1.25520E-01
  opls_805  C805    12.0110     0.000    A    3.55000E-01   2.92880E-01
  opls_816  H816     1.0080     0.000    A    2.50000E-01   1.25520E-01
  opls_800  C800    12.0110     0.000    A    3.50000E-01   2.76144E-01
  opls_802  C802    12.0110     0.000    A    3.50000E-01   2.76144E-01
  opls_823  H823     1.0080     0.000    A    2.50000E-01   1.25520E-01
  opls_813  C813    12.0110     0.000    A    3.50000E-01   2.76144E-01
  opls_826  H826     1.0080     0.000    A    2.50000E-01   1.25520E-01
  opls_835  H835     1.0080     0.000    A    2.50000E-01   1.25520E-01
  opls_841  H841     1.0080     0.000    A    2.50000E-01   1.25520E-01
  opls_819  H819     1.0080     0.000    A    2.50000E-01   1.25520E-01
  opls_810  C810    12.0110     0.000    A    3.50000E-01   2.76144E-01
  opls_833  H833     1.0080     0.000    A    2.50000E-01   1.25520E-01
  opls_839  H839     1.0080     0.000    A    2.50000E-01   1.25520E-01
  opls_801  C801    12.0110     0.000    A    3.50000E-01   2.76144E-01
  opls_808  C808    12.0110     0.000    A    3.50000E-01   2.76144E-01
  opls_806  O806    15.9990     0.000    A    2.96000E-01   8.78640E-01
  opls_817  H817     1.0080     0.000    A    2.50000E-01   1.25520E-01
  opls_832  H832     1.0080     0.000    A    2.50000E-01   1.25520E-01
  opls_840  H840     1.0080     0.000    A    2.50000E-01   1.25520E-01
  opls_807  C807    12.0110     0.000    A    3.50000E-01   2.76144E-01
[ moleculetype ]
; Name               nrexcl
UNK                   3
[ atoms ]
;   nr       type  resnr residue  atom   cgnr     charge       mass  
     1   opls_800      1    UNK   C00      1    -0.2371    12.0110 
     2   opls_801      1    UNK   C01      1    -0.1189    12.0110 
     3   opls_802      1    UNK   C02      1    -0.2378    12.0110 
     4   opls_803      1    UNK   C03      1    -0.1674    12.0110 
     5   opls_804      1    UNK   C04      1     -0.183    12.0110 
     6   opls_805      1    UNK   C05      1     0.3218    12.0110 
     7   opls_806      1    UNK   O06      1    -0.4474    15.9990 
     8   opls_807      1    UNK   C07      1    -0.0945    12.0110 
     9   opls_808      1    UNK   C08      1    -0.1692    12.0110 
    10   opls_809      1    UNK   C09      1    -0.1724    12.0110 
    11   opls_810      1    UNK   C0A      1    -0.1011    12.0110 
    12   opls_811      1    UNK   C0B      1    -0.1096    12.0110 
    13   opls_812      1    UNK   C0C      1     -0.237    12.0110 
    14   opls_813      1    UNK   C0D      1    -0.2359    12.0110 
    15   opls_814      1    UNK   C0E      1    -0.1714    12.0110 
    16   opls_815      1    UNK   C0F      1    -0.1727    12.0110 
    17   opls_816      1    UNK   H0G      1     0.0852     1.0080 
    18   opls_817      1    UNK   H0H      1     0.0852     1.0080 
    19   opls_818      1    UNK   H0I      1     0.0852     1.0080 
    20   opls_819      1    UNK   H0J      1     0.1003     1.0080 
    21   opls_820      1    UNK   H0K      1     0.0828     1.0080 
    22   opls_821      1    UNK   H0M      1     0.0828     1.0080 
    23   opls_822      1    UNK   H0N      1     0.0828     1.0080 
    24   opls_823      1    UNK   H0O      1     0.0941     1.0080 
    25   opls_824      1    UNK   H0P      1     0.0941     1.0080 
    26   opls_825      1    UNK   H0Q      1     0.1359     1.0080 
    27   opls_826      1    UNK   H0R      1     0.1033     1.0080 
    28   opls_827      1    UNK   H0S      1     0.0928     1.0080 
    29   opls_828      1    UNK   H0T      1     0.0902     1.0080 
    30   opls_829      1    UNK   H0U      1     0.0902     1.0080 
    31   opls_830      1    UNK   H0V      1     0.0903     1.0080 
    32   opls_831      1    UNK   H0W      1     0.0903     1.0080 
    33   opls_832      1    UNK   H0X      2     0.0955     1.0080 
    34   opls_833      1    UNK   H0Y      2     0.0963     1.0080 
    35   opls_834      1    UNK   H0Z      2     0.0806     1.0080 
    36   opls_835      1    UNK   H10      2     0.0806     1.0080 
    37   opls_836      1    UNK   H11      2     0.0806     1.0080 
    38   opls_837      1    UNK   H12      2     0.0813     1.0080 
    39   opls_838      1    UNK   H13      2     0.0813     1.0080 
    40   opls_839      1    UNK   H14      2     0.0813     1.0080 
    41   opls_840      1    UNK   H15      2     0.0949     1.0080 
    42   opls_841      1    UNK   H16      2     0.0949     1.0080 
    43   opls_842      1    UNK   H17      2     0.0902     1.0080 
    44   opls_843      1    UNK   H18      2     0.0902     1.0080 
[ bonds ]
    2     1     1      0.1529 224262.400
    3     2     1      0.1529 224262.400
    4     2     1      0.1529 224262.400
    5     4     1      0.1529 224262.400
    6     5     1      0.1522 265265.600
    7     6     1      0.1229 476976.000
    8     5     1      0.1529 224262.400
    9     8     1      0.1529 224262.400
   10     9     1      0.1529 224262.400
   11    10     1      0.1529 224262.400
   12    11     1      0.1529 224262.400
   13    12     1      0.1529 224262.400
   14    12     1      0.1529 224262.400
   15    11     1      0.1529 224262.400
   16     8     1      0.1529 224262.400
   17     1     1      0.1090 284512.000
   18     1     1      0.1090 284512.000
   19     1     1      0.1090 284512.000
   20     2     1      0.1090 284512.000
   21     3     1      0.1090 284512.000
   22     3     1      0.1090 284512.000
   23     3     1      0.1090 284512.000
   24     4     1      0.1090 284512.000
   25     4     1      0.1090 284512.000
   26     5     1      0.1090 284512.000
   27     6     1      0.1090 284512.000
   28     8     1      0.1090 284512.000
   29     9     1      0.1090 284512.000
   30     9     1      0.1090 284512.000
   31    10     1      0.1090 284512.000
   32    10     1      0.1090 284512.000
   33    11     1      0.1090 284512.000
   34    12     1      0.1090 284512.000
   35    13     1      0.1090 284512.000
   36    13     1      0.1090 284512.000
   37    13     1      0.1090 284512.000
   38    14     1      0.1090 284512.000
   39    14     1      0.1090 284512.000
   40    14     1      0.1090 284512.000
   41    15     1      0.1090 284512.000
   42    15     1      0.1090 284512.000
   43    16     1      0.1090 284512.000
   44    16     1      0.1090 284512.000
   16    15     1      0.1529 224262.400

[ angles ]
;  ai    aj    ak funct            c0            c1            c2            c3 
    1     2     3     1    112.700    488.273
    1     2     4     1    112.700    488.273
    2     4     5     1    112.700    488.273
    4     5     6     1    111.100    527.184
    5     6     7     1    120.400    669.440
    4     5     8     1    112.700    488.273
    5     8     9     1    112.700    488.273
    8     9    10     1    112.700    488.273
    9    10    11     1    112.700    488.273
   10    11    12     1    112.700    488.273
   11    12    13     1    112.700    488.273
   11    12    14     1    112.700    488.273
   10    11    15     1    112.700    488.273
    5     8    16     1    112.700    488.273
    2     1    17     1    110.700    313.800
    2     1    18     1    110.700    313.800
    2     1    19     1    110.700    313.800
    1     2    20     1    110.700    313.800
    2     3    21     1    110.700    313.800
    2     3    22     1    110.700    313.800
    2     3    23     1    110.700    313.800
    2     4    24     1    110.700    313.800
    2     4    25     1    110.700    313.800
    4     5    26     1    110.700    313.800
    5     6    27     1    115.000    292.880
    5     8    28     1    110.700    313.800
    8     9    29     1    110.700    313.800
    8     9    30     1    110.700    313.800
    9    10    31     1    110.700    313.800
    9    10    32     1    110.700    313.800
   10    11    33     1    110.700    313.800
   11    12    34     1    110.700    313.800
   12    13    35     1    110.700    313.800
   12    13    36     1    110.700    313.800
   12    13    37     1    110.700    313.800
   12    14    38     1    110.700    313.800
   12    14    39     1    110.700    313.800
   12    14    40     1    110.700    313.800
   11    15    41     1    110.700    313.800
   11    15    42     1    110.700    313.800
    8    16    43     1    110.700    313.800
    8    16    44     1    110.700    313.800
   29     9    30     1    107.800    276.144
   13    12    14     1    112.700    488.273
   12    11    15     1    112.700    488.273
   22     3    23     1    107.800    276.144
   21     3    22     1    107.800    276.144
   21     3    23     1    107.800    276.144
   16    15    42     1    110.700    313.800
    6     5    26     1    109.500    292.880
    9     8    16     1    112.700    488.273
    8     5    26     1    110.700    313.800
   36    13    37     1    107.800    276.144
   16    15    41     1    110.700    313.800
   10     9    29     1    110.700    313.800
   24     4    25     1    107.800    276.144
   31    10    32     1    107.800    276.144
    5     4    24     1    110.700    313.800
   13    12    34     1    110.700    313.800
   35    13    37     1    107.800    276.144
   18     1    19     1    107.800    276.144
    7     6    27     1    123.000    292.880
    5     4    25     1    110.700    313.800
   35    13    36     1    107.800    276.144
   38    14    39     1    107.800    276.144
   41    15    42     1    107.800    276.144
    3     2    20     1    110.700    313.800
   16     8    28     1    110.700    313.800
    4     2    20     1    110.700    313.800
   15    16    44     1    110.700    313.800
   38    14    40     1    107.800    276.144
   43    16    44     1    107.800    276.144
   11    10    31     1    110.700    313.800
   17     1    19     1    107.800    276.144
   11    15    16     1    112.700    488.273
   14    12    34     1    110.700    313.800
   39    14    40     1    107.800    276.144
   12    11    33     1    110.700    313.800
   15    16    43     1    110.700    313.800
   15    11    33     1    110.700    313.800
    9     8    28     1    110.700    313.800
   10     9    30     1    110.700    313.800
   11    10    32     1    110.700    313.800
    3     2     4     1    112.700    488.273
    6     5     8     1    111.100    527.184
   17     1    18     1    107.800    276.144
    8    16    15     1    112.700    488.273

[ dihedrals ]
; IMPROPER DIHEDRAL ANGLES 
;  ai    aj    ak    al funct            c0            c1            c2            c3            c4            c5
    27     6     5     7    4        180.000     43.932     2  

[ dihedrals ]
; PROPER DIHEDRAL ANGLES
;  ai    aj    ak    al funct            c0            c1            c2            c3            c4            c5
    6    5    4    2        3      -4.960   6.286   1.310  -2.636  -0.000   0.000
    8    5    6    7        3       0.000   0.000   0.000  -0.000  -0.000   0.000
   16    8    5    6        3      -4.960   6.286   1.310  -2.636  -0.000   0.000
    9    8    5    6        3      -4.960   6.286   1.310  -2.636  -0.000   0.000
   11   15   16    8        3       2.301  -1.464   0.837  -1.674  -0.000   0.000
   16   15   11   12        3       2.301  -1.464   0.837  -1.674  -0.000   0.000
   16   15   11   10        3       2.301  -1.464   0.837  -1.674  -0.000   0.000
   15   11   10    9        3       2.301  -1.464   0.837  -1.674  -0.000   0.000
   15   11   12   14        3       2.301  -1.464   0.837  -1.674  -0.000   0.000
    5    4    2    3        3       2.301  -1.464   0.837  -1.674  -0.000   0.000
    8    5    4    2        3       2.301  -1.464   0.837  -1.674  -0.000   0.000
   15   11   12   13        3       2.301  -1.464   0.837  -1.674  -0.000   0.000
   16    8    9   10        3       2.301  -1.464   0.837  -1.674  -0.000   0.000
   16    8    5    4        3       2.301  -1.464   0.837  -1.674  -0.000   0.000
   15   16    8    9        3       2.301  -1.464   0.837  -1.674  -0.000   0.000
   14   12   11   10        3       2.301  -1.464   0.837  -1.674  -0.000   0.000
   15   16    8    5        3       2.301  -1.464   0.837  -1.674  -0.000   0.000
    9    8    5    4        3       2.301  -1.464   0.837  -1.674  -0.000   0.000
   11   10    9    8        3       2.301  -1.464   0.837  -1.674  -0.000   0.000
   10    9    8    5        3       2.301  -1.464   0.837  -1.674  -0.000   0.000
    5    4    2    1        3       2.301  -1.464   0.837  -1.674  -0.000   0.000
   13   12   11   10        3       2.301  -1.464   0.837  -1.674  -0.000   0.000
   12   11   10    9        3       2.301  -1.464   0.837  -1.674  -0.000   0.000
   27    6    5    8        3       0.000   0.000   0.000  -0.000  -0.000   0.000
   27    6    5    4        3       0.000   0.000   0.000  -0.000  -0.000   0.000
   27    6    5   26        3       0.753   2.259   0.000  -3.012  -0.000   0.000
   26    5    6    7        3       0.000   0.000   0.000  -0.000  -0.000   0.000
   28    8    5    6        3      -0.209  -0.628   0.000   0.837  -0.000   0.000
   24    4    5    6        3      -0.209  -0.628   0.000   0.837  -0.000   0.000
   25    4    5    6        3      -0.209  -0.628   0.000   0.837  -0.000   0.000
   37   13   12   14        3       0.628   1.883   0.000  -2.510  -0.000   0.000
   24    4    5    8        3       0.628   1.883   0.000  -2.510  -0.000   0.000
   41   15   11   12        3       0.628   1.883   0.000  -2.510  -0.000   0.000
   22    3    2    1        3       0.628   1.883   0.000  -2.510  -0.000   0.000
   41   15   16    8        3       0.628   1.883   0.000  -2.510  -0.000   0.000
   26    5    8   16        3       0.628   1.883   0.000  -2.510  -0.000   0.000
   17    1    2    3        3       0.628   1.883   0.000  -2.510  -0.000   0.000
   28    8   16   15        3       0.628   1.883   0.000  -2.510  -0.000   0.000
   39   14   12   11        3       0.628   1.883   0.000  -2.510  -0.000   0.000
   26    5    8    9        3       0.628   1.883   0.000  -2.510  -0.000   0.000
   25    4    2    3        3       0.628   1.883   0.000  -2.510  -0.000   0.000
   31   10    9    8        3       0.628   1.883   0.000  -2.510  -0.000   0.000
   29    9    8    5        3       0.628   1.883   0.000  -2.510  -0.000   0.000
   32   10    9    8        3       0.628   1.883   0.000  -2.510  -0.000   0.000
   34   12   11   15        3       0.628   1.883   0.000  -2.510  -0.000   0.000
   19    1    2    4        3       0.628   1.883   0.000  -2.510  -0.000   0.000
   24    4    2    1        3       0.628   1.883   0.000  -2.510  -0.000   0.000
   34   12   11   10        3       0.628   1.883   0.000  -2.510  -0.000   0.000
   23    3    2    1        3       0.628   1.883   0.000  -2.510  -0.000   0.000
   20    2    4    5        3       0.628   1.883   0.000  -2.510  -0.000   0.000
   39   14   12   13        3       0.628   1.883   0.000  -2.510  -0.000   0.000
   33   11   10    9        3       0.628   1.883   0.000  -2.510  -0.000   0.000
   44   16   15   11        3       0.628   1.883   0.000  -2.510  -0.000   0.000
   21    3    2    4        3       0.628   1.883   0.000  -2.510  -0.000   0.000
   35   13   12   14        3       0.628   1.883   0.000  -2.510  -0.000   0.000
   30    9    8    5        3       0.628   1.883   0.000  -2.510  -0.000   0.000
   18    1    2    3        3       0.628   1.883   0.000  -2.510  -0.000   0.000
   17    1    2    4        3       0.628   1.883   0.000  -2.510  -0.000   0.000
   41   15   11   10        3       0.628   1.883   0.000  -2.510  -0.000   0.000
   25    4    5    8        3       0.628   1.883   0.000  -2.510  -0.000   0.000
   29    9   10   11        3       0.628   1.883   0.000  -2.510  -0.000   0.000
   33   11   15   16        3       0.628   1.883   0.000  -2.510  -0.000   0.000
   30    9   10   11        3       0.628   1.883   0.000  -2.510  -0.000   0.000
   43   16    8    9        3       0.628   1.883   0.000  -2.510  -0.000   0.000
   33   11   12   14        3       0.628   1.883   0.000  -2.510  -0.000   0.000
   24    4    2    3        3       0.628   1.883   0.000  -2.510  -0.000   0.000
   32   10   11   12        3       0.628   1.883   0.000  -2.510  -0.000   0.000
   31   10   11   12        3       0.628   1.883   0.000  -2.510  -0.000   0.000
   32   10   11   15        3       0.628   1.883   0.000  -2.510  -0.000   0.000
   42   15   16    8        3       0.628   1.883   0.000  -2.510  -0.000   0.000
   43   16   15   11        3       0.628   1.883   0.000  -2.510  -0.000   0.000
   38   14   12   11        3       0.628   1.883   0.000  -2.510  -0.000   0.000
   40   14   12   13        3       0.628   1.883   0.000  -2.510  -0.000   0.000
   30    9    8   16        3       0.628   1.883   0.000  -2.510  -0.000   0.000
   35   13   12   11        3       0.628   1.883   0.000  -2.510  -0.000   0.000
   25    4    2    1        3       0.628   1.883   0.000  -2.510  -0.000   0.000
   42   15   11   10        3       0.628   1.883   0.000  -2.510  -0.000   0.000
   37   13   12   11        3       0.628   1.883   0.000  -2.510  -0.000   0.000
   26    5    4    2        3       0.628   1.883   0.000  -2.510  -0.000   0.000
   22    3    2    4        3       0.628   1.883   0.000  -2.510  -0.000   0.000
   29    9    8   16        3       0.628   1.883   0.000  -2.510  -0.000   0.000
   36   13   12   11        3       0.628   1.883   0.000  -2.510  -0.000   0.000
   42   15   11   12        3       0.628   1.883   0.000  -2.510  -0.000   0.000
   23    3    2    4        3       0.628   1.883   0.000  -2.510  -0.000   0.000
   21    3    2    1        3       0.628   1.883   0.000  -2.510  -0.000   0.000
   31   10   11   15        3       0.628   1.883   0.000  -2.510  -0.000   0.000
   38   14   12   13        3       0.628   1.883   0.000  -2.510  -0.000   0.000
   28    8    5    4        3       0.628   1.883   0.000  -2.510  -0.000   0.000
   28    8    9   10        3       0.628   1.883   0.000  -2.510  -0.000   0.000
   18    1    2    4        3       0.628   1.883   0.000  -2.510  -0.000   0.000
   33   11   12   13        3       0.628   1.883   0.000  -2.510  -0.000   0.000
   43   16    8    5        3       0.628   1.883   0.000  -2.510  -0.000   0.000
   44   16    8    9        3       0.628   1.883   0.000  -2.510  -0.000   0.000
   19    1    2    3        3       0.628   1.883   0.000  -2.510  -0.000   0.000
   36   13   12   14        3       0.628   1.883   0.000  -2.510  -0.000   0.000
   44   16    8    5        3       0.628   1.883   0.000  -2.510  -0.000   0.000
   40   14   12   11        3       0.628   1.883   0.000  -2.510  -0.000   0.000
   33   11   10   31        3       0.628   1.883   0.000  -2.510  -0.000   0.000
   44   16   15   41        3       0.628   1.883   0.000  -2.510  -0.000   0.000
   43   16   15   41        3       0.628   1.883   0.000  -2.510  -0.000   0.000
   32   10    9   29        3       0.628   1.883   0.000  -2.510  -0.000   0.000
   34   12   11   33        3       0.628   1.883   0.000  -2.510  -0.000   0.000
   42   15   11   33        3       0.628   1.883   0.000  -2.510  -0.000   0.000
   26    5    4   25        3       0.628   1.883   0.000  -2.510  -0.000   0.000
   22    3    2   20        3       0.628   1.883   0.000  -2.510  -0.000   0.000
   43   16    8   28        3       0.628   1.883   0.000  -2.510  -0.000   0.000
   21    3    2   20        3       0.628   1.883   0.000  -2.510  -0.000   0.000
   25    4    2   20        3       0.628   1.883   0.000  -2.510  -0.000   0.000
   38   14   12   34        3       0.628   1.883   0.000  -2.510  -0.000   0.000
   40   14   12   34        3       0.628   1.883   0.000  -2.510  -0.000   0.000
   20    2    1   18        3       0.628   1.883   0.000  -2.510  -0.000   0.000
   41   15   11   33        3       0.628   1.883   0.000  -2.510  -0.000   0.000
   23    3    2   20        3       0.628   1.883   0.000  -2.510  -0.000   0.000
   31   10    9   29        3       0.628   1.883   0.000  -2.510  -0.000   0.000
   24    4    2   20        3       0.628   1.883   0.000  -2.510  -0.000   0.000
   31   10    9   30        3       0.628   1.883   0.000  -2.510  -0.000   0.000
   32   10    9   30        3       0.628   1.883   0.000  -2.510  -0.000   0.000
   20    2    1   17        3       0.628   1.883   0.000  -2.510  -0.000   0.000
   44   16   15   42        3       0.628   1.883   0.000  -2.510  -0.000   0.000
   30    9    8   28        3       0.628   1.883   0.000  -2.510  -0.000   0.000
   36   13   12   34        3       0.628   1.883   0.000  -2.510  -0.000   0.000
   39   14   12   34        3       0.628   1.883   0.000  -2.510  -0.000   0.000
   44   16    8   28        3       0.628   1.883   0.000  -2.510  -0.000   0.000
   26    5    4   24        3       0.628   1.883   0.000  -2.510  -0.000   0.000
   33   11   10   32        3       0.628   1.883   0.000  -2.510  -0.000   0.000
   28    8    5   26        3       0.628   1.883   0.000  -2.510  -0.000   0.000
   29    9    8   28        3       0.628   1.883   0.000  -2.510  -0.000   0.000
   20    2    1   19        3       0.628   1.883   0.000  -2.510  -0.000   0.000
   37   13   12   34        3       0.628   1.883   0.000  -2.510  -0.000   0.000
   35   13   12   34        3       0.628   1.883   0.000  -2.510  -0.000   0.000
   43   16   15   42        3       0.628   1.883   0.000  -2.510  -0.000   0.000
    7    6    5    4        3       0.000   0.000   0.000  -0.000  -0.000   0.000

[ pairs ]
     1     5    1
     3     5    1
     2     6    1
     2     8    1
     4     7    1
     4     9    1
     7     8    1
     6     9    1
     5    10    1
     8    11    1
     5    15    1
     4    16    1
     3    17    1
     9    12    1
     4    17    1
     3    18    1
     6    16    1
     4    18    1
     3    19    1
     1    21    1
    10    13    1
     4    19    1
     1    22    1
    10    14    1
     9    15    1
     1    23    1
     5    20    1
     4    21    1
     1    24    1
    10    16    1
     4    22    1
     1    25    1
     4    23    1
     3    24    1
    13    15    1
    12    16    1
     3    25    1
     2    26    1
    14    15    1
     6    24    1
     6    25    1
     4    27    1
     8    24    1
     4    28    1
     8    25    1
     7    26    1
     6    28    1
     5    29    1
     9    26    1
     8    27    1
     5    30    1
    17    20    1
    18    20    1
    10    28    1
    19    20    1
     8    31    1
    11    29    1
     8    32    1
    20    21    1
    11    30    1
    20    22    1
    16    26    1
     9    33    1
    20    23    1
    15    28    1
    12    31    1
    20    24    1
    12    32    1
    10    34    1
    20    25    1
    16    29    1
    16    30    1
    15    31    1
    13    33    1
    11    35    1
    15    32    1
    14    33    1
    11    36    1
    11    37    1
     5    43    1
    16    33    1
    15    34    1
    14    35    1
    11    38    1
     8    41    1
     5    44    1
    24    26    1
    14    36    1
    11    39    1
     8    42    1
    25    26    1
    14    37    1
    13    38    1
    11    40    1
    10    41    1
    13    39    1
    10    42    1
     9    43    1
    26    27    1
    13    40    1
    12    41    1
     9    44    1
    26    28    1
    12    42    1
    11    43    1
    11    44    1
    28    29    1
    28    30    1
    29    31    1
    30    31    1
    29    32    1
    30    32    1
    31    33    1
    32    33    1
    33    34    1
    34    35    1
    34    36    1
    34    37    1
    28    43    1
    34    38    1
    28    44    1
    34    39    1
    34    40    1
    33    41    1
    33    42    1
    41    43    1
    42    43    1
    41    44    1
    42    44    1

