LIGPARGEN GENERATED GRO FILE
   44
    1UNK    C00    1   0.100   0.100   0.000
    1UNK    C01    2  -0.053   0.100   0.000
    1UNK    C02    3  -0.103   0.100   0.145
    1UNK    C03    4  -0.112   0.222  -0.074
    1UNK    C04    5  -0.072   0.238  -0.223
    1UNK    C05    6  -0.128   0.119  -0.299
    1UNK    O06    7  -0.057   0.041  -0.363
    1UNK    C07    8  -0.128   0.371  -0.283
    1UNK    C08    9  -0.065   0.496  -0.218
    1UNK    C09   10   0.081   0.516  -0.261
    1UNK    C0A   11   0.096   0.532  -0.413
    1UNK    C0B   12   0.044   0.670  -0.465
    1UNK    C0C   13   0.120   0.787  -0.401
    1UNK    C0D   14   0.056   0.684  -0.618
    1UNK    C0E   15   0.031   0.409  -0.481
    1UNK    C0F   16  -0.113   0.383  -0.436
    1UNK    H0G   17   0.138   0.014   0.057
    1UNK    H0H   18   0.140   0.191   0.046
    1UNK    H0I   19   0.140   0.092  -0.101
    1UNK    H0J   20  -0.087   0.007  -0.048
    1UNK    H0K   21  -0.086   0.197   0.193
    1UNK    H0M   22  -0.053   0.023   0.205
    1UNK    H0N   23  -0.211   0.080   0.149
    1UNK    H0O   24  -0.082   0.311  -0.018
    1UNK    H0P   25  -0.222   0.216  -0.067
    1UNK    H0Q   26   0.036   0.235  -0.234
    1UNK    H0R   27  -0.237   0.105  -0.295
    1UNK    H0S   28  -0.236   0.373  -0.262
    1UNK    H0T   29  -0.070   0.492  -0.109
    1UNK    H0U   30  -0.124   0.584  -0.246
    1UNK    H0V   31   0.141   0.430  -0.228
    1UNK    H0W   32   0.123   0.602  -0.207
    1UNK    H0X   33   0.203   0.528  -0.436
    1UNK    H0Y   34  -0.062   0.682  -0.440
    1UNK    H0Z   35   0.228   0.776  -0.415
    1UNK    H10   36   0.099   0.794  -0.293
    1UNK    H11   37   0.089   0.883  -0.445
    1UNK    H12   38   0.158   0.661  -0.651
    1UNK    H13   39   0.032   0.786  -0.650
    1UNK    H14   40  -0.013   0.617  -0.670
    1UNK    H15   41   0.091   0.321  -0.459
    1UNK    H16   42   0.033   0.419  -0.590
    1UNK    H17   43  -0.151   0.294  -0.487
    1UNK    H18   44  -0.176   0.466  -0.471
   1.00000   1.00000   1.00000

