LIGPARGEN GENERATED GRO FILE
   27
    1UNK    C00    1   0.100   0.100   0.000
    1UNK    C01    2  -0.056   0.100   0.000
    1UNK    C02    3  -0.125   0.100   0.140
    1UNK    C03    4  -0.151  -0.027   0.230
    1UNK    C04    5  -0.072   0.040   0.349
    1UNK    C05    6   0.084   0.004   0.344
    1UNK    C06    7   0.240   0.012   0.341
    1UNK    C07    8   0.281   0.022   0.188
    1UNK    C08    9   0.143   0.033   0.126
    1UNK    C09   10   0.084   0.117   0.236
    1UNK    C0A   11  -0.056   0.161   0.262
    1UNK    H0B   12   0.137   0.203  -0.005
    1UNK    H0C   13   0.137   0.048  -0.089
    1UNK    H0D   14  -0.093   0.014  -0.056
    1UNK    H0E   15  -0.088   0.189  -0.055
    1UNK    H0F   16  -0.222   0.150   0.123
    1UNK    H0G   17  -0.110  -0.121   0.191
    1UNK    H0H   18  -0.257  -0.043   0.252
    1UNK    H0I   19  -0.121   0.049   0.445
    1UNK    H0J   20   0.077  -0.104   0.320
    1UNK    H0K   21   0.284  -0.079   0.385
    1UNK    H0M   22   0.278   0.097   0.399
    1UNK    H0N   23   0.337  -0.066   0.154
    1UNK    H0O   24   0.342   0.111   0.172
    1UNK    H0P   25   0.103  -0.070   0.119
    1UNK    H0Q   26   0.145   0.207   0.256
    1UNK    H0R   27  -0.078   0.261   0.300
   1.00000   1.00000   1.00000

