
;
; GENERATED BY LigParGen Server
; Jorgensen Lab @ Yale University 
;
[ atomtypes ]
  opls_818  H818     1.0080     0.000    A    2.50000E-01   1.25520E-01
  opls_804  C804    12.0110     0.000    A    3.45000E-01   3.47272E-01
  opls_824  H824     1.0080     0.000    A    2.50000E-01   1.25520E-01
  opls_810  C810    12.0110     0.000    A    3.45000E-01   3.47272E-01
  opls_813  H813     1.0080     0.000    A    2.50000E-01   1.25520E-01
  opls_803  C803    12.0110     0.000    A    3.45000E-01   3.47272E-01
  opls_806  C806    12.0110     0.000    A    3.50000E-01   2.76144E-01
  opls_815  H815     1.0080     0.000    A    2.50000E-01   1.25520E-01
  opls_801  C801    12.0110     0.000    A    3.50000E-01   2.76144E-01
  opls_822  H822     1.0080     0.000    A    2.50000E-01   1.25520E-01
  opls_807  C807    12.0110     0.000    A    3.50000E-01   2.76144E-01
  opls_825  H825     1.0080     0.000    A    2.50000E-01   1.25520E-01
  opls_826  H826     1.0080     0.000    A    2.50000E-01   1.25520E-01
  opls_814  H814     1.0080     0.000    A    2.50000E-01   1.25520E-01
  opls_821  H821     1.0080     0.000    A    2.50000E-01   1.25520E-01
  opls_820  H820     1.0080     0.000    A    2.50000E-01   1.25520E-01
  opls_811  H811     1.0080     0.000    A    2.50000E-01   1.25520E-01
  opls_805  C805    12.0110     0.000    A    3.45000E-01   3.47272E-01
  opls_816  H816     1.0080     0.000    A    2.50000E-01   1.25520E-01
  opls_800  C800    12.0110     0.000    A    3.50000E-01   2.76144E-01
  opls_823  H823     1.0080     0.000    A    2.50000E-01   1.25520E-01
  opls_802  C802    12.0110     0.000    A    3.45000E-01   3.47272E-01
  opls_819  H819     1.0080     0.000    A    2.50000E-01   1.25520E-01
  opls_808  C808    12.0110     0.000    A    3.50000E-01   2.76144E-01
  opls_817  H817     1.0080     0.000    A    2.50000E-01   1.25520E-01
  opls_809  C809    12.0110     0.000    A    3.45000E-01   3.47272E-01
  opls_812  H812     1.0080     0.000    A    2.50000E-01   1.25520E-01
[ moleculetype ]
; Name               nrexcl
UNK                   3
[ atoms ]
;   nr       type  resnr residue  atom   cgnr     charge       mass  
     1   opls_800      1    UNK   C00      1    -0.1599    12.0110 
     2   opls_801      1    UNK   C01      1    -0.1461    12.0110 
     3   opls_802      1    UNK   C02      1    -0.1281    12.0110 
     4   opls_803      1    UNK   C03      1    -0.1676    12.0110 
     5   opls_804      1    UNK   C04      1    -0.0502    12.0110 
     6   opls_805      1    UNK   C05      1    -0.2438    12.0110 
     7   opls_806      1    UNK   C06      1    -0.0987    12.0110 
     8   opls_807      1    UNK   C07      1    -0.1652    12.0110 
     9   opls_808      1    UNK   C08      1    -0.1120    12.0110 
    10   opls_809      1    UNK   C09      1    -0.1684    12.0110 
    11   opls_810      1    UNK   C0A      1    -0.1575    12.0110 
    12   opls_811      1    UNK   H0B      1     0.0877     1.0080 
    13   opls_812      1    UNK   H0C      1     0.0877     1.0080 
    14   opls_813      1    UNK   H0D      1     0.0898     1.0080 
    15   opls_814      1    UNK   H0E      1     0.0898     1.0080 
    16   opls_815      1    UNK   H0F      1     0.0847     1.0080 
    17   opls_816      1    UNK   H0G      1     0.1052     1.0080 
    18   opls_817      1    UNK   H0H      1     0.1052     1.0080 
    19   opls_818      1    UNK   H0I      1     0.1238     1.0080 
    20   opls_819      1    UNK   H0J      1     0.0856     1.0080 
    21   opls_820      1    UNK   H0K      1     0.0854     1.0080 
    22   opls_821      1    UNK   H0M      1     0.0854     1.0080 
    23   opls_822      1    UNK   H0N      1     0.0986     1.0080 
    24   opls_823      1    UNK   H0O      1     0.0986     1.0080 
    25   opls_824      1    UNK   H0P      1     0.1081     1.0080 
    26   opls_825      1    UNK   H0Q      1     0.1159     1.0080 
    27   opls_826      1    UNK   H0R      1     0.1461     1.0080 
[ bonds ]
    2     1     1      0.1529 224262.400
    3     2     1      0.1510 234304.000
    4     3     1      0.1520 217568.000
    5     4     1      0.1520 217568.000
    6     5     1      0.1520 217568.000
    7     6     1      0.1510 234304.000
    8     7     1      0.1529 224262.400
    9     1     1      0.1529 224262.400
   10     6     1      0.1520 217568.000
   11     3     1      0.1520 217568.000
   12     1     1      0.1090 284512.000
   13     1     1      0.1090 284512.000
   14     2     1      0.1090 284512.000
   15     2     1      0.1090 284512.000
   16     3     1      0.1088 284512.000
   17     4     1      0.1088 284512.000
   18     4     1      0.1088 284512.000
   19     5     1      0.1088 284512.000
   20     6     1      0.1088 284512.000
   21     7     1      0.1090 284512.000
   22     7     1      0.1090 284512.000
   23     8     1      0.1090 284512.000
   24     8     1      0.1090 284512.000
   25     9     1      0.1090 284512.000
   26    10     1      0.1088 284512.000
   27    11     1      0.1088 284512.000
   11     5     1      0.1520 217568.000
    9     8     1      0.1529 224262.400
   10     9     1      0.1510 234304.000
   11    10     1      0.1520 217568.000

[ angles ]
;  ai    aj    ak funct            c0            c1            c2            c3 
    1     2     3     1    112.700    488.273
    2     3     4     1    117.200    313.800
    3     4     5     1     83.000    251.040
    4     5     6     1     83.000    251.040
    5     6     7     1    117.200    313.800
    6     7     8     1    112.700    488.273
    2     1     9     1    112.700    488.273
    5     6    10     1     83.000    251.040
    2     3    11     1    117.200    313.800
    2     1    12     1    110.700    313.800
    2     1    13     1    110.700    313.800
    1     2    14     1    110.700    313.800
    1     2    15     1    110.700    313.800
    2     3    16     1    114.300    292.880
    3     4    17     1    117.200    313.800
    3     4    18     1    117.200    313.800
    4     5    19     1    117.200    313.800
    5     6    20     1    117.200    313.800
    6     7    21     1    110.700    313.800
    6     7    22     1    110.700    313.800
    7     8    23     1    110.700    313.800
    7     8    24     1    110.700    313.800
    1     9    25     1    110.700    313.800
    6    10    26     1    117.200    313.800
    3    11    27     1    117.200    313.800
    9     1    13     1    110.700    313.800
    9    10    26     1    114.300    292.880
    4     3    11     1     83.000    251.040
    3     2    15     1    110.700    313.800
   10     6    20     1    117.200    313.800
   23     8    24     1    107.800    276.144
    6     5    19     1    117.200    313.800
   12     1    13     1    107.800    276.144
    3    11     5     1     83.000    251.040
   17     4    18     1    114.300    292.880
    6     5    11     1     83.000    251.040
   14     2    15     1    107.800    276.144
    9     1    12     1    110.700    313.800
    6    10    11     1     83.000    251.040
    3     2    14     1    110.700    313.800
    9     8    24     1    110.700    313.800
    5    11    10     1     83.000    251.040
    4     5    11     1     83.000    251.040
   21     7    22     1    107.800    276.144
    6    10     9     1    117.200    313.800
   11     5    19     1    117.200    313.800
   10     9    25     1    110.700    313.800
    7     6    10     1    117.200    313.800
    1     9     8     1    112.700    488.273
    8     7    22     1    110.700    313.800
    9     8    23     1    110.700    313.800
   11    10    26     1    117.200    313.800
   10    11    27     1    117.200    313.800
    8     7    21     1    110.700    313.800
    9    10    11     1    117.200    313.800
   11     3    16     1    117.200    313.800
    4     3    16     1    117.200    313.800
    1     9    10     1    112.700    488.273
    8     9    25     1    110.700    313.800
    8     9    10     1    112.700    488.273
    5     4    18     1    117.200    313.800
    7     8     9     1    112.700    488.273
    3    11    10     1     83.000    251.040
    7     6    20     1    114.300    292.880
    5    11    27     1    117.200    313.800
    5     4    17     1    117.200    313.800

[ dihedrals ]
; IMPROPER DIHEDRAL ANGLES 
;  ai    aj    ak    al funct            c0            c1            c2            c3            c4            c5

[ dihedrals ]
; PROPER DIHEDRAL ANGLES
;  ai    aj    ak    al funct            c0            c1            c2            c3            c4            c5
    8    9    1    2        3       2.301  -1.464   0.837  -1.674  -0.000   0.000
    7    8    9    1        3       2.301  -1.464   0.837  -1.674  -0.000   0.000
    9    8    7    6        3       2.301  -1.464   0.837  -1.674  -0.000   0.000
    9    1    2    3        3       2.301  -1.464   0.837  -1.674  -0.000   0.000
    8    9   10    6        3       0.000   0.000   0.000  -0.000  -0.000   0.000
    8    7    6    5        3       0.000   0.000   0.000  -0.000  -0.000   0.000
    9   10    6    7        3       0.000   0.000   0.000  -0.000  -0.000   0.000
    9   10   11    5        3       0.000   0.000   0.000  -0.000  -0.000   0.000
    9   10    6    5        3       0.000   0.000   0.000  -0.000  -0.000   0.000
    9   10   11    3        3       0.000   0.000   0.000  -0.000  -0.000   0.000
    7    6    5    4        3       0.000   0.000   0.000  -0.000  -0.000   0.000
   10    9    1    2        3       2.301  -1.464   0.837  -1.674  -0.000   0.000
   10    9    8    7        3       2.301  -1.464   0.837  -1.674  -0.000   0.000
   11    3    2    1        3       0.000   0.000   0.000  -0.000  -0.000   0.000
   10    6    7    8        3       0.000   0.000   0.000  -0.000  -0.000   0.000
   11   10    9    8        3       0.000   0.000   0.000  -0.000  -0.000   0.000
   11   10    9    1        3       0.000   0.000   0.000  -0.000  -0.000   0.000
    6   10    9    1        3       0.000   0.000   0.000  -0.000  -0.000   0.000
    4    3    2    1        3       0.000   0.000   0.000  -0.000  -0.000   0.000
   11   10    6    7        3       0.000   0.000   0.000  -0.000  -0.000   0.000
    5    4    3    2        3       0.000   0.000   0.000  -0.000  -0.000   0.000
   11    5    6    7        3       0.000   0.000   0.000  -0.000  -0.000   0.000
   10   11    3    2        3       0.000   0.000   0.000  -0.000  -0.000   0.000
    5   11    3    2        3       0.000   0.000   0.000  -0.000  -0.000   0.000
    6   10   11    3        3       0.000   0.000   0.000  -0.000  -0.000   0.000
   10    6    5    4        3       0.000   0.000   0.000  -0.000  -0.000   0.000
    6    5   11    3        3       0.000   0.000   0.000  -0.000  -0.000   0.000
   10   11    5    4        3       0.000   0.000   0.000  -0.000  -0.000   0.000
    6    5    4    3        3       0.000   0.000   0.000  -0.000  -0.000   0.000
   10   11    3    4        3       0.000   0.000   0.000  -0.000  -0.000   0.000
   25    9    8    7        3       0.628   1.883   0.000  -2.510  -0.000   0.000
   25    9    1    2        3       0.628   1.883   0.000  -2.510  -0.000   0.000
   12    1    9    8        3       0.628   1.883   0.000  -2.510  -0.000   0.000
   23    8    9    1        3       0.628   1.883   0.000  -2.510  -0.000   0.000
   24    8    9    1        3       0.628   1.883   0.000  -2.510  -0.000   0.000
   14    2    1    9        3       0.628   1.883   0.000  -2.510  -0.000   0.000
   21    7    8    9        3       0.628   1.883   0.000  -2.510  -0.000   0.000
   13    1    9    8        3       0.628   1.883   0.000  -2.510  -0.000   0.000
   22    7    8    9        3       0.628   1.883   0.000  -2.510  -0.000   0.000
   15    2    1    9        3       0.628   1.883   0.000  -2.510  -0.000   0.000
   23    8    7    6        3       0.628   1.883   0.000  -2.510  -0.000   0.000
   12    1    9   10        3       0.628   1.883   0.000  -2.510  -0.000   0.000
   13    1    9   10        3       0.628   1.883   0.000  -2.510  -0.000   0.000
   13    1    2    3        3       0.628   1.883   0.000  -2.510  -0.000   0.000
   24    8    9   10        3       0.628   1.883   0.000  -2.510  -0.000   0.000
   12    1    2    3        3       0.628   1.883   0.000  -2.510  -0.000   0.000
   23    8    9   10        3       0.628   1.883   0.000  -2.510  -0.000   0.000
   24    8    7    6        3       0.628   1.883   0.000  -2.510  -0.000   0.000
   25    9    1   12        3       0.628   1.883   0.000  -2.510  -0.000   0.000
   15    2    1   12        3       0.628   1.883   0.000  -2.510  -0.000   0.000
   15    2    1   13        3       0.628   1.883   0.000  -2.510  -0.000   0.000
   25    9    8   24        3       0.628   1.883   0.000  -2.510  -0.000   0.000
   23    8    7   21        3       0.628   1.883   0.000  -2.510  -0.000   0.000
   25    9    8   23        3       0.628   1.883   0.000  -2.510  -0.000   0.000
   25    9    1   13        3       0.628   1.883   0.000  -2.510  -0.000   0.000
   14    2    1   12        3       0.628   1.883   0.000  -2.510  -0.000   0.000
   23    8    7   22        3       0.628   1.883   0.000  -2.510  -0.000   0.000
   24    8    7   21        3       0.628   1.883   0.000  -2.510  -0.000   0.000
   14    2    1   13        3       0.628   1.883   0.000  -2.510  -0.000   0.000
   24    8    7   22        3       0.628   1.883   0.000  -2.510  -0.000   0.000
   25    9   10    6        3       0.628   1.883   0.000  -2.510  -0.000   0.000
   14    2    3   11        3       0.628   1.883   0.000  -2.510  -0.000   0.000
   15    2    3    4        3       0.628   1.883   0.000  -2.510  -0.000   0.000
   21    7    6    5        3       0.628   1.883   0.000  -2.510  -0.000   0.000
   25    9   10   11        3       0.628   1.883   0.000  -2.510  -0.000   0.000
   21    7    6   10        3       0.628   1.883   0.000  -2.510  -0.000   0.000
   15    2    3   11        3       0.628   1.883   0.000  -2.510  -0.000   0.000
   22    7    6    5        3       0.628   1.883   0.000  -2.510  -0.000   0.000
   22    7    6   10        3       0.628   1.883   0.000  -2.510  -0.000   0.000
   14    2    3    4        3       0.628   1.883   0.000  -2.510  -0.000   0.000
   21    7    6   20        3       0.628   1.883   0.000  -2.510  -0.000   0.000
   22    7    6   20        3       0.628   1.883   0.000  -2.510  -0.000   0.000
   26   10    9    1        3       0.628   1.883   0.000  -2.510  -0.000   0.000
   20    6    7    8        3       0.628   1.883   0.000  -2.510  -0.000   0.000
   26   10    9    8        3       0.628   1.883   0.000  -2.510  -0.000   0.000
   16    3    2    1        3       0.628   1.883   0.000  -2.510  -0.000   0.000
   16    3    2   15        3       0.628   1.883   0.000  -2.510  -0.000   0.000
   16    3    2   14        3       0.628   1.883   0.000  -2.510  -0.000   0.000
   26   10    9   25        3       0.628   1.883   0.000  -2.510  -0.000   0.000
   18    4    3    2        3       0.000   0.000   0.000  -0.000  -0.000   0.000
   27   11   10    9        3       0.000   0.000   0.000  -0.000  -0.000   0.000
   17    4    3    2        3       0.000   0.000   0.000  -0.000  -0.000   0.000
   26   10    6    7        3       0.000   0.000   0.000  -0.000  -0.000   0.000
   19    5    6    7        3       0.000   0.000   0.000  -0.000  -0.000   0.000
   20    6   10    9        3       0.000   0.000   0.000  -0.000  -0.000   0.000
   27   11    3    2        3       0.000   0.000   0.000  -0.000  -0.000   0.000
   26   10    6    5        3       0.000   0.000   0.000  -0.000  -0.000   0.000
   18    4    5    6        3       0.000   0.000   0.000  -0.000  -0.000   0.000
   16    3   11    5        3       0.000   0.000   0.000  -0.000  -0.000   0.000
   17    4    3   11        3       0.000   0.000   0.000  -0.000  -0.000   0.000
   17    4    5   11        3       0.000   0.000   0.000  -0.000  -0.000   0.000
   16    3    4    5        3       0.000   0.000   0.000  -0.000  -0.000   0.000
   19    5    6   10        3       0.000   0.000   0.000  -0.000  -0.000   0.000
   16    3   11   10        3       0.000   0.000   0.000  -0.000  -0.000   0.000
   20    6    5    4        3       0.000   0.000   0.000  -0.000  -0.000   0.000
   18    4    5   11        3       0.000   0.000   0.000  -0.000  -0.000   0.000
   17    4    5    6        3       0.000   0.000   0.000  -0.000  -0.000   0.000
   26   10   11    5        3       0.000   0.000   0.000  -0.000  -0.000   0.000
   19    5   11   10        3       0.000   0.000   0.000  -0.000  -0.000   0.000
   19    5   11    3        3       0.000   0.000   0.000  -0.000  -0.000   0.000
   18    4    3   11        3       0.000   0.000   0.000  -0.000  -0.000   0.000
   26   10   11    3        3       0.000   0.000   0.000  -0.000  -0.000   0.000
   20    6    5   11        3       0.000   0.000   0.000  -0.000  -0.000   0.000
   19    5    4    3        3       0.000   0.000   0.000  -0.000  -0.000   0.000
   27   11    5    4        3       0.000   0.000   0.000  -0.000  -0.000   0.000
   27   11   10    6        3       0.000   0.000   0.000  -0.000  -0.000   0.000
   20    6   10   11        3       0.000   0.000   0.000  -0.000  -0.000   0.000
   27   11    3    4        3       0.000   0.000   0.000  -0.000  -0.000   0.000
   27   11    5    6        3       0.000   0.000   0.000  -0.000  -0.000   0.000
   26   10    6   20        3       0.000   0.000   0.000  -0.000  -0.000   0.000
   19    5    4   17        3       0.000   0.000   0.000  -0.000  -0.000   0.000
   27   11    5   19        3       0.000   0.000   0.000  -0.000  -0.000   0.000
   27   11    3   16        3       0.000   0.000   0.000  -0.000  -0.000   0.000
   18    4    3   16        3       0.000   0.000   0.000  -0.000  -0.000   0.000
   19    5    4   18        3       0.000   0.000   0.000  -0.000  -0.000   0.000
   27   11   10   26        3       0.000   0.000   0.000  -0.000  -0.000   0.000
   20    6    5   19        3       0.000   0.000   0.000  -0.000  -0.000   0.000
   17    4    3   16        3       0.000   0.000   0.000  -0.000  -0.000   0.000

[ pairs ]
     1     4    1
     2     5    1
     1     6    1
     1     7    1
     3     6    1
     2     8    1
     4     7    1
     3     9    1
     2    10    1
     1    11    1
     5     8    1
     5     9    1
     4    10    1
     3    12    1
     3    13    1
     1    16    1
     7    11    1
     4    14    1
     8    11    1
     4    15    1
     2    17    1
     8    12    1
     2    18    1
     8    13    1
     5    16    1
    10    12    1
     3    19    1
    10    13    1
     9    14    1
     6    17    1
     9    15    1
     6    18    1
     4    20    1
     1    23    1
    11    14    1
     1    24    1
    12    14    1
    11    15    1
    10    16    1
     7    19    1
     5    21    1
    13    14    1
    12    15    1
     5    22    1
     2    25    1
     1    26    1
    13    15    1
    11    17    1
     8    20    1
    11    18    1
    10    19    1
     9    20    1
     6    23    1
     3    26    1
     2    27    1
    14    16    1
     9    21    1
     6    24    1
    15    16    1
    11    20    1
    10    21    1
     9    22    1
     6    25    1
     5    26    1
     4    27    1
    10    22    1
     7    25    1
    16    17    1
    10    23    1
     7    26    1
     6    27    1
    16    18    1
    10    24    1
     8    26    1
    17    19    1
    11    25    1
     9    27    1
    18    19    1
    12    25    1
    13    25    1
    19    20    1
    20    21    1
    20    22    1
    16    27    1
    21    23    1
    22    23    1
    21    24    1
    22    24    1
    20    26    1
    19    27    1
    23    25    1
    24    25    1
    25    26    1
    26    27    1

