LIGPARGEN GENERATED GRO FILE
   41
    1UNK    C00    1   0.100   0.100   0.000
    1UNK    C01    2  -0.051   0.100   0.000
    1UNK    C02    3  -0.139   0.100   0.134
    1UNK    C03    4  -0.283   0.075   0.076
    1UNK    C04    5  -0.365   0.102  -0.052
    1UNK    C05    6  -0.471  -0.025  -0.051
    1UNK    C06    7  -0.426  -0.097   0.077
    1UNK    C07    8  -0.422  -0.233   0.148
    1UNK    C08    9  -0.278  -0.307   0.140
    1UNK    C09   10  -0.146  -0.276   0.221
    1UNK    C0A   11  -0.053  -0.148   0.198
    1UNK    C0B   12   0.085  -0.175   0.264
    1UNK    C0C   13  -0.095  -0.015   0.251
    1UNK    C0D   14  -0.211  -0.059   0.339
    1UNK    N0E   15  -0.308  -0.096   0.411
    1UNK    C0F   16  -0.399   0.026   0.160
    1UNK    H0G   17   0.135   0.066  -0.098
    1UNK    H0H   18   0.143   0.033   0.073
    1UNK    H0I   19   0.140   0.201   0.014
    1UNK    H0J   20  -0.077   0.012  -0.061
    1UNK    H0K   21  -0.084   0.184  -0.062
    1UNK    H0M   22  -0.133   0.199   0.180
    1UNK    H0N   23  -0.235  -0.014   0.037
    1UNK    H0O   24  -0.306   0.100  -0.143
    1UNK    H0P   25  -0.420   0.198  -0.047
    1UNK    H0Q   26  -0.458  -0.085  -0.142
    1UNK    H0R   27  -0.574   0.011  -0.044
    1UNK    H0S   28  -0.339  -0.134   0.022
    1UNK    H0T   29  -0.494  -0.298   0.098
    1UNK    H0U   30  -0.454  -0.227   0.253
    1UNK    H0V   31  -0.248  -0.312   0.034
    1UNK    H0W   32  -0.301  -0.411   0.167
    1UNK    H0X   33  -0.080  -0.361   0.196
    1UNK    H0Y   34  -0.164  -0.292   0.329
    1UNK    H0Z   35  -0.034  -0.141   0.091
    1UNK    H10   36   0.076  -0.191   0.372
    1UNK    H11   37   0.154  -0.091   0.251
    1UNK    H12   38   0.133  -0.264   0.221
    1UNK    H13   39  -0.016   0.030   0.311
    1UNK    H14   40  -0.394   0.024   0.266
    1UNK    H15   41  -0.484   0.095   0.152
   1.00000   1.00000   1.00000

