
;
; GENERATED BY LigParGen Server
; Jorgensen Lab @ Yale University 
;
[ atomtypes ]
  opls_818  H818     1.0080     0.000    A    2.50000E-01   1.25520E-01
  opls_824  H824     1.0080     0.000    A    2.50000E-01   1.25520E-01
  opls_801  S801    32.0600     0.000    A    3.60000E-01   1.48532E+00
  opls_813  H813     1.0080     0.000    A    2.50000E-01   1.25520E-01
  opls_802  C802    12.0110     0.000    A    3.50000E-01   2.76144E-01
  opls_815  H815     1.0080     0.000    A    2.50000E-01   1.25520E-01
  opls_809  C809    12.0110     0.000    A    3.50000E-01   2.76144E-01
  opls_822  H822     1.0080     0.000    A    2.50000E-01   1.25520E-01
  opls_807  C807    12.0110     0.000    A    3.50000E-01   2.76144E-01
  opls_803  C803    12.0110     0.000    A    3.30000E-01   2.76144E-01
  opls_814  H814     1.0080     0.000    A    2.50000E-01   1.25520E-01
  opls_821  H821     1.0080     0.000    A    2.50000E-01   1.25520E-01
  opls_820  H820     1.0080     0.000    A    2.50000E-01   1.25520E-01
  opls_811  H811     1.0080     0.000    A    2.50000E-01   1.25520E-01
  opls_810  H810     1.0080     0.000    A    2.50000E-01   1.25520E-01
  opls_816  H816     1.0080     0.000    A    2.50000E-01   1.25520E-01
  opls_800  C800    12.0110     0.000    A    3.50000E-01   2.76144E-01
  opls_806  C806    12.0110     0.000    A    3.50000E-01   2.76144E-01
  opls_823  H823     1.0080     0.000    A    2.50000E-01   1.25520E-01
  opls_819  H819     1.0080     0.000    A    2.50000E-01   1.25520E-01
  opls_805  C805    12.0110     0.000    A    3.50000E-01   2.76144E-01
  opls_808  C808    12.0110     0.000    A    3.50000E-01   2.76144E-01
  opls_804  N804    14.0070     0.000    A    3.20000E-01   7.11280E-01
  opls_817  H817     1.0080     0.000    A    2.50000E-01   1.25520E-01
  opls_812  H812     1.0080     0.000    A    2.50000E-01   1.25520E-01
[ moleculetype ]
; Name               nrexcl
UNK                   3
[ atoms ]
;   nr       type  resnr residue  atom   cgnr     charge       mass  
     1   opls_800      1    UNK   C00      1    -0.1567    12.0110 
     2   opls_801      1    UNK   S01      1    -0.3355    32.0600 
     3   opls_802      1    UNK   C02      1     0.1188    12.0110 
     4   opls_803      1    UNK   C03      1     0.1362    12.0110 
     5   opls_804      1    UNK   N04      1    -0.3819    14.0070 
     6   opls_805      1    UNK   C05      1    -0.1536    12.0110 
     7   opls_806      1    UNK   C06      1    -0.0486    12.0110 
     8   opls_807      1    UNK   C07      1    -0.2374    12.0110 
     9   opls_808      1    UNK   C08      1    -0.2346    12.0110 
    10   opls_809      1    UNK   C09      1    -0.2344    12.0110 
    11   opls_810      1    UNK   H0A      1     0.1221     1.0080 
    12   opls_811      1    UNK   H0B      1     0.1221     1.0080 
    13   opls_812      1    UNK   H0C      1     0.1221     1.0080 
    14   opls_813      1    UNK   H0D      1     0.1544     1.0080 
    15   opls_814      1    UNK   H0E      1     0.1139     1.0080 
    16   opls_815      1    UNK   H0F      1     0.1139     1.0080 
    17   opls_816      1    UNK   H0G      1     0.0896     1.0080 
    18   opls_817      1    UNK   H0H      1     0.0896     1.0080 
    19   opls_818      1    UNK   H0I      1     0.0896     1.0080 
    20   opls_819      1    UNK   H0J      1     0.0859     1.0080 
    21   opls_820      1    UNK   H0K      1     0.0859     1.0080 
    22   opls_821      1    UNK   H0M      1     0.0859     1.0080 
    23   opls_822      1    UNK   H0N      1     0.0842     1.0080 
    24   opls_823      1    UNK   H0O      1     0.0842     1.0080 
    25   opls_824      1    UNK   H0P      1     0.0842     1.0080 
[ bonds ]
    2     1     1      0.1810 185769.600
    3     2     1      0.1810 185769.600
    4     3     1      0.1470 326352.000
    5     4     1      0.1157 543920.000
    6     3     1      0.1529 224262.400
    7     6     1      0.1529 224262.400
    8     7     1      0.1529 224262.400
    9     7     1      0.1529 224262.400
   10     7     1      0.1529 224262.400
   11     1     1      0.1090 284512.000
   12     1     1      0.1090 284512.000
   13     1     1      0.1090 284512.000
   14     3     1      0.1090 284512.000
   15     6     1      0.1090 284512.000
   16     6     1      0.1090 284512.000
   17     8     1      0.1090 284512.000
   18     8     1      0.1090 284512.000
   19     8     1      0.1090 284512.000
   20     9     1      0.1090 284512.000
   21     9     1      0.1090 284512.000
   22     9     1      0.1090 284512.000
   23    10     1      0.1090 284512.000
   24    10     1      0.1090 284512.000
   25    10     1      0.1090 284512.000

[ angles ]
;  ai    aj    ak funct            c0            c1            c2            c3 
    1     2     3     1     98.900    518.816
    2     3     4     1    110.580    432.207
    3     4     5     1    180.000   1255.200
    2     3     6     1    114.700    418.400
    3     6     7     1    112.700    488.273
    6     7     8     1    112.700    488.273
    6     7     9     1    112.700    488.273
    6     7    10     1    112.700    488.273
    2     1    11     1    109.500    292.880
    2     1    12     1    109.500    292.880
    2     1    13     1    109.500    292.880
    2     3    14     1    109.500    292.880
    3     6    15     1    110.700    313.800
    3     6    16     1    110.700    313.800
    7     8    17     1    110.700    313.800
    7     8    18     1    110.700    313.800
    7     8    19     1    110.700    313.800
    7     9    20     1    110.700    313.800
    7     9    21     1    110.700    313.800
    7     9    22     1    110.700    313.800
    7    10    23     1    110.700    313.800
    7    10    24     1    110.700    313.800
    7    10    25     1    110.700    313.800
   20     9    22     1    107.800    276.144
    9     7    10     1    112.700    488.273
   11     1    13     1    107.800    276.144
   17     8    18     1    107.800    276.144
   18     8    19     1    107.800    276.144
    8     7    10     1    112.700    488.273
   24    10    25     1    107.800    276.144
   17     8    19     1    107.800    276.144
    8     7     9     1    112.700    488.273
   20     9    21     1    107.800    276.144
    7     6    15     1    110.700    313.800
   23    10    25     1    107.800    276.144
   21     9    22     1    107.800    276.144
   11     1    12     1    107.800    276.144
   12     1    13     1    107.800    276.144
    4     3     6     1    112.700    488.273
    7     6    16     1    110.700    313.800
   23    10    24     1    107.800    276.144
    4     3    14     1    108.500    292.880
    6     3    14     1    110.700    313.800
   15     6    16     1    107.800    276.144

[ dihedrals ]
; IMPROPER DIHEDRAL ANGLES 
;  ai    aj    ak    al funct            c0            c1            c2            c3            c4            c5

[ dihedrals ]
; PROPER DIHEDRAL ANGLES
;  ai    aj    ak    al funct            c0            c1            c2            c3            c4            c5
    9    7    6    3        3       2.301  -1.464   0.837  -1.674  -0.000   0.000
    8    7    6    3        3       2.301  -1.464   0.837  -1.674  -0.000   0.000
   10    7    6    3        3       2.301  -1.464   0.837  -1.674  -0.000   0.000
    7    6    3    4        3      -2.720   0.000   2.720  -0.000  -0.000   0.000
    7    6    3    2        3       3.425  -3.860   2.594  -2.159  -0.000   0.000
    6    3    4    5        3       0.000   0.000   0.000  -0.000  -0.000   0.000
    6    3    2    1        3       0.941   2.314   2.410  -5.665  -0.000   0.000
    4    3    2    1        3       0.941   2.314   2.410  -5.665  -0.000   0.000
   25   10    7    6        3       0.628   1.883   0.000  -2.510  -0.000   0.000
   25   10    7    8        3       0.628   1.883   0.000  -2.510  -0.000   0.000
   17    8    7   10        3       0.628   1.883   0.000  -2.510  -0.000   0.000
   20    9    7    8        3       0.628   1.883   0.000  -2.510  -0.000   0.000
   24   10    7    6        3       0.628   1.883   0.000  -2.510  -0.000   0.000
   22    9    7    8        3       0.628   1.883   0.000  -2.510  -0.000   0.000
   15    6    7    8        3       0.628   1.883   0.000  -2.510  -0.000   0.000
   21    9    7    8        3       0.628   1.883   0.000  -2.510  -0.000   0.000
   25   10    7    9        3       0.628   1.883   0.000  -2.510  -0.000   0.000
   20    9    7   10        3       0.628   1.883   0.000  -2.510  -0.000   0.000
   19    8    7    9        3       0.628   1.883   0.000  -2.510  -0.000   0.000
   18    8    7   10        3       0.628   1.883   0.000  -2.510  -0.000   0.000
   15    6    7    9        3       0.628   1.883   0.000  -2.510  -0.000   0.000
   18    8    7    9        3       0.628   1.883   0.000  -2.510  -0.000   0.000
   18    8    7    6        3       0.628   1.883   0.000  -2.510  -0.000   0.000
   22    9    7    6        3       0.628   1.883   0.000  -2.510  -0.000   0.000
   24   10    7    8        3       0.628   1.883   0.000  -2.510  -0.000   0.000
   24   10    7    9        3       0.628   1.883   0.000  -2.510  -0.000   0.000
   23   10    7    9        3       0.628   1.883   0.000  -2.510  -0.000   0.000
   16    6    7    9        3       0.628   1.883   0.000  -2.510  -0.000   0.000
   16    6    7   10        3       0.628   1.883   0.000  -2.510  -0.000   0.000
   15    6    7   10        3       0.628   1.883   0.000  -2.510  -0.000   0.000
   16    6    7    8        3       0.628   1.883   0.000  -2.510  -0.000   0.000
   22    9    7   10        3       0.628   1.883   0.000  -2.510  -0.000   0.000
   17    8    7    6        3       0.628   1.883   0.000  -2.510  -0.000   0.000
   20    9    7    6        3       0.628   1.883   0.000  -2.510  -0.000   0.000
   21    9    7   10        3       0.628   1.883   0.000  -2.510  -0.000   0.000
   23   10    7    6        3       0.628   1.883   0.000  -2.510  -0.000   0.000
   14    3    6    7        3       0.628   1.883   0.000  -2.510  -0.000   0.000
   23   10    7    8        3       0.628   1.883   0.000  -2.510  -0.000   0.000
   17    8    7    9        3       0.628   1.883   0.000  -2.510  -0.000   0.000
   19    8    7    6        3       0.628   1.883   0.000  -2.510  -0.000   0.000
   21    9    7    6        3       0.628   1.883   0.000  -2.510  -0.000   0.000
   19    8    7   10        3       0.628   1.883   0.000  -2.510  -0.000   0.000
   16    6    3    4        3       0.766   2.297   0.000  -3.063  -0.000   0.000
   15    6    3    4        3       0.766   2.297   0.000  -3.063  -0.000   0.000
   16    6    3   14        3       0.628   1.883   0.000  -2.510  -0.000   0.000
   15    6    3   14        3       0.628   1.883   0.000  -2.510  -0.000   0.000
   16    6    3    2        3       0.946   2.837   0.000  -3.782  -0.000   0.000
   15    6    3    2        3       0.946   2.837   0.000  -3.782  -0.000   0.000
   14    3    4    5        3       0.000   0.000   0.000  -0.000  -0.000   0.000
   12    1    2    3        3       1.354   4.061   0.000  -5.414  -0.000   0.000
   14    3    2    1        3       1.354   4.061   0.000  -5.414  -0.000   0.000
   11    1    2    3        3       1.354   4.061   0.000  -5.414  -0.000   0.000
   13    1    2    3        3       1.354   4.061   0.000  -5.414  -0.000   0.000
    5    4    3    2        3       0.000   0.000   0.000  -0.000  -0.000   0.000

[ pairs ]
     1     4    1
     2     5    1
     1     6    1
     2     7    1
     5     6    1
     4     7    1
     3     8    1
     3     9    1
     3    10    1
     3    11    1
     3    12    1
     1    14    1
     3    13    1
     2    15    1
     2    16    1
     5    14    1
     4    15    1
     4    16    1
     7    14    1
     8    15    1
     6    17    1
     9    15    1
     8    16    1
     6    18    1
    10    15    1
     9    16    1
     6    19    1
    10    16    1
     9    17    1
     6    20    1
    10    17    1
     9    18    1
     6    21    1
    10    18    1
     9    19    1
     8    20    1
     6    22    1
    14    15    1
    10    19    1
     8    21    1
     6    23    1
    14    16    1
    10    20    1
     8    22    1
     6    24    1
    10    21    1
     8    23    1
     6    25    1
    10    22    1
     9    23    1
     8    24    1
     9    24    1
     8    25    1
     9    25    1

