LIGPARGEN GENERATED GRO FILE
   25
    1UNK    C00    1   0.100   0.100   0.000
    1UNK    S01    2  -0.081   0.100   0.000
    1UNK    C02    3  -0.111   0.100   0.181
    1UNK    C03    4  -0.053   0.223   0.249
    1UNK    N04    5  -0.004   0.325   0.305
    1UNK    C05    6  -0.264   0.100   0.209
    1UNK    C06    7  -0.314   0.091   0.358
    1UNK    C07    8  -0.277   0.213   0.445
    1UNK    C08    9  -0.468   0.084   0.356
    1UNK    C09   10  -0.259  -0.035   0.426
    1UNK    H0A   11   0.135   0.092  -0.103
    1UNK    H0B   12   0.138   0.014   0.056
    1UNK    H0C   13   0.139   0.193   0.042
    1UNK    H0D   14  -0.065   0.010   0.223
    1UNK    H0E   15  -0.308   0.014   0.155
    1UNK    H0F   16  -0.308   0.190   0.165
    1UNK    H0G   17  -0.297   0.307   0.391
    1UNK    H0H   18  -0.173   0.211   0.477
    1UNK    H0I   19  -0.336   0.215   0.537
    1UNK    H0J   20  -0.511   0.177   0.317
    1UNK    H0K   21  -0.508   0.069   0.457
    1UNK    H0M   22  -0.503   0.001   0.293
    1UNK    H0N   23  -0.149  -0.033   0.433
    1UNK    H0O   24  -0.287  -0.126   0.371
    1UNK    H0P   25  -0.298  -0.045   0.528
   1.00000   1.00000   1.00000

