LIGPARGEN GENERATED GRO FILE
   32
    1UNK    C00    1   0.100   0.100   0.000
    1UNK    C01    2  -0.053   0.100   0.000
    1UNK    C02    3  -0.108   0.100   0.150
    1UNK    C03    4  -0.243   0.172   0.179
    1UNK    C04    5  -0.240   0.313   0.248
    1UNK    C05    6  -0.215   0.432   0.147
    1UNK    C06    7  -0.221   0.567   0.213
    1UNK    C07    8  -0.274   0.434  -0.005
    1UNK    C08    9  -0.199   0.297  -0.015
    1UNK    C09   10  -0.108   0.211  -0.097
    1UNK    C0A   11  -0.305   0.201   0.045
    1UNK    C0B   12  -0.089   0.386   0.073
    1UNK    H0C   13   0.139   0.020   0.063
    1UNK    H0D   14   0.140   0.195   0.037
    1UNK    H0E   15   0.139   0.085  -0.101
    1UNK    H0F   16  -0.084   0.004  -0.044
    1UNK    H0G   17  -0.031   0.135   0.220
    1UNK    H0H   18  -0.122  -0.006   0.176
    1UNK    H0I   19  -0.306   0.106   0.240
    1UNK    H0J   20  -0.165   0.314   0.328
    1UNK    H0K   21  -0.338   0.330   0.296
    1UNK    H0M   22  -0.325   0.591   0.242
    1UNK    H0N   23  -0.187   0.647   0.146
    1UNK    H0O   24  -0.159   0.571   0.303
    1UNK    H0P   25  -0.235   0.514  -0.070
    1UNK    H0Q   26  -0.383   0.435  -0.014
    1UNK    H0R   27  -0.027   0.268  -0.144
    1UNK    H0S   28  -0.163   0.164  -0.179
    1UNK    H0T   29  -0.320   0.110  -0.014
    1UNK    H0U   30  -0.405   0.244   0.057
    1UNK    H0V   31  -0.035   0.463   0.016
    1UNK    H0W   32  -0.014   0.338   0.135
   1.00000   1.00000   1.00000

