LIGPARGEN GENERATED GRO FILE
   30
    1UNK    C00    1   0.100   0.100   0.000
    1UNK    C01    2  -0.053   0.100   0.000
    1UNK    C02    3  -0.110   0.100   0.143
    1UNK    C03    4  -0.187   0.225   0.189
    1UNK    C04    5  -0.097   0.336   0.244
    1UNK    C05    6  -0.026   0.424   0.142
    1UNK    C06    7  -0.090   0.439   0.002
    1UNK    C07    8  -0.162   0.574  -0.013
    1UNK    C08    9  -0.185   0.324  -0.037
    1UNK    C09   10  -0.274   0.277   0.076
    1UNK    C0A   11  -0.105   0.208  -0.093
    1UNK    O0B   12  -0.077   0.206  -0.214
    1UNK    H0C   13   0.139   0.017   0.060
    1UNK    H0D   14   0.140   0.193   0.040
    1UNK    H0E   15   0.139   0.088  -0.102
    1UNK    H0F   16  -0.084   0.005  -0.046
    1UNK    H0G   17  -0.033   0.074   0.216
    1UNK    H0H   18  -0.181   0.016   0.147
    1UNK    H0I   19  -0.252   0.193   0.271
    1UNK    H0J   20  -0.023   0.293   0.312
    1UNK    H0K   21  -0.160   0.401   0.306
    1UNK    H0M   22   0.075   0.385   0.128
    1UNK    H0N   23  -0.012   0.523   0.187
    1UNK    H0O   24  -0.008   0.442  -0.070
    1UNK    H0P   25  -0.248   0.582   0.055
    1UNK    H0Q   26  -0.198   0.588  -0.115
    1UNK    H0R   27  -0.093   0.656   0.010
    1UNK    H0S   28  -0.251   0.357  -0.119
    1UNK    H0T   29  -0.342   0.198   0.041
    1UNK    H0U   30  -0.337   0.360   0.112
   1.00000   1.00000   1.00000

