
;
; GENERATED BY LigParGen Server
; Jorgensen Lab @ Yale University 
;
[ atomtypes ]
  opls_818  H818     1.0080     0.000    A    2.50000E-01   1.25520E-01
  opls_824  H824     1.0080     0.000    A    2.50000E-01   1.25520E-01
  opls_808  O808    15.9990     0.000    A    2.96000E-01   8.78640E-01
  opls_813  H813     1.0080     0.000    A    2.50000E-01   1.25520E-01
  opls_802  C802    12.0110     0.000    A    3.50000E-01   2.76144E-01
  opls_815  H815     1.0080     0.000    A    2.50000E-01   1.25520E-01
  opls_809  C809    12.0110     0.000    A    3.50000E-01   2.76144E-01
  opls_822  H822     1.0080     0.000    A    2.50000E-01   1.25520E-01
  opls_803  C803    12.0110     0.000    A    3.50000E-01   2.76144E-01
  opls_812  F812    18.9984     0.000    A    2.90000E-01   2.51040E-01
  opls_825  H825     1.0080     0.000    A    2.50000E-01   1.25520E-01
  opls_814  H814     1.0080     0.000    A    2.50000E-01   1.25520E-01
  opls_821  H821     1.0080     0.000    A    2.50000E-01   1.25520E-01
  opls_820  H820     1.0080     0.000    A    2.50000E-01   1.25520E-01
  opls_804  C804    12.0110     0.000    A    3.55000E-01   2.92880E-01
  opls_816  H816     1.0080     0.000    A    2.50000E-01   1.25520E-01
  opls_800  C800    12.0110     0.000    A    3.50000E-01   2.76144E-01
  opls_805  C805    12.0110     0.000    A    3.50000E-01   2.76144E-01
  opls_811  F811    18.9984     0.000    A    2.90000E-01   2.51040E-01
  opls_823  H823     1.0080     0.000    A    2.50000E-01   1.25520E-01
  opls_826  H826     1.0080     0.000    A    2.50000E-01   1.25520E-01
  opls_819  H819     1.0080     0.000    A    2.50000E-01   1.25520E-01
  opls_810  C810    12.0110     0.000    A    3.50000E-01   2.76144E-01
  opls_801  C801    12.0110     0.000    A    3.50000E-01   2.76144E-01
  opls_807  C807    12.0110     0.000    A    3.55000E-01   2.92880E-01
  opls_806  O806    15.9990     0.000    A    2.96000E-01   8.78640E-01
  opls_817  H817     1.0080     0.000    A    2.50000E-01   1.25520E-01
[ moleculetype ]
; Name               nrexcl
UNK                   3
[ atoms ]
;   nr       type  resnr residue  atom   cgnr     charge       mass  
     1   opls_800      1    UNK   C00      1     -0.237    12.0110 
     2   opls_801      1    UNK   C01      1    -0.1772    12.0110 
     3   opls_802      1    UNK   C02      1    -0.1459    12.0110 
     4   opls_803      1    UNK   C03      1    -0.2271    12.0110 
     5   opls_804      1    UNK   C04      1     0.3666    12.0110 
     6   opls_805      1    UNK   C05      1    -0.2989    12.0110 
     7   opls_806      1    UNK   O06      1    -0.4634    15.9990 
     8   opls_807      1    UNK   C07      1     0.3876    12.0110 
     9   opls_808      1    UNK   O08      1    -0.4515    15.9990 
    10   opls_809      1    UNK   C09      1    -0.3128    12.0110 
    11   opls_810      1    UNK   C0A      1     0.2503    12.0110 
    12   opls_811      1    UNK   F0B      1    -0.1846    18.9984 
    13   opls_812      1    UNK   F0C      1    -0.1846    18.9984 
    14   opls_813      1    UNK   H0D      1     0.0856     1.0080 
    15   opls_814      1    UNK   H0E      1     0.0856     1.0080 
    16   opls_815      1    UNK   H0F      1     0.0856     1.0080 
    17   opls_816      1    UNK   H0G      1     0.1065     1.0080 
    18   opls_817      1    UNK   H0H      1     0.1065     1.0080 
    19   opls_818      1    UNK   H0I      1     0.1335     1.0080 
    20   opls_819      1    UNK   H0J      1     0.1353     1.0080 
    21   opls_820      1    UNK   H0K      1     0.1353     1.0080 
    22   opls_821      1    UNK   H0M      1     0.1189     1.0080 
    23   opls_822      1    UNK   H0N      1     0.1189     1.0080 
    24   opls_823      1    UNK   H0O      1     0.1189     1.0080 
    25   opls_824      1    UNK   H0P      1     0.1555     1.0080 
    26   opls_825      1    UNK   H0Q      1     0.1555     1.0080 
    27   opls_826      1    UNK   H0R      1     0.1368     1.0080 
[ bonds ]
    2     1     1      0.1529 224262.400
    3     2     1      0.1529 224262.400
    4     3     1      0.1529 224262.400
    5     4     1      0.1522 265265.600
    6     5     1      0.1522 265265.600
    7     5     1      0.1229 476976.000
    8     3     1      0.1522 265265.600
    9     8     1      0.1229 476976.000
   10     8     1      0.1522 265265.600
   11    10     1      0.1529 224262.400
   12    11     1      0.1360 307105.600
   13    11     1      0.1360 307105.600
   14     1     1      0.1090 284512.000
   15     1     1      0.1090 284512.000
   16     1     1      0.1090 284512.000
   17     2     1      0.1090 284512.000
   18     2     1      0.1090 284512.000
   19     3     1      0.1090 284512.000
   20     4     1      0.1090 284512.000
   21     4     1      0.1090 284512.000
   22     6     1      0.1090 284512.000
   23     6     1      0.1090 284512.000
   24     6     1      0.1090 284512.000
   25    10     1      0.1090 284512.000
   26    10     1      0.1090 284512.000
   27    11     1      0.1090 284512.000

[ angles ]
;  ai    aj    ak funct            c0            c1            c2            c3 
    1     2     3     1    112.700    488.273
    2     3     4     1    112.700    488.273
    3     4     5     1    111.100    527.184
    4     5     6     1    116.000    585.760
    4     5     7     1    120.400    669.440
    2     3     8     1    111.100    527.184
    3     8     9     1    120.400    669.440
    3     8    10     1    116.000    585.760
    8    10    11     1    111.100    527.184
   10    11    12     1    109.500    418.400
   10    11    13     1    109.500    418.400
    2     1    14     1    110.700    313.800
    2     1    15     1    110.700    313.800
    2     1    16     1    110.700    313.800
    1     2    17     1    110.700    313.800
    1     2    18     1    110.700    313.800
    2     3    19     1    110.700    313.800
    3     4    20     1    110.700    313.800
    3     4    21     1    110.700    313.800
    5     6    22     1    109.500    292.880
    5     6    23     1    109.500    292.880
    5     6    24     1    109.500    292.880
    8    10    25     1    109.500    292.880
    8    10    26     1    109.500    292.880
   10    11    27     1    110.700    313.800
    8     3    19     1    109.500    292.880
   12    11    27     1    107.000    334.720
    3     2    18     1    110.700    313.800
   25    10    26     1    107.800    276.144
    3     2    17     1    110.700    313.800
    4     3     8     1    111.100    527.184
    4     3    19     1    110.700    313.800
   22     6    23     1    107.800    276.144
   13    11    27     1    107.000    334.720
    6     5     7     1    120.400    669.440
   15     1    16     1    107.800    276.144
   14     1    15     1    107.800    276.144
   11    10    25     1    110.700    313.800
   17     2    18     1    107.800    276.144
   23     6    24     1    107.800    276.144
   11    10    26     1    110.700    313.800
    5     4    20     1    109.500    292.880
   12    11    13     1    109.100    644.336
   22     6    24     1    107.800    276.144
   14     1    16     1    107.800    276.144
    5     4    21     1    109.500    292.880
    9     8    10     1    120.400    669.440
   20     4    21     1    107.800    276.144

[ dihedrals ]
; IMPROPER DIHEDRAL ANGLES 
;  ai    aj    ak    al funct            c0            c1            c2            c3            c4            c5
    10     8     3     9    4        180.000     43.932     2  
     7     5     4     6    4        180.000     43.932     2  

[ dihedrals ]
; PROPER DIHEDRAL ANGLES
;  ai    aj    ak    al funct            c0            c1            c2            c3            c4            c5
    8    3    4    5        3       0.941   7.427   0.000  -8.368  -0.000   0.000
    5    4    3    2        3      -4.960   6.286   1.310  -2.636  -0.000   0.000
    8    3    2    1        3      -4.960   6.286   1.310  -2.636  -0.000   0.000
   11   10    8    3        3       0.818  -7.906   0.602   6.485  -0.000   0.000
   11   10    8    9        3       0.000   0.000   0.000  -0.000  -0.000   0.000
   10    8    3    4        3       0.818  -7.906   0.602   6.485  -0.000   0.000
    6    5    4    3        3       0.818  -7.906   0.602   6.485  -0.000   0.000
   10    8    3    2        3       0.818  -7.906   0.602   6.485  -0.000   0.000
    4    3    2    1        3       2.301  -1.464   0.837  -1.674  -0.000   0.000
   12   11   10    8        3       0.000   0.000   0.000  -0.000  -0.000   0.000
   13   11   10    8        3       0.000   0.000   0.000  -0.000  -0.000   0.000
   27   11   10    8        3      -0.209  -0.628   0.000   0.837  -0.000   0.000
   27   11   10   25        3       0.628   1.883   0.000  -2.510  -0.000   0.000
   27   11   10   26        3       0.628   1.883   0.000  -2.510  -0.000   0.000
   19    3    8   10        3       0.575   1.726   0.000  -2.301  -0.000   0.000
   26   10    8    3        3       0.575   1.726   0.000  -2.301  -0.000   0.000
   23    6    5    4        3       0.575   1.726   0.000  -2.301  -0.000   0.000
   22    6    5    4        3       0.575   1.726   0.000  -2.301  -0.000   0.000
   21    4    5    6        3       0.575   1.726   0.000  -2.301  -0.000   0.000
   25   10    8    3        3       0.575   1.726   0.000  -2.301  -0.000   0.000
   20    4    5    6        3       0.575   1.726   0.000  -2.301  -0.000   0.000
   24    6    5    4        3       0.575   1.726   0.000  -2.301  -0.000   0.000
   24    6    5    7        3       0.000   0.000   0.000  -0.000  -0.000   0.000
   19    3    8    9        3       0.000   0.000   0.000  -0.000  -0.000   0.000
   20    4    5    7        3       0.000   0.000   0.000  -0.000  -0.000   0.000
   23    6    5    7        3       0.000   0.000   0.000  -0.000  -0.000   0.000
   25   10    8    9        3       0.000   0.000   0.000  -0.000  -0.000   0.000
   26   10    8    9        3       0.000   0.000   0.000  -0.000  -0.000   0.000
   21    4    5    7        3       0.000   0.000   0.000  -0.000  -0.000   0.000
   22    6    5    7        3       0.000   0.000   0.000  -0.000  -0.000   0.000
   25   10   11   13        3       0.753   2.259   0.000  -3.012  -0.000   0.000
   26   10   11   12        3       0.753   2.259   0.000  -3.012  -0.000   0.000
   25   10   11   12        3       0.753   2.259   0.000  -3.012  -0.000   0.000
   26   10   11   13        3       0.753   2.259   0.000  -3.012  -0.000   0.000
   21    4    3    8        3      -0.209  -0.628   0.000   0.837  -0.000   0.000
   19    3    4    5        3      -0.209  -0.628   0.000   0.837  -0.000   0.000
   17    2    3    8        3      -0.209  -0.628   0.000   0.837  -0.000   0.000
   18    2    3    8        3      -0.209  -0.628   0.000   0.837  -0.000   0.000
   20    4    3    8        3      -0.209  -0.628   0.000   0.837  -0.000   0.000
   15    1    2    3        3       0.628   1.883   0.000  -2.510  -0.000   0.000
   16    1    2    3        3       0.628   1.883   0.000  -2.510  -0.000   0.000
   14    1    2    3        3       0.628   1.883   0.000  -2.510  -0.000   0.000
   21    4    3    2        3       0.628   1.883   0.000  -2.510  -0.000   0.000
   18    2    3    4        3       0.628   1.883   0.000  -2.510  -0.000   0.000
   20    4    3    2        3       0.628   1.883   0.000  -2.510  -0.000   0.000
   19    3    2    1        3       0.628   1.883   0.000  -2.510  -0.000   0.000
   17    2    3    4        3       0.628   1.883   0.000  -2.510  -0.000   0.000
   21    4    3   19        3       0.628   1.883   0.000  -2.510  -0.000   0.000
   20    4    3   19        3       0.628   1.883   0.000  -2.510  -0.000   0.000
   18    2    1   14        3       0.628   1.883   0.000  -2.510  -0.000   0.000
   17    2    1   14        3       0.628   1.883   0.000  -2.510  -0.000   0.000
   17    2    1   15        3       0.628   1.883   0.000  -2.510  -0.000   0.000
   19    3    2   18        3       0.628   1.883   0.000  -2.510  -0.000   0.000
   18    2    1   16        3       0.628   1.883   0.000  -2.510  -0.000   0.000
   17    2    1   16        3       0.628   1.883   0.000  -2.510  -0.000   0.000
   18    2    1   15        3       0.628   1.883   0.000  -2.510  -0.000   0.000
   19    3    2   17        3       0.628   1.883   0.000  -2.510  -0.000   0.000
    9    8    3    4        3       0.000   0.000   0.000  -0.000  -0.000   0.000
    9    8    3    2        3       0.000   0.000   0.000  -0.000  -0.000   0.000
    7    5    4    3        3       0.000   0.000   0.000  -0.000  -0.000   0.000

[ pairs ]
     1     4    1
     2     5    1
     3     6    1
     1     8    1
     3     7    1
     2     9    1
     2    10    1
     5     8    1
     4     9    1
     4    10    1
     3    11    1
     3    14    1
     3    15    1
     3    16    1
     9    11    1
     8    12    1
     1    19    1
     8    13    1
     4    17    1
     4    18    1
     2    20    1
     2    21    1
     5    19    1
     8    17    1
     8    18    1
     6    20    1
     4    22    1
     7    20    1
     6    21    1
     4    23    1
     9    19    1
     8    20    1
     7    21    1
     4    24    1
     3    25    1
    10    19    1
     8    21    1
     7    22    1
     3    26    1
     7    23    1
    14    17    1
     7    24    1
    15    17    1
    14    18    1
    16    17    1
    15    18    1
    16    18    1
     9    25    1
     9    26    1
     8    27    1
    17    19    1
    18    19    1
    12    25    1
    13    25    1
    12    26    1
    19    20    1
    13    26    1
    19    21    1
    25    27    1
    26    27    1

