LIGPARGEN GENERATED GRO FILE
   27
    1UNK    C00    1   0.100   0.100   0.000
    1UNK    C01    2  -0.052   0.100   0.000
    1UNK    C02    3  -0.116   0.100   0.140
    1UNK    C03    4  -0.077   0.223   0.224
    1UNK    C04    5  -0.133   0.217   0.365
    1UNK    C05    6  -0.107   0.337   0.452
    1UNK    O06    7  -0.197   0.121   0.406
    1UNK    C07    8  -0.268   0.096   0.120
    1UNK    O08    9  -0.334   0.200   0.107
    1UNK    C09   10  -0.334  -0.039   0.112
    1UNK    C0A   11  -0.404  -0.050  -0.022
    1UNK    F0B   12  -0.311  -0.051  -0.121
    1UNK    F0C   13  -0.466  -0.171  -0.028
    1UNK    H0D   14   0.137   0.093  -0.103
    1UNK    H0E   15   0.139   0.014   0.056
    1UNK    H0F   16   0.141   0.192   0.043
    1UNK    H0G   17  -0.085   0.011  -0.055
    1UNK    H0H   18  -0.088   0.186  -0.057
    1UNK    H0I   19  -0.086   0.009   0.194
    1UNK    H0J   20  -0.111   0.315   0.176
    1UNK    H0K   21   0.032   0.227   0.235
    1UNK    H0M   22  -0.030   0.401   0.408
    1UNK    H0N   23  -0.072   0.304   0.550
    1UNK    H0O   24  -0.199   0.395   0.463
    1UNK    H0P   25  -0.405  -0.049   0.194
    1UNK    H0Q   26  -0.260  -0.118   0.122
    1UNK    H0R   27  -0.476   0.029  -0.041
   1.00000   1.00000   1.00000

