LIGPARGEN GENERATED GRO FILE
   33
    1UNK    C00    1   0.100   0.100   0.000
    1UNK    C01    2  -0.052   0.100   0.000
    1UNK    C02    3  -0.111   0.100   0.141
    1UNK    C03    4  -0.076   0.223   0.224
    1UNK    C04    5  -0.181   0.221   0.333
    1UNK    C05    6  -0.310   0.185   0.259
    1UNK    C06    7  -0.415   0.117   0.347
    1UNK    C07    8  -0.460   0.205   0.464
    1UNK    C08    9  -0.565   0.135   0.550
    1UNK    C09   10  -0.609   0.225   0.665
    1UNK    Cl0   11  -0.731   0.143   0.766
    1UNK    C0B   12  -0.265   0.097   0.141
    1UNK    H0C   13   0.138   0.087  -0.102
    1UNK    H0D   14   0.139   0.018   0.061
    1UNK    H0E   15   0.140   0.195   0.038
    1UNK    H0F   16  -0.087   0.011  -0.054
    1UNK    H0G   17  -0.088   0.187  -0.056
    1UNK    H0H   18  -0.075   0.011   0.194
    1UNK    H0I   19  -0.084   0.315   0.164
    1UNK    H0J   20   0.025   0.218   0.265
    1UNK    H0K   21  -0.189   0.318   0.384
    1UNK    H0M   22  -0.156   0.145   0.408
    1UNK    H0N   23  -0.353   0.277   0.218
    1UNK    H0O   24  -0.375   0.022   0.387
    1UNK    H0P   25  -0.502   0.090   0.286
    1UNK    H0Q   26  -0.502   0.299   0.424
    1UNK    H0R   27  -0.374   0.231   0.526
    1UNK    H0S   28  -0.524   0.042   0.590
    1UNK    H0T   29  -0.652   0.109   0.488
    1UNK    H0U   30  -0.653   0.318   0.628
    1UNK    H0V   31  -0.524   0.250   0.730
    1UNK    H0W   32  -0.306   0.137   0.048
    1UNK    H0X   33  -0.300  -0.007   0.150
   1.00000   1.00000   1.00000

