
;
; GENERATED BY LigParGen Server
; Jorgensen Lab @ Yale University 
;
[ atomtypes ]
  opls_818  H818     1.0080     0.000    A    2.50000E-01   1.25520E-01
  opls_824  H824     1.0080     0.000    A    2.50000E-01   1.25520E-01
  opls_805  C805    12.0110     0.000    A    3.50000E-01   2.76144E-01
  opls_810 Cl810    35.4500     0.000    A    3.40000E-01   1.25520E+00
  opls_828  H828     1.0080     0.000    A    2.50000E-01   1.25520E-01
  opls_813  H813     1.0080     0.000    A    2.50000E-01   1.25520E-01
  opls_832  H832     1.0080     0.000    A    2.50000E-01   1.25520E-01
  opls_802  C802    12.0110     0.000    A    3.50000E-01   2.76144E-01
  opls_815  H815     1.0080     0.000    A    2.50000E-01   1.25520E-01
  opls_809  C809    12.0110     0.000    A    3.50000E-01   2.76144E-01
  opls_806  C806    12.0110     0.000    A    3.50000E-01   2.76144E-01
  opls_822  H822     1.0080     0.000    A    2.50000E-01   1.25520E-01
  opls_803  C803    12.0110     0.000    A    3.50000E-01   2.76144E-01
  opls_825  H825     1.0080     0.000    A    2.50000E-01   1.25520E-01
  opls_814  H814     1.0080     0.000    A    2.50000E-01   1.25520E-01
  opls_821  H821     1.0080     0.000    A    2.50000E-01   1.25520E-01
  opls_820  H820     1.0080     0.000    A    2.50000E-01   1.25520E-01
  opls_829  H829     1.0080     0.000    A    2.50000E-01   1.25520E-01
  opls_831  H831     1.0080     0.000    A    2.50000E-01   1.25520E-01
  opls_816  H816     1.0080     0.000    A    2.50000E-01   1.25520E-01
  opls_800  C800    12.0110     0.000    A    3.50000E-01   2.76144E-01
  opls_811  C811    12.0110     0.000    A    3.50000E-01   2.76144E-01
  opls_823  H823     1.0080     0.000    A    2.50000E-01   1.25520E-01
  opls_826  H826     1.0080     0.000    A    2.50000E-01   1.25520E-01
  opls_819  H819     1.0080     0.000    A    2.50000E-01   1.25520E-01
  opls_804  C804    12.0110     0.000    A    3.50000E-01   2.76144E-01
  opls_827  H827     1.0080     0.000    A    2.50000E-01   1.25520E-01
  opls_801  C801    12.0110     0.000    A    3.50000E-01   2.76144E-01
  opls_808  C808    12.0110     0.000    A    3.50000E-01   2.76144E-01
  opls_817  H817     1.0080     0.000    A    2.50000E-01   1.25520E-01
  opls_812  H812     1.0080     0.000    A    2.50000E-01   1.25520E-01
  opls_830  H830     1.0080     0.000    A    2.50000E-01   1.25520E-01
  opls_807  C807    12.0110     0.000    A    3.50000E-01   2.76144E-01
[ moleculetype ]
; Name               nrexcl
UNK                   3
[ atoms ]
;   nr       type  resnr residue  atom   cgnr     charge       mass  
     1   opls_800      1    UNK   C00      1    -0.2376    12.0110 
     2   opls_801      1    UNK   C01      1    -0.1696    12.0110 
     3   opls_802      1    UNK   C02      1    -0.1213    12.0110 
     4   opls_803      1    UNK   C03      1    -0.1781    12.0110 
     5   opls_804      1    UNK   C04      1    -0.1803    12.0110 
     6   opls_805      1    UNK   C05      1    -0.1213    12.0110 
     7   opls_806      1    UNK   C06      1    -0.1670    12.0110 
     8   opls_807      1    UNK   C07      1    -0.1796    12.0110 
     9   opls_808      1    UNK   C08      1    -0.1927    12.0110 
    10   opls_809      1    UNK   C09      1    -0.0833    12.0110 
    11   opls_810      1    UNK   Cl0      1    -0.1879    35.4500 
    12   opls_811      1    UNK   C0B      1    -0.1764    12.0110 
    13   opls_812      1    UNK   H0C      1     0.0811     1.0080 
    14   opls_813      1    UNK   H0D      1     0.0811     1.0080 
    15   opls_814      1    UNK   H0E      1     0.0811     1.0080 
    16   opls_815      1    UNK   H0F      1     0.0884     1.0080 
    17   opls_816      1    UNK   H0G      1     0.0884     1.0080 
    18   opls_817      1    UNK   H0H      1     0.0995     1.0080 
    19   opls_818      1    UNK   H0I      1     0.0954     1.0080 
    20   opls_819      1    UNK   H0J      1     0.0954     1.0080 
    21   opls_820      1    UNK   H0K      1     0.0935     1.0080 
    22   opls_821      1    UNK   H0M      1     0.0935     1.0080 
    23   opls_822      1    UNK   H0N      1     0.0980     1.0080 
    24   opls_823      1    UNK   H0O      1     0.0921     1.0080 
    25   opls_824      1    UNK   H0P      1     0.0921     1.0080 
    26   opls_825      1    UNK   H0Q      1     0.0917     1.0080 
    27   opls_826      1    UNK   H0R      1     0.0917     1.0080 
    28   opls_827      1    UNK   H0S      1     0.1076     1.0080 
    29   opls_828      1    UNK   H0T      1     0.1076     1.0080 
    30   opls_829      1    UNK   H0U      1     0.1160     1.0080 
    31   opls_830      1    UNK   H0V      1     0.1160     1.0080 
    32   opls_831      1    UNK   H0W      1     0.0926     1.0080 
    33   opls_832      1    UNK   H0X      2     0.0926     1.0080 
[ bonds ]
    2     1     1      0.1529 224262.400
    3     2     1      0.1529 224262.400
    4     3     1      0.1529 224262.400
    5     4     1      0.1529 224262.400
    6     5     1      0.1529 224262.400
    7     6     1      0.1529 224262.400
    8     7     1      0.1529 224262.400
    9     8     1      0.1529 224262.400
   10     9     1      0.1529 224262.400
   11    10     1      0.1781 205016.000
   12     3     1      0.1529 224262.400
   13     1     1      0.1090 284512.000
   14     1     1      0.1090 284512.000
   15     1     1      0.1090 284512.000
   16     2     1      0.1090 284512.000
   17     2     1      0.1090 284512.000
   18     3     1      0.1090 284512.000
   19     4     1      0.1090 284512.000
   20     4     1      0.1090 284512.000
   21     5     1      0.1090 284512.000
   22     5     1      0.1090 284512.000
   23     6     1      0.1090 284512.000
   24     7     1      0.1090 284512.000
   25     7     1      0.1090 284512.000
   26     8     1      0.1090 284512.000
   27     8     1      0.1090 284512.000
   28     9     1      0.1090 284512.000
   29     9     1      0.1090 284512.000
   30    10     1      0.1090 284512.000
   31    10     1      0.1090 284512.000
   32    12     1      0.1090 284512.000
   33    12     1      0.1090 284512.000
   12     6     1      0.1529 224262.400

[ angles ]
;  ai    aj    ak funct            c0            c1            c2            c3 
    1     2     3     1    112.700    488.273
    2     3     4     1    112.700    488.273
    3     4     5     1    112.700    488.273
    4     5     6     1    112.700    488.273
    5     6     7     1    112.700    488.273
    6     7     8     1    112.700    488.273
    7     8     9     1    112.700    488.273
    8     9    10     1    112.700    488.273
    9    10    11     1    109.800    577.392
    2     3    12     1    112.700    488.273
    2     1    13     1    110.700    313.800
    2     1    14     1    110.700    313.800
    2     1    15     1    110.700    313.800
    1     2    16     1    110.700    313.800
    1     2    17     1    110.700    313.800
    2     3    18     1    110.700    313.800
    3     4    19     1    110.700    313.800
    3     4    20     1    110.700    313.800
    4     5    21     1    110.700    313.800
    4     5    22     1    110.700    313.800
    5     6    23     1    110.700    313.800
    6     7    24     1    110.700    313.800
    6     7    25     1    110.700    313.800
    7     8    26     1    110.700    313.800
    7     8    27     1    110.700    313.800
    8     9    28     1    110.700    313.800
    8     9    29     1    110.700    313.800
    9    10    30     1    110.700    313.800
    9    10    31     1    110.700    313.800
    3    12    32     1    110.700    313.800
    3    12    33     1    110.700    313.800
   10     9    29     1    110.700    313.800
   12     6    23     1    110.700    313.800
   13     1    14     1    107.800    276.144
   10     9    28     1    110.700    313.800
   26     8    27     1    107.800    276.144
   21     5    22     1    107.800    276.144
    6     5    22     1    110.700    313.800
    3     2    17     1    110.700    313.800
    3    12     6     1    112.700    488.273
   16     2    17     1    107.800    276.144
   19     4    20     1    107.800    276.144
   24     7    25     1    107.800    276.144
   28     9    29     1    107.800    276.144
    3     2    16     1    110.700    313.800
   12     3    18     1    110.700    313.800
    4     3    18     1    110.700    313.800
    6    12    33     1    110.700    313.800
   30    10    31     1    107.800    276.144
    8     7    25     1    110.700    313.800
   14     1    15     1    107.800    276.144
    5     6    12     1    112.700    488.273
    5     4    19     1    110.700    313.800
    6    12    32     1    110.700    313.800
    6     5    21     1    110.700    313.800
    5     4    20     1    110.700    313.800
   32    12    33     1    107.800    276.144
    4     3    12     1    112.700    488.273
    9     8    26     1    110.700    313.800
   11    10    30     1    107.600    426.768
    8     7    24     1    110.700    313.800
    7     6    23     1    110.700    313.800
   13     1    15     1    107.800    276.144
    9     8    27     1    110.700    313.800
    7     6    12     1    112.700    488.273
   11    10    31     1    107.600    426.768

[ dihedrals ]
; IMPROPER DIHEDRAL ANGLES 
;  ai    aj    ak    al funct            c0            c1            c2            c3            c4            c5

[ dihedrals ]
; PROPER DIHEDRAL ANGLES
;  ai    aj    ak    al funct            c0            c1            c2            c3            c4            c5
    4    3    2    1        3       2.301  -1.464   0.837  -1.674  -0.000   0.000
   12    3    2    1        3       2.301  -1.464   0.837  -1.674  -0.000   0.000
    6   12    3    2        3       2.301  -1.464   0.837  -1.674  -0.000   0.000
   12    6    5    4        3       2.301  -1.464   0.837  -1.674  -0.000   0.000
    5    6   12    3        3       2.301  -1.464   0.837  -1.674  -0.000   0.000
    6   12    3    4        3       2.301  -1.464   0.837  -1.674  -0.000   0.000
    7    6   12    3        3       2.301  -1.464   0.837  -1.674  -0.000   0.000
   12    3    4    5        3       2.301  -1.464   0.837  -1.674  -0.000   0.000
   12    6    7    8        3       2.301  -1.464   0.837  -1.674  -0.000   0.000
    7    6    5    4        3       2.301  -1.464   0.837  -1.674  -0.000   0.000
    6    5    4    3        3       2.301  -1.464   0.837  -1.674  -0.000   0.000
   10    9    8    7        3       2.301  -1.464   0.837  -1.674  -0.000   0.000
    5    4    3    2        3       2.301  -1.464   0.837  -1.674  -0.000   0.000
    9    8    7    6        3       2.301  -1.464   0.837  -1.674  -0.000   0.000
    8    7    6    5        3       2.301  -1.464   0.837  -1.674  -0.000   0.000
   11   10    9    8        3       0.837   2.510   0.000  -3.347  -0.000   0.000
   20    4    5    6        3       0.628   1.883   0.000  -2.510  -0.000   0.000
   18    3    2    1        3       0.628   1.883   0.000  -2.510  -0.000   0.000
   18    3   12    6        3       0.628   1.883   0.000  -2.510  -0.000   0.000
   19    4    3   12        3       0.628   1.883   0.000  -2.510  -0.000   0.000
   21    5    6   12        3       0.628   1.883   0.000  -2.510  -0.000   0.000
   22    5    4    3        3       0.628   1.883   0.000  -2.510  -0.000   0.000
   19    4    5    6        3       0.628   1.883   0.000  -2.510  -0.000   0.000
   16    2    3   12        3       0.628   1.883   0.000  -2.510  -0.000   0.000
   27    8    7    6        3       0.628   1.883   0.000  -2.510  -0.000   0.000
   32   12    6    7        3       0.628   1.883   0.000  -2.510  -0.000   0.000
   24    7    8    9        3       0.628   1.883   0.000  -2.510  -0.000   0.000
   16    2    3    4        3       0.628   1.883   0.000  -2.510  -0.000   0.000
   21    5    6    7        3       0.628   1.883   0.000  -2.510  -0.000   0.000
   27    8    9   10        3       0.628   1.883   0.000  -2.510  -0.000   0.000
   28    9    8    7        3       0.628   1.883   0.000  -2.510  -0.000   0.000
   20    4    3    2        3       0.628   1.883   0.000  -2.510  -0.000   0.000
   31   10    9    8        3       0.628   1.883   0.000  -2.510  -0.000   0.000
   14    1    2    3        3       0.628   1.883   0.000  -2.510  -0.000   0.000
   30   10    9    8        3       0.628   1.883   0.000  -2.510  -0.000   0.000
   22    5    6   12        3       0.628   1.883   0.000  -2.510  -0.000   0.000
   23    6   12    3        3       0.628   1.883   0.000  -2.510  -0.000   0.000
   32   12    3    4        3       0.628   1.883   0.000  -2.510  -0.000   0.000
   18    3    4    5        3       0.628   1.883   0.000  -2.510  -0.000   0.000
   26    8    7    6        3       0.628   1.883   0.000  -2.510  -0.000   0.000
   25    7    6   12        3       0.628   1.883   0.000  -2.510  -0.000   0.000
   25    7    8    9        3       0.628   1.883   0.000  -2.510  -0.000   0.000
   33   12    3    2        3       0.628   1.883   0.000  -2.510  -0.000   0.000
   25    7    6    5        3       0.628   1.883   0.000  -2.510  -0.000   0.000
   15    1    2    3        3       0.628   1.883   0.000  -2.510  -0.000   0.000
   33   12    6    5        3       0.628   1.883   0.000  -2.510  -0.000   0.000
   22    5    6    7        3       0.628   1.883   0.000  -2.510  -0.000   0.000
   17    2    3    4        3       0.628   1.883   0.000  -2.510  -0.000   0.000
   17    2    3   12        3       0.628   1.883   0.000  -2.510  -0.000   0.000
   33   12    6    7        3       0.628   1.883   0.000  -2.510  -0.000   0.000
   19    4    3    2        3       0.628   1.883   0.000  -2.510  -0.000   0.000
   33   12    3    4        3       0.628   1.883   0.000  -2.510  -0.000   0.000
   23    6    5    4        3       0.628   1.883   0.000  -2.510  -0.000   0.000
   21    5    4    3        3       0.628   1.883   0.000  -2.510  -0.000   0.000
   24    7    6   12        3       0.628   1.883   0.000  -2.510  -0.000   0.000
   23    6    7    8        3       0.628   1.883   0.000  -2.510  -0.000   0.000
   20    4    3   12        3       0.628   1.883   0.000  -2.510  -0.000   0.000
   24    7    6    5        3       0.628   1.883   0.000  -2.510  -0.000   0.000
   32   12    6    5        3       0.628   1.883   0.000  -2.510  -0.000   0.000
   29    9    8    7        3       0.628   1.883   0.000  -2.510  -0.000   0.000
   26    8    9   10        3       0.628   1.883   0.000  -2.510  -0.000   0.000
   13    1    2    3        3       0.628   1.883   0.000  -2.510  -0.000   0.000
   32   12    3    2        3       0.628   1.883   0.000  -2.510  -0.000   0.000
   29    9   10   11        3       0.837   2.510   0.000  -3.347  -0.000   0.000
   28    9   10   11        3       0.837   2.510   0.000  -3.347  -0.000   0.000
   18    3    2   16        3       0.628   1.883   0.000  -2.510  -0.000   0.000
   23    6    5   22        3       0.628   1.883   0.000  -2.510  -0.000   0.000
   16    2    1   15        3       0.628   1.883   0.000  -2.510  -0.000   0.000
   16    2    1   13        3       0.628   1.883   0.000  -2.510  -0.000   0.000
   23    6    5   21        3       0.628   1.883   0.000  -2.510  -0.000   0.000
   22    5    4   20        3       0.628   1.883   0.000  -2.510  -0.000   0.000
   27    8    7   25        3       0.628   1.883   0.000  -2.510  -0.000   0.000
   17    2    1   14        3       0.628   1.883   0.000  -2.510  -0.000   0.000
   30   10    9   28        3       0.628   1.883   0.000  -2.510  -0.000   0.000
   28    9    8   26        3       0.628   1.883   0.000  -2.510  -0.000   0.000
   33   12    6   23        3       0.628   1.883   0.000  -2.510  -0.000   0.000
   28    9    8   27        3       0.628   1.883   0.000  -2.510  -0.000   0.000
   29    9    8   26        3       0.628   1.883   0.000  -2.510  -0.000   0.000
   21    5    4   20        3       0.628   1.883   0.000  -2.510  -0.000   0.000
   22    5    4   19        3       0.628   1.883   0.000  -2.510  -0.000   0.000
   31   10    9   29        3       0.628   1.883   0.000  -2.510  -0.000   0.000
   32   12    3   18        3       0.628   1.883   0.000  -2.510  -0.000   0.000
   25    7    6   23        3       0.628   1.883   0.000  -2.510  -0.000   0.000
   27    8    7   24        3       0.628   1.883   0.000  -2.510  -0.000   0.000
   18    3    2   17        3       0.628   1.883   0.000  -2.510  -0.000   0.000
   29    9    8   27        3       0.628   1.883   0.000  -2.510  -0.000   0.000
   24    7    6   23        3       0.628   1.883   0.000  -2.510  -0.000   0.000
   31   10    9   28        3       0.628   1.883   0.000  -2.510  -0.000   0.000
   17    2    1   13        3       0.628   1.883   0.000  -2.510  -0.000   0.000
   16    2    1   14        3       0.628   1.883   0.000  -2.510  -0.000   0.000
   20    4    3   18        3       0.628   1.883   0.000  -2.510  -0.000   0.000
   21    5    4   19        3       0.628   1.883   0.000  -2.510  -0.000   0.000
   33   12    3   18        3       0.628   1.883   0.000  -2.510  -0.000   0.000
   19    4    3   18        3       0.628   1.883   0.000  -2.510  -0.000   0.000
   26    8    7   25        3       0.628   1.883   0.000  -2.510  -0.000   0.000
   26    8    7   24        3       0.628   1.883   0.000  -2.510  -0.000   0.000
   32   12    6   23        3       0.628   1.883   0.000  -2.510  -0.000   0.000
   30   10    9   29        3       0.628   1.883   0.000  -2.510  -0.000   0.000
   17    2    1   15        3       0.628   1.883   0.000  -2.510  -0.000   0.000

[ pairs ]
     1     4    1
     2     5    1
     2     6    1
     3     7    1
     4     7    1
     5     8    1
     1    12    1
     6     9    1
     3    13    1
     7    10    1
     3    14    1
     3    15    1
     8    11    1
     1    18    1
     8    12    1
     4    16    1
     4    17    1
     2    19    1
     2    20    1
     5    18    1
     6    18    1
     3    21    1
     6    19    1
     3    22    1
     6    20    1
     3    23    1
     4    23    1
    12    16    1
     7    21    1
    13    16    1
    12    17    1
     7    22    1
     5    24    1
    14    16    1
    13    17    1
     5    25    1
    15    16    1
    14    17    1
    12    19    1
     8    23    1
    15    17    1
    12    20    1
     6    26    1
    12    21    1
     9    24    1
     6    27    1
    16    18    1
    12    22    1
     9    25    1
     2    32    1
    17    18    1
     7    28    1
     2    33    1
    12    24    1
    10    26    1
     7    29    1
     4    32    1
    18    19    1
    12    25    1
    10    27    1
     5    32    1
     4    33    1
    18    20    1
     8    30    1
     5    33    1
    11    28    1
     8    31    1
     7    32    1
    19    21    1
    11    29    1
     7    33    1
    20    21    1
    19    22    1
    20    22    1
    21    23    1
    22    23    1
    23    24    1
    23    25    1
    24    26    1
    18    32    1
    25    26    1
    24    27    1
    18    33    1
    25    27    1
    26    28    1
    27    28    1
    26    29    1
    23    32    1
    27    29    1
    23    33    1
    28    30    1
    29    30    1
    28    31    1
    29    31    1

