LIGPARGEN GENERATED GRO FILE
   40
    1UNK    C00    1   0.100   0.100   0.000
    1UNK    C01    2  -0.052   0.100   0.000
    1UNK    C02    3  -0.107   0.100   0.142
    1UNK    C03    4  -0.261   0.100   0.148
    1UNK    C04    5  -0.332  -0.024   0.087
    1UNK    C05    6  -0.290  -0.152   0.158
    1UNK    C06    7  -0.486   0.003   0.083
    1UNK    C07    8  -0.553   0.021   0.218
    1UNK    C08    9  -0.656  -0.089   0.252
    1UNK    C09   10  -0.619  -0.234   0.212
    1UNK    C0A   11  -0.647  -0.274   0.065
    1UNK    C0B   12  -0.575  -0.194  -0.046
    1UNK    C0C   13  -0.591  -0.051  -0.016
    1UNK    C0D   14  -0.519   0.074  -0.048
    1UNK    H0E   15   0.138   0.100  -0.103
    1UNK    H0F   16   0.139   0.011   0.050
    1UNK    H0G   17   0.140   0.189   0.051
    1UNK    H0H   18  -0.087   0.012  -0.055
    1UNK    H0I   19  -0.088   0.189  -0.054
    1UNK    H0J   20  -0.072   0.190   0.194
    1UNK    H0K   21  -0.067   0.015   0.199
    1UNK    H0M   22  -0.297   0.191   0.098
    1UNK    H0N   23  -0.289   0.110   0.253
    1UNK    H0O   24  -0.298  -0.035  -0.017
    1UNK    H0P   25  -0.314  -0.149   0.265
    1UNK    H0Q   26  -0.182  -0.169   0.148
    1UNK    H0R   27  -0.338  -0.240   0.115
    1UNK    H0S   28  -0.603   0.119   0.220
    1UNK    H0T   29  -0.479   0.023   0.298
    1UNK    H0U   30  -0.754  -0.064   0.210
    1UNK    H0V   31  -0.670  -0.086   0.361
    1UNK    H0W   32  -0.680  -0.300   0.274
    1UNK    H0X   33  -0.516  -0.256   0.239
    1UNK    H0Y   34  -0.756  -0.265   0.049
    1UNK    H0Z   35  -0.623  -0.381   0.053
    1UNK    H10   36  -0.623  -0.217  -0.142
    1UNK    H11   37  -0.471  -0.225  -0.055
    1UNK    H12   38  -0.697  -0.031  -0.003
    1UNK    H13   39  -0.572   0.168  -0.042
    1UNK    H14   40  -0.451   0.070  -0.133
   1.00000   1.00000   1.00000

