LIGPARGEN GENERATED GRO FILE
   40
    1UNK    C00    1   0.100   0.100   0.000
    1UNK    C01    2  -0.052   0.100   0.000
    1UNK    C02    3  -0.120   0.100   0.139
    1UNK    C03    4  -0.073  -0.016   0.226
    1UNK    C04    5  -0.106   0.234   0.215
    1UNK    C05    6  -0.183   0.352   0.152
    1UNK    C06    7  -0.331   0.320   0.119
    1UNK    C07    8  -0.433   0.287   0.227
    1UNK    C08    9  -0.401   0.307   0.372
    1UNK    C09   10  -0.461   0.401   0.131
    1UNK    C0A   11  -0.467   0.542   0.183
    1UNK    C0B   12  -0.567   0.374   0.026
    1UNK    C0C   13  -0.133   0.490   0.192
    1UNK    C0D   14  -0.102   0.437   0.056
    1UNK    H0E   15   0.137   0.100  -0.103
    1UNK    H0F   16   0.140   0.011   0.049
    1UNK    H0G   17   0.141   0.188   0.050
    1UNK    H0H   18  -0.086   0.011  -0.055
    1UNK    H0I   19  -0.087   0.186  -0.059
    1UNK    H0J   20  -0.227   0.082   0.121
    1UNK    H0K   21   0.033  -0.007   0.254
    1UNK    H0M   22  -0.087  -0.112   0.174
    1UNK    H0N   23  -0.131  -0.021   0.319
    1UNK    H0O   24   0.000   0.259   0.226
    1UNK    H0P   25  -0.144   0.221   0.317
    1UNK    H0Q   26  -0.335   0.254   0.031
    1UNK    H0R   27  -0.490   0.195   0.215
    1UNK    H0S   28  -0.327   0.385   0.389
    1UNK    H0T   29  -0.362   0.213   0.413
    1UNK    H0U   30  -0.492   0.332   0.427
    1UNK    H0V   31  -0.392   0.566   0.257
    1UNK    H0W   32  -0.564   0.560   0.230
    1UNK    H0X   33  -0.458   0.613   0.099
    1UNK    H0Y   34  -0.579   0.267   0.006
    1UNK    H0Z   35  -0.539   0.423  -0.068
    1UNK    H10   36  -0.664   0.413   0.058
    1UNK    H11   37  -0.053   0.496   0.265
    1UNK    H12   38  -0.198   0.576   0.195
    1UNK    H13   39   0.001   0.410   0.035
    1UNK    H14   40  -0.153   0.481  -0.028
   1.00000   1.00000   1.00000

