LIGPARGEN GENERATED GRO FILE
   40
    1UNK    C00    1   0.100   0.100   0.000
    1UNK    C01    2  -0.053   0.100   0.000
    1UNK    C02    3  -0.120   0.100   0.139
    1UNK    C03    4  -0.080  -0.026   0.216
    1UNK    C04    5  -0.087   0.227   0.220
    1UNK    C05    6  -0.150   0.238   0.364
    1UNK    C06    7  -0.066   0.304   0.475
    1UNK    C07    8  -0.148   0.310   0.604
    1UNK    C08    9   0.062   0.223   0.500
    1UNK    C09   10  -0.261   0.326   0.301
    1UNK    C0A   11  -0.165   0.352   0.191
    1UNK    C0B   12  -0.104   0.487   0.164
    1UNK    C0C   13  -0.192   0.420   0.060
    1UNK    C0D   14  -0.327   0.474   0.029
    1UNK    H0E   15   0.137   0.100  -0.103
    1UNK    H0F   16   0.140   0.011   0.049
    1UNK    H0G   17   0.141   0.189   0.049
    1UNK    H0H   18  -0.086   0.011  -0.055
    1UNK    H0I   19  -0.087   0.185  -0.059
    1UNK    H0J   20  -0.228   0.095   0.123
    1UNK    H0K   21   0.025  -0.024   0.246
    1UNK    H0M   22  -0.098  -0.116   0.156
    1UNK    H0N   23  -0.139  -0.038   0.308
    1UNK    H0O   24   0.021   0.246   0.221
    1UNK    H0P   25  -0.192   0.144   0.401
    1UNK    H0Q   26  -0.037   0.405   0.446
    1UNK    H0R   27  -0.177   0.210   0.637
    1UNK    H0S   28  -0.239   0.369   0.590
    1UNK    H0T   29  -0.090   0.357   0.684
    1UNK    H0U   30   0.039   0.119   0.526
    1UNK    H0V   31   0.120   0.267   0.582
    1UNK    H0W   32   0.126   0.221   0.412
    1UNK    H0X   33  -0.292   0.413   0.360
    1UNK    H0Y   34  -0.351   0.271   0.271
    1UNK    H0Z   35   0.002   0.492   0.144
    1UNK    H10   36  -0.144   0.573   0.217
    1UNK    H11   37  -0.141   0.386  -0.029
    1UNK    H12   38  -0.377   0.514   0.117
    1UNK    H13   39  -0.390   0.395  -0.013
    1UNK    H14   40  -0.319   0.554  -0.045
   1.00000   1.00000   1.00000

