LIGPARGEN GENERATED GRO FILE
   42
    1UNK    C00    1   0.100   0.100   0.000
    1UNK    C01    2  -0.053   0.100   0.000
    1UNK    C02    3  -0.105   0.100   0.144
    1UNK    C03    4  -0.105   0.220  -0.081
    1UNK    C04    5  -0.258   0.225  -0.095
    1UNK    C05    6  -0.304   0.343  -0.182
    1UNK    C06    7  -0.253   0.343  -0.328
    1UNK    C07    8  -0.262   0.210  -0.403
    1UNK    C08    9  -0.340   0.451  -0.392
    1UNK    C09   10  -0.480   0.431  -0.333
    1UNK    C0A   11  -0.560   0.561  -0.339
    1UNK    C0B   12  -0.459   0.367  -0.191
    1UNK    C0C   13  -0.542   0.238  -0.181
    1UNK    C0D   14  -0.503   0.458  -0.074
    1UNK    H0E   15   0.139   0.013   0.055
    1UNK    H0F   16   0.140   0.191   0.047
    1UNK    H0G   17   0.139   0.095  -0.102
    1UNK    H0H   18  -0.087   0.007  -0.049
    1UNK    H0I   19  -0.081   0.194   0.194
    1UNK    H0J   20  -0.059   0.019   0.201
    1UNK    H0K   21  -0.213   0.085   0.147
    1UNK    H0M   22  -0.059   0.216  -0.181
    1UNK    H0N   23  -0.070   0.313  -0.035
    1UNK    H0O   24  -0.302   0.236   0.004
    1UNK    H0P   25  -0.293   0.130  -0.136
    1UNK    H0Q   26  -0.261   0.433  -0.136
    1UNK    H0R   27  -0.148   0.375  -0.330
    1UNK    H0S   28  -0.365   0.173  -0.411
    1UNK    H0T   29  -0.202   0.133  -0.355
    1UNK    H0U   30  -0.224   0.222  -0.505
    1UNK    H0V   31  -0.341   0.445  -0.501
    1UNK    H0W   32  -0.300   0.550  -0.364
    1UNK    H0X   33  -0.532   0.358  -0.397
    1UNK    H0Y   34  -0.512   0.641  -0.283
    1UNK    H0Z   35  -0.661   0.547  -0.300
    1UNK    H10   36  -0.568   0.595  -0.443
    1UNK    H11   37  -0.513   0.163  -0.255
    1UNK    H12   38  -0.649   0.259  -0.197
    1UNK    H13   39  -0.533   0.192  -0.082
    1UNK    H14   40  -0.450   0.553  -0.075
    1UNK    H15   41  -0.484   0.410   0.022
    1UNK    H16   42  -0.610   0.479  -0.079
   1.00000   1.00000   1.00000

