LIGPARGEN GENERATED GRO FILE
   44
    1UNK    C00    1   0.100   0.100   0.000
    1UNK    C01    2  -0.052   0.100   0.000
    1UNK    C02    3  -0.110   0.100   0.142
    1UNK    C03    4  -0.263   0.100   0.136
    1UNK    C04    5  -0.335   0.100   0.272
    1UNK    C05    6  -0.301   0.225   0.354
    1UNK    C06    7  -0.490   0.081   0.257
    1UNK    C07    8  -0.555   0.195   0.175
    1UNK    C08    9  -0.707   0.195   0.168
    1UNK    C09   10  -0.527  -0.056   0.194
    1UNK    C0A   11  -0.471  -0.180   0.265
    1UNK    C0B   12  -0.504  -0.311   0.191
    1UNK    C0C   13  -0.438  -0.312   0.059
    1UNK    N0D   14  -0.380  -0.313  -0.042
    1UNK    C0E   15  -0.456  -0.431   0.273
    1UNK    C0F   16  -0.494  -0.562   0.209
    1UNK    O0G   17  -0.593  -0.577   0.140
    1UNK    H0H   18   0.138   0.105  -0.103
    1UNK    H0I   19   0.139   0.009   0.046
    1UNK    H0J   20   0.139   0.186   0.054
    1UNK    H0K   21  -0.088   0.012  -0.055
    1UNK    H0M   22  -0.087   0.189  -0.054
    1UNK    H0N   23  -0.073   0.188   0.195
    1UNK    H0O   24  -0.074   0.012   0.196
    1UNK    H0P   25  -0.292   0.011   0.079
    1UNK    H0Q   26  -0.294   0.187   0.077
    1UNK    H0R   27  -0.295   0.016   0.331
    1UNK    H0S   28  -0.327   0.318   0.302
    1UNK    H0T   29  -0.193   0.230   0.377
    1UNK    H0U   30  -0.353   0.224   0.451
    1UNK    H0V   31  -0.534   0.083   0.358
    1UNK    H0W   32  -0.517   0.192   0.072
    1UNK    H0X   33  -0.525   0.293   0.215
    1UNK    H0Y   34  -0.749   0.096   0.149
    1UNK    H0Z   35  -0.740   0.260   0.087
    1UNK    H10   36  -0.750   0.233   0.261
    1UNK    H11   37  -0.496  -0.056   0.089
    1UNK    H12   38  -0.636  -0.068   0.193
    1UNK    H13   39  -0.513  -0.183   0.367
    1UNK    H14   40  -0.362  -0.173   0.276
    1UNK    H15   41  -0.613  -0.317   0.176
    1UNK    H16   42  -0.499  -0.430   0.374
    1UNK    H17   43  -0.347  -0.429   0.283
    1UNK    H18   44  -0.429  -0.648   0.236
   1.00000   1.00000   1.00000

