
;
; GENERATED BY LigParGen Server
; Jorgensen Lab @ Yale University 
;
[ atomtypes ]
  opls_818  H818     1.0080     0.000    A    2.50000E-01   1.25520E-01
  opls_812  C812    12.0110     0.000    A    3.45000E-01   3.47272E-01
  opls_824  H824     1.0080     0.000    A    2.50000E-01   1.25520E-01
  opls_815  C815    12.0110     0.000    A    3.45000E-01   3.47272E-01
  opls_810  C810    12.0110     0.000    A    3.45000E-01   3.47272E-01
  opls_836  H836     1.0080     0.000    A    2.50000E-01   1.25520E-01
  opls_834  H834     1.0080     0.000    A    2.50000E-01   1.25520E-01
  opls_828  H828     1.0080     0.000    A    2.50000E-01   1.25520E-01
  opls_803  C803    12.0110     0.000    A    3.45000E-01   3.47272E-01
  opls_806  C806    12.0110     0.000    A    3.50000E-01   2.76144E-01
  opls_827  H827     1.0080     0.000    A    2.50000E-01   1.25520E-01
  opls_809  C809    12.0110     0.000    A    3.50000E-01   2.76144E-01
  opls_838  H838     1.0080     0.000    A    2.50000E-01   1.25520E-01
  opls_822  H822     1.0080     0.000    A    2.50000E-01   1.25520E-01
  opls_807  C807    12.0110     0.000    A    3.50000E-01   2.76144E-01
  opls_808  C808    12.0110     0.000    A    3.45000E-01   3.47272E-01
  opls_825  H825     1.0080     0.000    A    2.50000E-01   1.25520E-01
  opls_826  H826     1.0080     0.000    A    2.50000E-01   1.25520E-01
  opls_830  H830     1.0080     0.000    A    2.50000E-01   1.25520E-01
  opls_802  C802    12.0110     0.000    A    3.45000E-01   3.47272E-01
  opls_821  H821     1.0080     0.000    A    2.50000E-01   1.25520E-01
  opls_820  H820     1.0080     0.000    A    2.50000E-01   1.25520E-01
  opls_837  H837     1.0080     0.000    A    2.50000E-01   1.25520E-01
  opls_829  H829     1.0080     0.000    A    2.50000E-01   1.25520E-01
  opls_831  H831     1.0080     0.000    A    2.50000E-01   1.25520E-01
  opls_832  H832     1.0080     0.000    A    2.50000E-01   1.25520E-01
  opls_816  H816     1.0080     0.000    A    2.50000E-01   1.25520E-01
  opls_800  C800    12.0110     0.000    A    3.50000E-01   2.76144E-01
  opls_813  C813    12.0110     0.000    A    3.45000E-01   3.47272E-01
  opls_814  C814    12.0110     0.000    A    3.45000E-01   3.47272E-01
  opls_804  C804    12.0110     0.000    A    3.30000E-01   2.76144E-01
  opls_823  H823     1.0080     0.000    A    2.50000E-01   1.25520E-01
  opls_833  H833     1.0080     0.000    A    2.50000E-01   1.25520E-01
  opls_811  C811    12.0110     0.000    A    3.45000E-01   3.47272E-01
  opls_835  H835     1.0080     0.000    A    2.50000E-01   1.25520E-01
  opls_805  N805    14.0070     0.000    A    3.20000E-01   7.11280E-01
  opls_819  H819     1.0080     0.000    A    2.50000E-01   1.25520E-01
  opls_817  H817     1.0080     0.000    A    2.50000E-01   1.25520E-01
  opls_801  C801    12.0110     0.000    A    3.45000E-01   3.47272E-01
[ moleculetype ]
; Name               nrexcl
UNK                   3
[ atoms ]
;   nr       type  resnr residue  atom   cgnr     charge       mass  
     1   opls_800      1    UNK   C00      1    -0.2276    12.0110 
     2   opls_801      1    UNK   C01      1    -0.1491    12.0110 
     3   opls_802      1    UNK   C02      1    -0.1663    12.0110 
     4   opls_803      1    UNK   C03      1     0.0259    12.0110 
     5   opls_804      1    UNK   C04      1     0.1541    12.0110 
     6   opls_805      1    UNK   N05      1    -0.3703    14.0070 
     7   opls_806      1    UNK   C06      1    -0.0376    12.0110 
     8   opls_807      1    UNK   C07      1    -0.1306    12.0110 
     9   opls_808      1    UNK   C08      1    -0.1147    12.0110 
    10   opls_809      1    UNK   C09      1    -0.2003    12.0110 
    11   opls_810      1    UNK   C0A      1    -0.2476    12.0110 
    12   opls_811      1    UNK   C0B      1    -0.2301    12.0110 
    13   opls_812      1    UNK   C0C      1    -0.1793    12.0110 
    14   opls_813      1    UNK   C0D      1    -0.2399    12.0110 
    15   opls_814      1    UNK   C0E      1    -0.2342    12.0110 
    16   opls_815      1    UNK   C0F      1    -0.1743    12.0110 
    17   opls_816      1    UNK   H0G      1     0.0872     1.0080 
    18   opls_817      1    UNK   H0H      1     0.0872     1.0080 
    19   opls_818      1    UNK   H0I      1     0.0872     1.0080 
    20   opls_819      1    UNK   H0J      1     0.1158     1.0080 
    21   opls_820      1    UNK   H0K      1     0.1129     1.0080 
    22   opls_821      1    UNK   H0M      1     0.1129     1.0080 
    23   opls_822      1    UNK   H0N      1     0.1109     1.0080 
    24   opls_823      1    UNK   H0O      1     0.0971     1.0080 
    25   opls_824      1    UNK   H0P      1     0.0971     1.0080 
    26   opls_825      1    UNK   H0Q      1     0.0848     1.0080 
    27   opls_826      1    UNK   H0R      1     0.0848     1.0080 
    28   opls_827      1    UNK   H0S      1     0.0848     1.0080 
    29   opls_828      1    UNK   H0T      1     0.1237     1.0080 
    30   opls_829      1    UNK   H0U      1     0.1237     1.0080 
    31   opls_830      1    UNK   H0V      1     0.1241     1.0080 
    32   opls_831      1    UNK   H0W      1     0.1241     1.0080 
    33   opls_832      1    UNK   H0X      2     0.1407     1.0080 
    34   opls_833      1    UNK   H0Y      2     0.1249     1.0080 
    35   opls_834      1    UNK   H0Z      2     0.1249     1.0080 
    36   opls_835      1    UNK   H10      2     0.1241     1.0080 
    37   opls_836      1    UNK   H11      2     0.1241     1.0080 
    38   opls_837      1    UNK   H12      2     0.1125     1.0080 
    39   opls_838      1    UNK   H13      2     0.1125     1.0080 
[ bonds ]
    2     1     1      0.1510 234304.000
    3     2     1      0.1520 217568.000
    4     3     1      0.1520 217568.000
    5     4     1      0.1451 334720.000
    6     5     1      0.1157 543920.000
    7     4     1      0.1510 234304.000
    8     7     1      0.1529 224262.400
    9     8     1      0.1510 234304.000
   10     9     1      0.1510 234304.000
   11     9     1      0.1520 217568.000
   12     9     1      0.1520 217568.000
   13     7     1      0.1510 234304.000
   14    13     1      0.1520 217568.000
   15    13     1      0.1520 217568.000
   16     2     1      0.1520 217568.000
   17     1     1      0.1090 284512.000
   18     1     1      0.1090 284512.000
   19     1     1      0.1090 284512.000
   20     2     1      0.1088 284512.000
   21     3     1      0.1088 284512.000
   22     3     1      0.1088 284512.000
   23     7     1      0.1090 284512.000
   24     8     1      0.1090 284512.000
   25     8     1      0.1090 284512.000
   26    10     1      0.1090 284512.000
   27    10     1      0.1090 284512.000
   28    10     1      0.1090 284512.000
   29    11     1      0.1088 284512.000
   30    11     1      0.1088 284512.000
   31    12     1      0.1088 284512.000
   32    12     1      0.1088 284512.000
   33    13     1      0.1088 284512.000
   34    14     1      0.1088 284512.000
   35    14     1      0.1088 284512.000
   36    15     1      0.1088 284512.000
   37    15     1      0.1088 284512.000
   38    16     1      0.1088 284512.000
   39    16     1      0.1088 284512.000
   16     4     1      0.1520 217568.000
   12    11     1      0.1520 217568.000
   15    14     1      0.1520 217568.000

[ angles ]
;  ai    aj    ak funct            c0            c1            c2            c3 
    1     2     3     1    117.200    313.800
    2     3     4     1     83.000    251.040
    3     4     5     1    109.430    358.401
    4     5     6     1    180.000   1255.200
    3     4     7     1    117.200    313.800
    4     7     8     1    112.700    488.273
    7     8     9     1    112.700    488.273
    8     9    10     1    114.300    292.880
    8     9    11     1    117.200    313.800
    8     9    12     1    117.200    313.800
    4     7    13     1    112.700    488.273
    7    13    14     1    117.200    313.800
    7    13    15     1    117.200    313.800
    1     2    16     1    117.200    313.800
    2     1    17     1    110.700    313.800
    2     1    18     1    110.700    313.800
    2     1    19     1    110.700    313.800
    1     2    20     1    114.300    292.880
    2     3    21     1    117.200    313.800
    2     3    22     1    117.200    313.800
    4     7    23     1    110.700    313.800
    7     8    24     1    110.700    313.800
    7     8    25     1    110.700    313.800
    9    10    26     1    110.700    313.800
    9    10    27     1    110.700    313.800
    9    10    28     1    110.700    313.800
    9    11    29     1    117.200    313.800
    9    11    30     1    117.200    313.800
    9    12    31     1    117.200    313.800
    9    12    32     1    117.200    313.800
    7    13    33     1    114.300    292.880
   13    14    34     1    117.200    313.800
   13    14    35     1    117.200    313.800
   13    15    36     1    117.200    313.800
   13    15    37     1    117.200    313.800
    2    16    38     1    117.200    313.800
    2    16    39     1    117.200    313.800
   15    14    34     1    117.200    313.800
   26    10    27     1    107.800    276.144
   27    10    28     1    107.800    276.144
   17     1    19     1    107.800    276.144
    3     2    20     1    117.200    313.800
    9     8    25     1    110.700    313.800
   15    14    35     1    117.200    313.800
   24     8    25     1    107.800    276.144
   14    13    33     1    117.200    313.800
   34    14    35     1    114.300    292.880
    7     4    16     1    117.200    313.800
   31    12    32     1    114.300    292.880
   13    14    15     1     83.000    251.040
    9    11    12     1     83.000    251.040
   13     7    23     1    110.700    313.800
    4     3    22     1    117.200    313.800
   21     3    22     1    114.300    292.880
   17     1    18     1    107.800    276.144
   10     9    11     1    117.200    313.800
   13    15    14     1     83.000    251.040
    8     7    13     1    112.700    488.273
   14    13    15     1     83.000    251.040
    5     4    16     1    109.430    358.401
   12    11    30     1    117.200    313.800
    3     2    16     1     83.000    251.040
   11    12    31     1    117.200    313.800
    8     7    23     1    110.700    313.800
   10     9    12     1    117.200    313.800
    9     8    24     1    110.700    313.800
   36    15    37     1    114.300    292.880
    4     3    21     1    117.200    313.800
    2    16     4     1     83.000    251.040
   26    10    28     1    107.800    276.144
   14    15    36     1    117.200    313.800
   15    13    33     1    117.200    313.800
   11     9    12     1     83.000    251.040
    9    12    11     1     83.000    251.040
    4    16    39     1    117.200    313.800
    3     4    16     1     83.000    251.040
   18     1    19     1    107.800    276.144
   11    12    32     1    117.200    313.800
   12    11    29     1    117.200    313.800
    5     4     7     1    112.700    488.273
   29    11    30     1    114.300    292.880
   14    15    37     1    117.200    313.800
    4    16    38     1    117.200    313.800
   16     2    20     1    117.200    313.800
   38    16    39     1    114.300    292.880

[ dihedrals ]
; IMPROPER DIHEDRAL ANGLES 
;  ai    aj    ak    al funct            c0            c1            c2            c3            c4            c5

[ dihedrals ]
; PROPER DIHEDRAL ANGLES
;  ai    aj    ak    al funct            c0            c1            c2            c3            c4            c5
    8    7    4    3        3       0.000   0.000   0.000  -0.000  -0.000   0.000
    8    7    4    5        3       0.000   0.000   0.000  -0.000  -0.000   0.000
   10    9    8    7        3       2.301  -1.464   0.837  -1.674  -0.000   0.000
    7    4   16    2        3       0.000   0.000   0.000  -0.000  -0.000   0.000
    7    4    3    2        3       0.000   0.000   0.000  -0.000  -0.000   0.000
    7    4    5    6        3       0.000   0.000   0.000  -0.000  -0.000   0.000
    9    8    7    4        3       2.301  -1.464   0.837  -1.674  -0.000   0.000
   13    7    8    9        3       2.301  -1.464   0.837  -1.674  -0.000   0.000
   13    7    4    3        3       0.000   0.000   0.000  -0.000  -0.000   0.000
   13    7    4    5        3       0.000   0.000   0.000  -0.000  -0.000   0.000
   15   13    7    8        3       0.000   0.000   0.000  -0.000  -0.000   0.000
   11    9    8    7        3       0.000   0.000   0.000  -0.000  -0.000   0.000
   16    4    7    8        3       0.000   0.000   0.000  -0.000  -0.000   0.000
   14   13    7    8        3       0.000   0.000   0.000  -0.000  -0.000   0.000
   12    9    8    7        3       0.000   0.000   0.000  -0.000  -0.000   0.000
   15   13    7   14        3       0.000   0.000   0.000  -0.000  -0.000   0.000
   14   13    7    4        3       0.000   0.000   0.000  -0.000  -0.000   0.000
   15   13    7    4        3       0.000   0.000   0.000  -0.000  -0.000   0.000
   16    4    7   13        3       0.000   0.000   0.000  -0.000  -0.000   0.000
    4   16    2    1        3       0.000   0.000   0.000  -0.000  -0.000   0.000
    4    3    2    1        3       0.000   0.000   0.000  -0.000  -0.000   0.000
   16    4    5    6        3       0.000   0.000   0.000  -0.000  -0.000   0.000
    5    4    3    2        3       0.000   0.000   0.000  -0.000  -0.000   0.000
    5    4   16    2        3       0.000   0.000   0.000  -0.000  -0.000   0.000
   25    8    7   13        3       0.628   1.883   0.000  -2.510  -0.000   0.000
   24    8    7    4        3       0.628   1.883   0.000  -2.510  -0.000   0.000
   23    7    8    9        3       0.628   1.883   0.000  -2.510  -0.000   0.000
   25    8    7    4        3       0.628   1.883   0.000  -2.510  -0.000   0.000
   24    8    7   13        3       0.628   1.883   0.000  -2.510  -0.000   0.000
   25    8    7   23        3       0.628   1.883   0.000  -2.510  -0.000   0.000
   24    8    7   23        3       0.628   1.883   0.000  -2.510  -0.000   0.000
   28   10    9    8        3       0.628   1.883   0.000  -2.510  -0.000   0.000
   25    8    9   10        3       0.628   1.883   0.000  -2.510  -0.000   0.000
   27   10    9    8        3       0.628   1.883   0.000  -2.510  -0.000   0.000
   24    8    9   10        3       0.628   1.883   0.000  -2.510  -0.000   0.000
   26   10    9    8        3       0.628   1.883   0.000  -2.510  -0.000   0.000
   17    1    2   16        3       0.628   1.883   0.000  -2.510  -0.000   0.000
   27   10    9   11        3       0.628   1.883   0.000  -2.510  -0.000   0.000
   23    7   13   15        3       0.628   1.883   0.000  -2.510  -0.000   0.000
   23    7    4    3        3       0.628   1.883   0.000  -2.510  -0.000   0.000
   26   10    9   11        3       0.628   1.883   0.000  -2.510  -0.000   0.000
   28   10    9   12        3       0.628   1.883   0.000  -2.510  -0.000   0.000
   18    1    2    3        3       0.628   1.883   0.000  -2.510  -0.000   0.000
   26   10    9   12        3       0.628   1.883   0.000  -2.510  -0.000   0.000
   24    8    9   12        3       0.628   1.883   0.000  -2.510  -0.000   0.000
   25    8    9   11        3       0.628   1.883   0.000  -2.510  -0.000   0.000
   23    7   13   14        3       0.628   1.883   0.000  -2.510  -0.000   0.000
   23    7    4   16        3       0.628   1.883   0.000  -2.510  -0.000   0.000
   27   10    9   12        3       0.628   1.883   0.000  -2.510  -0.000   0.000
   25    8    9   12        3       0.628   1.883   0.000  -2.510  -0.000   0.000
   19    1    2   16        3       0.628   1.883   0.000  -2.510  -0.000   0.000
   17    1    2    3        3       0.628   1.883   0.000  -2.510  -0.000   0.000
   28   10    9   11        3       0.628   1.883   0.000  -2.510  -0.000   0.000
   24    8    9   11        3       0.628   1.883   0.000  -2.510  -0.000   0.000
   19    1    2    3        3       0.628   1.883   0.000  -2.510  -0.000   0.000
   18    1    2   16        3       0.628   1.883   0.000  -2.510  -0.000   0.000
   23    7    4    5        3       0.628   1.883   0.000  -2.510  -0.000   0.000
   33   13    7    8        3       0.628   1.883   0.000  -2.510  -0.000   0.000
   33   13    7    4        3       0.000   0.000   0.000  -0.000  -0.000   0.000
   20    2    1   18        3       0.628   1.883   0.000  -2.510  -0.000   0.000
   20    2    1   17        3       0.628   1.883   0.000  -2.510  -0.000   0.000
   20    2    1   19        3       0.628   1.883   0.000  -2.510  -0.000   0.000
   33   13    7   23        3       0.628   1.883   0.000  -2.510  -0.000   0.000
   36   15   13    7        3       0.000   0.000   0.000  -0.000  -0.000   0.000
   31   12    9    8        3       0.000   0.000   0.000  -0.000  -0.000   0.000
   22    3    4    7        3       0.000   0.000   0.000  -0.000  -0.000   0.000
   30   11    9   10        3       0.000   0.000   0.000  -0.000  -0.000   0.000
   21    3    4    7        3       0.000   0.000   0.000  -0.000  -0.000   0.000
   29   11    9   10        3       0.000   0.000   0.000  -0.000  -0.000   0.000
   34   14   13    7        3       0.000   0.000   0.000  -0.000  -0.000   0.000
   31   12    9   10        3       0.000   0.000   0.000  -0.000  -0.000   0.000
   22    3    2    1        3       0.000   0.000   0.000  -0.000  -0.000   0.000
   39   16    2    1        3       0.000   0.000   0.000  -0.000  -0.000   0.000
   21    3    2    1        3       0.000   0.000   0.000  -0.000  -0.000   0.000
   32   12    9   10        3       0.000   0.000   0.000  -0.000  -0.000   0.000
   37   15   13    7        3       0.000   0.000   0.000  -0.000  -0.000   0.000
   39   16    4    7        3       0.000   0.000   0.000  -0.000  -0.000   0.000
   38   16    2    1        3       0.000   0.000   0.000  -0.000  -0.000   0.000
   29   11    9    8        3       0.000   0.000   0.000  -0.000  -0.000   0.000
   35   14   13    7        3       0.000   0.000   0.000  -0.000  -0.000   0.000
   38   16    4    7        3       0.000   0.000   0.000  -0.000  -0.000   0.000
   32   12    9    8        3       0.000   0.000   0.000  -0.000  -0.000   0.000
   30   11    9    8        3       0.000   0.000   0.000  -0.000  -0.000   0.000
   30   11   12    9        3       0.000   0.000   0.000  -0.000  -0.000   0.000
   34   14   15   13        3       0.000   0.000   0.000  -0.000  -0.000   0.000
   39   16    2    3        3       0.000   0.000   0.000  -0.000  -0.000   0.000
   32   12   11    9        3       0.000   0.000   0.000  -0.000  -0.000   0.000
   38   16    4    3        3       0.000   0.000   0.000  -0.000  -0.000   0.000
   35   14   15   13        3       0.000   0.000   0.000  -0.000  -0.000   0.000
   39   16    4    3        3       0.000   0.000   0.000  -0.000  -0.000   0.000
   21    3    2   16        3       0.000   0.000   0.000  -0.000  -0.000   0.000
   36   15   13   14        3       0.000   0.000   0.000  -0.000  -0.000   0.000
   31   12   11    9        3       0.000   0.000   0.000  -0.000  -0.000   0.000
   22    3    4   16        3       0.000   0.000   0.000  -0.000  -0.000   0.000
   37   15   14   13        3       0.000   0.000   0.000  -0.000  -0.000   0.000
   30   11    9   12        3       0.000   0.000   0.000  -0.000  -0.000   0.000
   33   13   14   15        3       0.000   0.000   0.000  -0.000  -0.000   0.000
   20    2   16    4        3       0.000   0.000   0.000  -0.000  -0.000   0.000
   29   11   12    9        3       0.000   0.000   0.000  -0.000  -0.000   0.000
   29   11    9   12        3       0.000   0.000   0.000  -0.000  -0.000   0.000
   38   16    2    3        3       0.000   0.000   0.000  -0.000  -0.000   0.000
   36   15   14   13        3       0.000   0.000   0.000  -0.000  -0.000   0.000
   32   12    9   11        3       0.000   0.000   0.000  -0.000  -0.000   0.000
   22    3    2   16        3       0.000   0.000   0.000  -0.000  -0.000   0.000
   34   14   13   15        3       0.000   0.000   0.000  -0.000  -0.000   0.000
   37   15   13   14        3       0.000   0.000   0.000  -0.000  -0.000   0.000
   35   14   13   15        3       0.000   0.000   0.000  -0.000  -0.000   0.000
   33   13   15   14        3       0.000   0.000   0.000  -0.000  -0.000   0.000
   21    3    4   16        3       0.000   0.000   0.000  -0.000  -0.000   0.000
   20    2    3    4        3       0.000   0.000   0.000  -0.000  -0.000   0.000
   31   12    9   11        3       0.000   0.000   0.000  -0.000  -0.000   0.000
   38   16    4    5        3       0.000   0.000   0.000  -0.000  -0.000   0.000
   22    3    4    5        3       0.000   0.000   0.000  -0.000  -0.000   0.000
   21    3    4    5        3       0.000   0.000   0.000  -0.000  -0.000   0.000
   39   16    4    5        3       0.000   0.000   0.000  -0.000  -0.000   0.000
   21    3    2   20        3       0.000   0.000   0.000  -0.000  -0.000   0.000
   38   16    2   20        3       0.000   0.000   0.000  -0.000  -0.000   0.000
   32   12   11   29        3       0.000   0.000   0.000  -0.000  -0.000   0.000
   37   15   14   35        3       0.000   0.000   0.000  -0.000  -0.000   0.000
   31   12   11   30        3       0.000   0.000   0.000  -0.000  -0.000   0.000
   39   16    2   20        3       0.000   0.000   0.000  -0.000  -0.000   0.000
   35   14   13   33        3       0.000   0.000   0.000  -0.000  -0.000   0.000
   34   14   13   33        3       0.000   0.000   0.000  -0.000  -0.000   0.000
   37   15   13   33        3       0.000   0.000   0.000  -0.000  -0.000   0.000
   37   15   14   34        3       0.000   0.000   0.000  -0.000  -0.000   0.000
   36   15   14   34        3       0.000   0.000   0.000  -0.000  -0.000   0.000
   36   15   13   33        3       0.000   0.000   0.000  -0.000  -0.000   0.000
   22    3    2   20        3       0.000   0.000   0.000  -0.000  -0.000   0.000
   31   12   11   29        3       0.000   0.000   0.000  -0.000  -0.000   0.000
   32   12   11   30        3       0.000   0.000   0.000  -0.000  -0.000   0.000
   36   15   14   35        3       0.000   0.000   0.000  -0.000  -0.000   0.000
    6    5    4    3        3       0.000   0.000   0.000  -0.000  -0.000   0.000

[ pairs ]
     1     4    1
     2     5    1
     3     6    1
     2     7    1
     3     8    1
     6     7    1
     5     8    1
     4     9    1
     3    13    1
     7    10    1
     7    11    1
     5    13    1
     4    14    1
     7    12    1
     4    15    1
     3    17    1
     3    18    1
     9    13    1
     8    14    1
     6    16    1
     3    19    1
     1    21    1
     8    15    1
     1    22    1
     8    16    1
     4    20    1
     5    21    1
     3    23    1
     5    22    1
     7    21    1
     5    23    1
     4    24    1
    13    16    1
     7    22    1
     4    25    1
     9    23    1
    16    17    1
    16    18    1
    10    24    1
     8    26    1
    16    19    1
    11    24    1
    10    25    1
     8    27    1
    12    24    1
    11    25    1
     8    28    1
    17    20    1
    16    21    1
    14    23    1
    13    24    1
    12    25    1
    11    26    1
     8    29    1
     4    33    1
    18    20    1
    16    22    1
    15    23    1
    13    25    1
    12    26    1
    11    27    1
     8    30    1
    19    20    1
    16    23    1
    12    27    1
    11    28    1
    10    29    1
     8    31    1
     1    38    1
    12    28    1
    10    30    1
     8    32    1
     1    39    1
    20    21    1
    10    31    1
     8    33    1
     7    34    1
     3    38    1
    20    22    1
    10    32    1
     7    35    1
     3    39    1
     7    36    1
     5    38    1
     7    37    1
     5    39    1
     7    38    1
     7    39    1
    23    24    1
    23    25    1
    23    33    1
    20    38    1
    20    39    1
    29    31    1
    30    31    1
    29    32    1
    30    32    1
    33    34    1
    33    35    1
    33    36    1
    34    36    1
    33    37    1
    35    36    1
    34    37    1
    35    37    1

