LIGPARGEN GENERATED GRO FILE
   59
    1UNK    C00    1   0.100   0.100   0.000
    1UNK    C01    2  -0.052   0.100   0.000
    1UNK    C02    3  -0.105   0.100   0.143
    1UNK    C03    4  -0.258   0.100   0.147
    1UNK    C04    5  -0.314   0.100   0.290
    1UNK    C05    6  -0.271   0.225   0.369
    1UNK    C06    7  -0.468   0.086   0.285
    1UNK    C07    8  -0.529   0.085   0.425
    1UNK    C08    9  -0.680   0.062   0.428
    1UNK    C09   10  -0.736   0.062   0.573
    1UNK    C0A   11  -0.682  -0.062   0.645
    1UNK    C0B   12  -0.712   0.199   0.648
    1UNK    C0C   13  -0.785   0.312   0.572
    1UNK    C0D   14  -0.748   0.208   0.800
    1UNK    C0E   15  -0.896   0.177   0.826
    1UNK    C0F   16  -0.661   0.126   0.898
    1UNK    C0G   17  -0.508   0.143   0.888
    1UNK    C0H   18  -0.463   0.283   0.931
    1UNK    C0I   19  -0.440   0.038   0.976
    1UNK    H0J   20   0.138   0.100  -0.102
    1UNK    H0K   21   0.139   0.011   0.051
    1UNK    H0M   22   0.139   0.189   0.051
    1UNK    H0N   23  -0.089   0.012  -0.054
    1UNK    H0O   24  -0.088   0.189  -0.053
    1UNK    H0P   25  -0.066   0.189   0.193
    1UNK    H0Q   26  -0.068   0.012   0.197
    1UNK    H0R   27  -0.295   0.011   0.094
    1UNK    H0S   28  -0.296   0.187   0.092
    1UNK    H0T   29  -0.274   0.012   0.342
    1UNK    H0U   30  -0.314   0.316   0.324
    1UNK    H0V   31  -0.163   0.236   0.371
    1UNK    H0W   32  -0.302   0.219   0.473
    1UNK    H0X   33  -0.494  -0.008   0.234
    1UNK    H0Y   34  -0.512   0.168   0.227
    1UNK    H0Z   35  -0.508   0.182   0.470
    1UNK    H10   36  -0.478   0.009   0.484
    1UNK    H11   37  -0.703  -0.034   0.380
    1UNK    H12   38  -0.730   0.138   0.367
    1UNK    H13   39  -0.845   0.048   0.564
    1UNK    H14   40  -0.581  -0.045   0.684
    1UNK    H15   41  -0.675  -0.148   0.577
    1UNK    H16   42  -0.747  -0.092   0.727
    1UNK    H17   43  -0.605   0.224   0.642
    1UNK    H18   44  -0.892   0.291   0.562
    1UNK    H19   45  -0.745   0.326   0.471
    1UNK    H1A   46  -0.773   0.408   0.623
    1UNK    H1B   47  -0.733   0.313   0.829
    1UNK    H1C   48  -0.923   0.077   0.792
    1UNK    H1D   49  -0.961   0.250   0.776
    1UNK    H1E   50  -0.918   0.183   0.933
    1UNK    H1F   51  -0.686   0.020   0.890
    1UNK    H1G   52  -0.691   0.153   1.000
    1UNK    H1H   53  -0.473   0.126   0.786
    1UNK    H1I   54  -0.516   0.317   1.020
    1UNK    H1J   55  -0.480   0.355   0.850
    1UNK    H1K   56  -0.355   0.285   0.954
    1UNK    H1M   57  -0.470   0.048   1.081
    1UNK    H1N   58  -0.331   0.046   0.971
    1UNK    H1O   59  -0.467  -0.063   0.943
   1.00000   1.00000   1.00000

