LIGPARGEN GENERATED GRO FILE
   39
    1UNK    C00    1   0.100   0.100   0.000
    1UNK    C01    2  -0.051   0.100   0.000
    1UNK    C02    3  -0.124   0.100   0.136
    1UNK    C03    4  -0.241   0.184   0.068
    1UNK    C04    5  -0.290   0.286   0.160
    1UNK    N05    6  -0.330   0.367   0.232
    1UNK    C06    7  -0.358   0.114  -0.011
    1UNK    C07    8  -0.433   0.009   0.077
    1UNK    C08    9  -0.544  -0.069   0.004
    1UNK    C09   10  -0.502  -0.149  -0.117
    1UNK    C0A   11  -0.651  -0.133   0.091
    1UNK    C0B   12  -0.687  -0.015   0.005
    1UNK    C0C   13  -0.458   0.215  -0.064
    1UNK    C0D   14  -0.425   0.322  -0.165
    1UNK    C0E   15  -0.509   0.205  -0.205
    1UNK    C0F   16  -0.125   0.234  -0.027
    1UNK    H0G   17   0.138  -0.001   0.022
    1UNK    H0H   18   0.142   0.168   0.074
    1UNK    H0I   19   0.139   0.129  -0.098
    1UNK    H0J   20  -0.087   0.020  -0.066
    1UNK    H0K   21  -0.069   0.156   0.213
    1UNK    H0M   22  -0.149   0.002   0.178
    1UNK    H0N   23  -0.314   0.060  -0.096
    1UNK    H0O   24  -0.475   0.058   0.165
    1UNK    H0P   25  -0.361  -0.066   0.115
    1UNK    H0Q   26  -0.432  -0.228  -0.087
    1UNK    H0R   27  -0.453  -0.086  -0.192
    1UNK    H0S   28  -0.588  -0.197  -0.166
    1UNK    H0T   29  -0.649  -0.118   0.198
    1UNK    H0U   30  -0.691  -0.229   0.062
    1UNK    H0V   31  -0.708   0.079   0.056
    1UNK    H0W   32  -0.750  -0.033  -0.081
    1UNK    H0X   33  -0.530   0.245   0.013
    1UNK    H0Y   34  -0.326   0.328  -0.209
    1UNK    H0Z   35  -0.473   0.418  -0.153
    1UNK    H10   36  -0.465   0.133  -0.273
    1UNK    H11   37  -0.615   0.222  -0.222
    1UNK    H12   38  -0.071   0.323   0.009
    1UNK    H13   39  -0.148   0.250  -0.133
   1.00000   1.00000   1.00000

