LIGPARGEN GENERATED GRO FILE
   39
    1UNK    C00    1   0.100   0.100   0.000
    1UNK    C01    2  -0.052   0.100   0.000
    1UNK    C02    3  -0.108   0.100   0.142
    1UNK    C03    4  -0.262   0.115   0.159
    1UNK    C04    5  -0.351   0.003   0.094
    1UNK    C05    6  -0.360   0.009  -0.060
    1UNK    C06    7  -0.319  -0.141   0.137
    1UNK    C07    8  -0.296   0.142   0.313
    1UNK    C08    9  -0.243   0.032   0.408
    1UNK    C09   10  -0.240   0.279   0.361
    1UNK    C0A   11  -0.320   0.313   0.487
    1UNK    C0B   12  -0.459   0.256   0.461
    1UNK    C0C   13  -0.447   0.165   0.338
    1UNK    H0D   14   0.138   0.093  -0.102
    1UNK    H0E   15   0.138   0.014   0.056
    1UNK    H0F   16   0.140   0.191   0.045
    1UNK    H0G   17  -0.083   0.009  -0.052
    1UNK    H0H   18  -0.089   0.187  -0.056
    1UNK    H0I   19  -0.059   0.183   0.194
    1UNK    H0J   20  -0.073   0.009   0.191
    1UNK    H0K   21  -0.290   0.208   0.106
    1UNK    H0M   22  -0.455   0.021   0.125
    1UNK    H0N   23  -0.266  -0.016  -0.110
    1UNK    H0O   24  -0.393   0.107  -0.094
    1UNK    H0P   25  -0.433  -0.065  -0.096
    1UNK    H0Q   26  -0.212  -0.159   0.147
    1UNK    H0R   27  -0.358  -0.214   0.065
    1UNK    H0S   28  -0.368  -0.164   0.231
    1UNK    H0T   29  -0.134   0.026   0.404
    1UNK    H0U   30  -0.283  -0.066   0.384
    1UNK    H0V   31  -0.270   0.050   0.512
    1UNK    H0W   32  -0.258   0.356   0.286
    1UNK    H0X   33  -0.133   0.276   0.383
    1UNK    H0Y   34  -0.322   0.420   0.507
    1UNK    H0Z   35  -0.276   0.264   0.575
    1UNK    H10   36  -0.531   0.337   0.441
    1UNK    H11   37  -0.495   0.201   0.548
    1UNK    H12   38  -0.493   0.216   0.253
    1UNK    H13   39  -0.502   0.071   0.353
   1.00000   1.00000   1.00000

