LIGPARGEN GENERATED GRO FILE
   44
    1UNK    C00    1   0.100   0.100   0.000
    1UNK    C01    2  -0.052   0.100   0.000
    1UNK    C02    3  -0.108   0.100   0.143
    1UNK    C03    4  -0.261   0.089   0.146
    1UNK    C04    5  -0.322   0.089   0.289
    1UNK    C05    6  -0.277   0.213   0.371
    1UNK    C06    7  -0.318   0.344   0.306
    1UNK    C07    8  -0.275   0.467   0.384
    1UNK    N08    9  -0.240   0.570   0.449
    1UNK    C09   10  -0.479   0.075   0.287
    1UNK    C0A   11  -0.532  -0.044   0.204
    1UNK    C0B   12  -0.495  -0.181   0.257
    1UNK    C0C   13  -0.537   0.065   0.430
    1UNK    O0D   14  -0.475   0.005   0.518
    1UNK    C0E   15  -0.674   0.127   0.457
    1UNK    C0F   16  -0.784   0.023   0.438
    1UNK    C0G   17  -0.680   0.183   0.599
    1UNK    H0H   18   0.139   0.100  -0.102
    1UNK    H0I   19   0.139   0.011   0.051
    1UNK    H0J   20   0.139   0.189   0.051
    1UNK    H0K   21  -0.088   0.012  -0.055
    1UNK    H0M   22  -0.088   0.189  -0.054
    1UNK    H0N   23  -0.074   0.192   0.191
    1UNK    H0O   24  -0.065   0.016   0.199
    1UNK    H0P   25  -0.287  -0.005   0.095
    1UNK    H0Q   26  -0.305   0.170   0.086
    1UNK    H0R   27  -0.280   0.002   0.342
    1UNK    H0S   28  -0.168   0.211   0.385
    1UNK    H0T   29  -0.318   0.209   0.473
    1UNK    H0U   30  -0.427   0.350   0.296
    1UNK    H0V   31  -0.275   0.353   0.206
    1UNK    H0W   32  -0.520   0.165   0.242
    1UNK    H0X   33  -0.497  -0.034   0.100
    1UNK    H0Y   34  -0.641  -0.038   0.196
    1UNK    H0Z   35  -0.393  -0.186   0.295
    1UNK    H10   36  -0.505  -0.256   0.178
    1UNK    H11   37  -0.563  -0.211   0.338
    1UNK    H12   38  -0.690   0.210   0.388
    1UNK    H13   39  -0.754  -0.076   0.476
    1UNK    H14   40  -0.808   0.011   0.331
    1UNK    H15   41  -0.877   0.052   0.489
    1UNK    H16   42  -0.662   0.105   0.674
    1UNK    H17   43  -0.778   0.228   0.620
    1UNK    H18   44  -0.604   0.261   0.613
   1.00000   1.00000   1.00000

