
;
; GENERATED BY LigParGen Server
; Jorgensen Lab @ Yale University 
;
[ atomtypes ]
  opls_818  H818     1.0080     0.000    A    2.50000E-01   1.25520E-01
  opls_814  C814    12.0110     0.000    A    3.50000E-01   2.76144E-01
  opls_824  H824     1.0080     0.000    A    2.50000E-01   1.25520E-01
  opls_815  C815    12.0110     0.000    A    3.50000E-01   2.76144E-01
  opls_804  C804    12.0110     0.000    A    3.50000E-01   2.76144E-01
  opls_843  H843     1.0080     0.000    A    2.50000E-01   1.25520E-01
  opls_836  H836     1.0080     0.000    A    2.50000E-01   1.25520E-01
  opls_834  H834     1.0080     0.000    A    2.50000E-01   1.25520E-01
  opls_828  H828     1.0080     0.000    A    2.50000E-01   1.25520E-01
  opls_835  H835     1.0080     0.000    A    2.50000E-01   1.25520E-01
  opls_802  C802    12.0110     0.000    A    3.50000E-01   2.76144E-01
  opls_827  H827     1.0080     0.000    A    2.50000E-01   1.25520E-01
  opls_809  C809    12.0110     0.000    A    3.50000E-01   2.76144E-01
  opls_806  C806    12.0110     0.000    A    3.50000E-01   2.76144E-01
  opls_822  H822     1.0080     0.000    A    2.50000E-01   1.25520E-01
  opls_803  C803    12.0110     0.000    A    3.50000E-01   2.76144E-01
  opls_838  H838     1.0080     0.000    A    2.50000E-01   1.25520E-01
  opls_825  H825     1.0080     0.000    A    2.50000E-01   1.25520E-01
  opls_807  C807    12.0110     0.000    A    3.30000E-01   2.76144E-01
  opls_830  H830     1.0080     0.000    A    2.50000E-01   1.25520E-01
  opls_810  C810    12.0110     0.000    A    3.50000E-01   2.76144E-01
  opls_842  H842     1.0080     0.000    A    2.50000E-01   1.25520E-01
  opls_808  N808    14.0070     0.000    A    3.20000E-01   7.11280E-01
  opls_820  H820     1.0080     0.000    A    2.50000E-01   1.25520E-01
  opls_812  C812    12.0110     0.000    A    3.55000E-01   2.92880E-01
  opls_837  H837     1.0080     0.000    A    2.50000E-01   1.25520E-01
  opls_821  H821     1.0080     0.000    A    2.50000E-01   1.25520E-01
  opls_831  H831     1.0080     0.000    A    2.50000E-01   1.25520E-01
  opls_832  H832     1.0080     0.000    A    2.50000E-01   1.25520E-01
  opls_800  C800    12.0110     0.000    A    3.50000E-01   2.76144E-01
  opls_805  C805    12.0110     0.000    A    3.50000E-01   2.76144E-01
  opls_811  C811    12.0110     0.000    A    3.50000E-01   2.76144E-01
  opls_823  H823     1.0080     0.000    A    2.50000E-01   1.25520E-01
  opls_826  H826     1.0080     0.000    A    2.50000E-01   1.25520E-01
  opls_813  O813    15.9990     0.000    A    2.96000E-01   8.78640E-01
  opls_841  H841     1.0080     0.000    A    2.50000E-01   1.25520E-01
  opls_819  H819     1.0080     0.000    A    2.50000E-01   1.25520E-01
  opls_816  C816    12.0110     0.000    A    3.50000E-01   2.76144E-01
  opls_833  H833     1.0080     0.000    A    2.50000E-01   1.25520E-01
  opls_839  H839     1.0080     0.000    A    2.50000E-01   1.25520E-01
  opls_801  C801    12.0110     0.000    A    3.50000E-01   2.76144E-01
  opls_817  H817     1.0080     0.000    A    2.50000E-01   1.25520E-01
  opls_829  H829     1.0080     0.000    A    2.50000E-01   1.25520E-01
  opls_840  H840     1.0080     0.000    A    2.50000E-01   1.25520E-01
[ moleculetype ]
; Name               nrexcl
UNK                   3
[ atoms ]
;   nr       type  resnr residue  atom   cgnr     charge       mass  
     1   opls_800      1    UNK   C00      1    -0.2395    12.0110 
     2   opls_801      1    UNK   C01      1     -0.179    12.0110 
     3   opls_802      1    UNK   C02      1    -0.1798    12.0110 
     4   opls_803      1    UNK   C03      1    -0.1777    12.0110 
     5   opls_804      1    UNK   C04      1    -0.0965    12.0110 
     6   opls_805      1    UNK   C05      1     -0.179    12.0110 
     7   opls_806      1    UNK   C06      1    -0.0407    12.0110 
     8   opls_807      1    UNK   C07      1     0.1252    12.0110 
     9   opls_808      1    UNK   N08      1    -0.3939    14.0070 
    10   opls_809      1    UNK   C09      1    -0.1555    12.0110 
    11   opls_810      1    UNK   C0A      1    -0.1661    12.0110 
    12   opls_811      1    UNK   C0B      1    -0.2425    12.0110 
    13   opls_812      1    UNK   C0C      1       0.37    12.0110 
    14   opls_813      1    UNK   O0D      1    -0.4422    15.9990 
    15   opls_814      1    UNK   C0E      1    -0.1587    12.0110 
    16   opls_815      1    UNK   C0F      1     -0.229    12.0110 
    17   opls_816      1    UNK   C0G      1    -0.2342    12.0110 
    18   opls_817      1    UNK   H0H      1     0.0832     1.0080 
    19   opls_818      1    UNK   H0I      1     0.0832     1.0080 
    20   opls_819      1    UNK   H0J      1     0.0832     1.0080 
    21   opls_820      1    UNK   H0K      1     0.0881     1.0080 
    22   opls_821      1    UNK   H0M      1     0.0881     1.0080 
    23   opls_822      1    UNK   H0N      1      0.093     1.0080 
    24   opls_823      1    UNK   H0O      1      0.093     1.0080 
    25   opls_824      1    UNK   H0P      1       0.09     1.0080 
    26   opls_825      1    UNK   H0Q      1       0.09     1.0080 
    27   opls_826      1    UNK   H0R      1     0.1261     1.0080 
    28   opls_827      1    UNK   H0S      1     0.1129     1.0080 
    29   opls_828      1    UNK   H0T      1     0.1129     1.0080 
    30   opls_829      1    UNK   H0U      1     0.1237     1.0080 
    31   opls_830      1    UNK   H0V      1     0.1237     1.0080 
    32   opls_831      1    UNK   H0W      1     0.1054     1.0080 
    33   opls_832      1    UNK   H0X      2     0.0935     1.0080 
    34   opls_833      1    UNK   H0Y      2     0.0935     1.0080 
    35   opls_834      1    UNK   H0Z      2     0.0895     1.0080 
    36   opls_835      1    UNK   H10      2     0.0895     1.0080 
    37   opls_836      1    UNK   H11      2     0.0895     1.0080 
    38   opls_837      1    UNK   H12      2     0.1106     1.0080 
    39   opls_838      1    UNK   H13      2     0.0917     1.0080 
    40   opls_839      1    UNK   H14      2     0.0917     1.0080 
    41   opls_840      1    UNK   H15      2     0.0917     1.0080 
    42   opls_841      1    UNK   H16      2     0.0938     1.0080 
    43   opls_842      1    UNK   H17      2     0.0938     1.0080 
    44   opls_843      1    UNK   H18      2     0.0938     1.0080 
[ bonds ]
    2     1     1      0.1529 224262.400
    3     2     1      0.1529 224262.400
    4     3     1      0.1529 224262.400
    5     4     1      0.1529 224262.400
    6     5     1      0.1529 224262.400
    7     6     1      0.1529 224262.400
    8     7     1      0.1470 326352.000
    9     8     1      0.1157 543920.000
   10     5     1      0.1529 224262.400
   11    10     1      0.1529 224262.400
   12    11     1      0.1529 224262.400
   13    10     1      0.1522 265265.600
   14    13     1      0.1229 476976.000
   15    13     1      0.1522 265265.600
   16    15     1      0.1529 224262.400
   17    15     1      0.1529 224262.400
   18     1     1      0.1090 284512.000
   19     1     1      0.1090 284512.000
   20     1     1      0.1090 284512.000
   21     2     1      0.1090 284512.000
   22     2     1      0.1090 284512.000
   23     3     1      0.1090 284512.000
   24     3     1      0.1090 284512.000
   25     4     1      0.1090 284512.000
   26     4     1      0.1090 284512.000
   27     5     1      0.1090 284512.000
   28     6     1      0.1090 284512.000
   29     6     1      0.1090 284512.000
   30     7     1      0.1090 284512.000
   31     7     1      0.1090 284512.000
   32    10     1      0.1090 284512.000
   33    11     1      0.1090 284512.000
   34    11     1      0.1090 284512.000
   35    12     1      0.1090 284512.000
   36    12     1      0.1090 284512.000
   37    12     1      0.1090 284512.000
   38    15     1      0.1090 284512.000
   39    16     1      0.1090 284512.000
   40    16     1      0.1090 284512.000
   41    16     1      0.1090 284512.000
   42    17     1      0.1090 284512.000
   43    17     1      0.1090 284512.000
   44    17     1      0.1090 284512.000

[ angles ]
;  ai    aj    ak funct            c0            c1            c2            c3 
    1     2     3     1    112.700    488.273
    2     3     4     1    112.700    488.273
    3     4     5     1    112.700    488.273
    4     5     6     1    112.700    488.273
    5     6     7     1    112.700    488.273
    6     7     8     1    112.700    488.273
    7     8     9     1    180.000   1255.200
    4     5    10     1    112.700    488.273
    5    10    11     1    112.700    488.273
   10    11    12     1    112.700    488.273
    5    10    13     1    111.100    527.184
   10    13    14     1    120.400    669.440
   10    13    15     1    116.000    585.760
   13    15    16     1    111.100    527.184
   13    15    17     1    111.100    527.184
    2     1    18     1    110.700    313.800
    2     1    19     1    110.700    313.800
    2     1    20     1    110.700    313.800
    1     2    21     1    110.700    313.800
    1     2    22     1    110.700    313.800
    2     3    23     1    110.700    313.800
    2     3    24     1    110.700    313.800
    3     4    25     1    110.700    313.800
    3     4    26     1    110.700    313.800
    4     5    27     1    110.700    313.800
    5     6    28     1    110.700    313.800
    5     6    29     1    110.700    313.800
    6     7    30     1    110.700    313.800
    6     7    31     1    110.700    313.800
    5    10    32     1    110.700    313.800
   10    11    33     1    110.700    313.800
   10    11    34     1    110.700    313.800
   11    12    35     1    110.700    313.800
   11    12    36     1    110.700    313.800
   11    12    37     1    110.700    313.800
   13    15    38     1    109.500    292.880
   15    16    39     1    110.700    313.800
   15    16    40     1    110.700    313.800
   15    16    41     1    110.700    313.800
   15    17    42     1    110.700    313.800
   15    17    43     1    110.700    313.800
   15    17    44     1    110.700    313.800
   28     6    29     1    107.800    276.144
   35    12    37     1    107.800    276.144
   42    17    43     1    107.800    276.144
    3     2    21     1    110.700    313.800
   39    16    41     1    107.800    276.144
   39    16    40     1    107.800    276.144
    5     4    26     1    110.700    313.800
   14    13    15     1    120.400    669.440
   12    11    33     1    110.700    313.800
    7     6    28     1    110.700    313.800
   13    10    32     1    109.500    292.880
   11    10    32     1    110.700    313.800
    4     3    23     1    110.700    313.800
    3     2    22     1    110.700    313.800
   23     3    24     1    107.800    276.144
   35    12    36     1    107.800    276.144
    6     5    27     1    110.700    313.800
   11    10    13     1    111.100    527.184
   18     1    19     1    107.800    276.144
   36    12    37     1    107.800    276.144
   33    11    34     1    107.800    276.144
   42    17    44     1    107.800    276.144
   40    16    41     1    107.800    276.144
    7     6    29     1    110.700    313.800
    4     3    24     1    110.700    313.800
    8     7    31     1    108.500    292.880
    5     4    25     1    110.700    313.800
   12    11    34     1    110.700    313.800
   16    15    17     1    112.700    488.273
   21     2    22     1    107.800    276.144
   30     7    31     1    107.800    276.144
   18     1    20     1    107.800    276.144
   25     4    26     1    107.800    276.144
   16    15    38     1    110.700    313.800
   19     1    20     1    107.800    276.144
   17    15    38     1    110.700    313.800
    8     7    30     1    108.500    292.880
   10     5    27     1    110.700    313.800
    6     5    10     1    112.700    488.273
   43    17    44     1    107.800    276.144

[ dihedrals ]
; IMPROPER DIHEDRAL ANGLES 
;  ai    aj    ak    al funct            c0            c1            c2            c3            c4            c5
    15    13    10    14    4        180.000     43.932     2  

[ dihedrals ]
; PROPER DIHEDRAL ANGLES
;  ai    aj    ak    al funct            c0            c1            c2            c3            c4            c5
   13   10   11   12        3      -4.960   6.286   1.310  -2.636  -0.000   0.000
   13   10    5    4        3      -4.960   6.286   1.310  -2.636  -0.000   0.000
   13   10    5    6        3      -4.960   6.286   1.310  -2.636  -0.000   0.000
   15   13   10    5        3       0.818  -7.906   0.602   6.485  -0.000   0.000
   15   13   10   11        3       0.818  -7.906   0.602   6.485  -0.000   0.000
   17   15   13   10        3       0.818  -7.906   0.602   6.485  -0.000   0.000
   16   15   13   10        3       0.818  -7.906   0.602   6.485  -0.000   0.000
   17   15   13   14        3       0.000   0.000   0.000  -0.000  -0.000   0.000
   16   15   13   14        3       0.000   0.000   0.000  -0.000  -0.000   0.000
   10    5    4    3        3       2.301  -1.464   0.837  -1.674  -0.000   0.000
   10    5    6    7        3       2.301  -1.464   0.837  -1.674  -0.000   0.000
    4    3    2    1        3       2.301  -1.464   0.837  -1.674  -0.000   0.000
   11   10    5    4        3       2.301  -1.464   0.837  -1.674  -0.000   0.000
    5    4    3    2        3       2.301  -1.464   0.837  -1.674  -0.000   0.000
    6    5    4    3        3       2.301  -1.464   0.837  -1.674  -0.000   0.000
    7    6    5    4        3       2.301  -1.464   0.837  -1.674  -0.000   0.000
   12   11   10    5        3       2.301  -1.464   0.837  -1.674  -0.000   0.000
   11   10    5    6        3       2.301  -1.464   0.837  -1.674  -0.000   0.000
    8    7    6    5        3      -2.720   0.000   2.720  -0.000  -0.000   0.000
   32   10   13   15        3       0.575   1.726   0.000  -2.301  -0.000   0.000
   38   15   13   10        3       0.575   1.726   0.000  -2.301  -0.000   0.000
   32   10   13   14        3       0.000   0.000   0.000  -0.000  -0.000   0.000
   38   15   13   14        3       0.000   0.000   0.000  -0.000  -0.000   0.000
   42   17   15   13        3      -0.209  -0.628   0.000   0.837  -0.000   0.000
   41   16   15   13        3      -0.209  -0.628   0.000   0.837  -0.000   0.000
   40   16   15   13        3      -0.209  -0.628   0.000   0.837  -0.000   0.000
   33   11   10   13        3      -0.209  -0.628   0.000   0.837  -0.000   0.000
   44   17   15   13        3      -0.209  -0.628   0.000   0.837  -0.000   0.000
   39   16   15   13        3      -0.209  -0.628   0.000   0.837  -0.000   0.000
   34   11   10   13        3      -0.209  -0.628   0.000   0.837  -0.000   0.000
   27    5   10   13        3      -0.209  -0.628   0.000   0.837  -0.000   0.000
   43   17   15   13        3      -0.209  -0.628   0.000   0.837  -0.000   0.000
   27    5    6    7        3       0.628   1.883   0.000  -2.510  -0.000   0.000
   42   17   15   16        3       0.628   1.883   0.000  -2.510  -0.000   0.000
   25    4    5   10        3       0.628   1.883   0.000  -2.510  -0.000   0.000
   22    2    3    4        3       0.628   1.883   0.000  -2.510  -0.000   0.000
   32   10    5    4        3       0.628   1.883   0.000  -2.510  -0.000   0.000
   18    1    2    3        3       0.628   1.883   0.000  -2.510  -0.000   0.000
   29    6    5   10        3       0.628   1.883   0.000  -2.510  -0.000   0.000
   26    4    3    2        3       0.628   1.883   0.000  -2.510  -0.000   0.000
   37   12   11   10        3       0.628   1.883   0.000  -2.510  -0.000   0.000
   25    4    3    2        3       0.628   1.883   0.000  -2.510  -0.000   0.000
   40   16   15   17        3       0.628   1.883   0.000  -2.510  -0.000   0.000
   26    4    5   10        3       0.628   1.883   0.000  -2.510  -0.000   0.000
   43   17   15   16        3       0.628   1.883   0.000  -2.510  -0.000   0.000
   32   10   11   12        3       0.628   1.883   0.000  -2.510  -0.000   0.000
   23    3    2    1        3       0.628   1.883   0.000  -2.510  -0.000   0.000
   21    2    3    4        3       0.628   1.883   0.000  -2.510  -0.000   0.000
   24    3    2    1        3       0.628   1.883   0.000  -2.510  -0.000   0.000
   36   12   11   10        3       0.628   1.883   0.000  -2.510  -0.000   0.000
   30    7    6    5        3       0.628   1.883   0.000  -2.510  -0.000   0.000
   20    1    2    3        3       0.628   1.883   0.000  -2.510  -0.000   0.000
   26    4    5    6        3       0.628   1.883   0.000  -2.510  -0.000   0.000
   39   16   15   17        3       0.628   1.883   0.000  -2.510  -0.000   0.000
   27    5    4    3        3       0.628   1.883   0.000  -2.510  -0.000   0.000
   24    3    4    5        3       0.628   1.883   0.000  -2.510  -0.000   0.000
   41   16   15   17        3       0.628   1.883   0.000  -2.510  -0.000   0.000
   25    4    5    6        3       0.628   1.883   0.000  -2.510  -0.000   0.000
   33   11   10    5        3       0.628   1.883   0.000  -2.510  -0.000   0.000
   29    6    5    4        3       0.628   1.883   0.000  -2.510  -0.000   0.000
   34   11   10    5        3       0.628   1.883   0.000  -2.510  -0.000   0.000
   28    6    5    4        3       0.628   1.883   0.000  -2.510  -0.000   0.000
   27    5   10   11        3       0.628   1.883   0.000  -2.510  -0.000   0.000
   23    3    4    5        3       0.628   1.883   0.000  -2.510  -0.000   0.000
   31    7    6    5        3       0.628   1.883   0.000  -2.510  -0.000   0.000
   44   17   15   16        3       0.628   1.883   0.000  -2.510  -0.000   0.000
   35   12   11   10        3       0.628   1.883   0.000  -2.510  -0.000   0.000
   28    6    5   10        3       0.628   1.883   0.000  -2.510  -0.000   0.000
   32   10    5    6        3       0.628   1.883   0.000  -2.510  -0.000   0.000
   19    1    2    3        3       0.628   1.883   0.000  -2.510  -0.000   0.000
   29    6    7    8        3       0.766   2.297   0.000  -3.063  -0.000   0.000
   28    6    7    8        3       0.766   2.297   0.000  -3.063  -0.000   0.000
   39   16   15   38        3       0.628   1.883   0.000  -2.510  -0.000   0.000
   40   16   15   38        3       0.628   1.883   0.000  -2.510  -0.000   0.000
   24    3    2   21        3       0.628   1.883   0.000  -2.510  -0.000   0.000
   27    5    4   26        3       0.628   1.883   0.000  -2.510  -0.000   0.000
   35   12   11   33        3       0.628   1.883   0.000  -2.510  -0.000   0.000
   21    2    1   19        3       0.628   1.883   0.000  -2.510  -0.000   0.000
   36   12   11   34        3       0.628   1.883   0.000  -2.510  -0.000   0.000
   22    2    1   18        3       0.628   1.883   0.000  -2.510  -0.000   0.000
   28    6    5   27        3       0.628   1.883   0.000  -2.510  -0.000   0.000
   33   11   10   32        3       0.628   1.883   0.000  -2.510  -0.000   0.000
   26    4    3   24        3       0.628   1.883   0.000  -2.510  -0.000   0.000
   32   10    5   27        3       0.628   1.883   0.000  -2.510  -0.000   0.000
   30    7    6   28        3       0.628   1.883   0.000  -2.510  -0.000   0.000
   37   12   11   33        3       0.628   1.883   0.000  -2.510  -0.000   0.000
   36   12   11   33        3       0.628   1.883   0.000  -2.510  -0.000   0.000
   23    3    2   22        3       0.628   1.883   0.000  -2.510  -0.000   0.000
   42   17   15   38        3       0.628   1.883   0.000  -2.510  -0.000   0.000
   24    3    2   22        3       0.628   1.883   0.000  -2.510  -0.000   0.000
   30    7    6   29        3       0.628   1.883   0.000  -2.510  -0.000   0.000
   31    7    6   28        3       0.628   1.883   0.000  -2.510  -0.000   0.000
   22    2    1   20        3       0.628   1.883   0.000  -2.510  -0.000   0.000
   21    2    1   18        3       0.628   1.883   0.000  -2.510  -0.000   0.000
   27    5    4   25        3       0.628   1.883   0.000  -2.510  -0.000   0.000
   25    4    3   24        3       0.628   1.883   0.000  -2.510  -0.000   0.000
   23    3    2   21        3       0.628   1.883   0.000  -2.510  -0.000   0.000
   21    2    1   20        3       0.628   1.883   0.000  -2.510  -0.000   0.000
   26    4    3   23        3       0.628   1.883   0.000  -2.510  -0.000   0.000
   44   17   15   38        3       0.628   1.883   0.000  -2.510  -0.000   0.000
   43   17   15   38        3       0.628   1.883   0.000  -2.510  -0.000   0.000
   31    7    6   29        3       0.628   1.883   0.000  -2.510  -0.000   0.000
   25    4    3   23        3       0.628   1.883   0.000  -2.510  -0.000   0.000
   37   12   11   34        3       0.628   1.883   0.000  -2.510  -0.000   0.000
   41   16   15   38        3       0.628   1.883   0.000  -2.510  -0.000   0.000
   34   11   10   32        3       0.628   1.883   0.000  -2.510  -0.000   0.000
   29    6    5   27        3       0.628   1.883   0.000  -2.510  -0.000   0.000
   35   12   11   34        3       0.628   1.883   0.000  -2.510  -0.000   0.000
   22    2    1   19        3       0.628   1.883   0.000  -2.510  -0.000   0.000
   30    7    8    9        3       0.000   0.000   0.000  -0.000  -0.000   0.000
   31    7    8    9        3       0.000   0.000   0.000  -0.000  -0.000   0.000
    9    8    7    6        3       0.000   0.000   0.000  -0.000  -0.000   0.000
   14   13   10   11        3       0.000   0.000   0.000  -0.000  -0.000   0.000
   14   13   10    5        3       0.000   0.000   0.000  -0.000  -0.000   0.000

[ pairs ]
     1     4    1
     2     5    1
     3     6    1
     4     7    1
     5     8    1
     3    10    1
     6     9    1
     4    11    1
     7    10    1
     6    11    1
     5    12    1
     4    13    1
     6    13    1
     5    14    1
     5    15    1
     3    18    1
     3    19    1
     3    20    1
     1    23    1
    12    13    1
    11    14    1
     4    21    1
     1    24    1
    11    15    1
    10    16    1
     4    22    1
    10    17    1
     2    25    1
     5    23    1
     2    26    1
     5    24    1
    14    16    1
     3    27    1
    14    17    1
     6    25    1
     6    26    1
     4    28    1
     4    29    1
     7    27    1
    10    25    1
     5    30    1
    10    26    1
     8    28    1
     5    31    1
     4    32    1
     8    29    1
    11    27    1
    10    28    1
     6    32    1
     5    33    1
    18    21    1
    10    29    1
     9    30    1
     5    34    1
    19    21    1
    18    22    1
    13    27    1
     9    31    1
    20    21    1
    19    22    1
    20    22    1
    21    23    1
    12    32    1
    22    23    1
    21    24    1
    10    35    1
    22    24    1
    14    32    1
    13    33    1
    10    36    1
    15    32    1
    13    34    1
    10    37    1
    23    25    1
    10    38    1
    24    25    1
    23    26    1
    24    26    1
    25    27    1
    14    38    1
    13    39    1
    26    27    1
    13    40    1
    13    41    1
    27    28    1
    13    42    1
    27    29    1
    17    39    1
    13    43    1
    17    40    1
    13    44    1
    28    30    1
    17    41    1
    16    42    1
    29    30    1
    28    31    1
    27    32    1
    16    43    1
    29    31    1
    16    44    1
    32    33    1
    32    34    1
    33    35    1
    34    35    1
    33    36    1
    34    36    1
    33    37    1
    34    37    1
    38    39    1
    38    40    1
    38    41    1
    38    42    1
    38    43    1
    38    44    1

