LIGPARGEN GENERATED GRO FILE
   41
    1UNK    C00    1   0.100   0.100   0.000
    1UNK    C01    2  -0.052   0.100   0.000
    1UNK    C02    3  -0.106   0.100   0.142
    1UNK    C03    4  -0.260   0.100   0.148
    1UNK    C04    5  -0.305   0.106   0.294
    1UNK    C05    6  -0.456   0.120   0.310
    1UNK    C06    7  -0.509   0.118   0.457
    1UNK    C07    8  -0.462   0.240   0.542
    1UNK    C08    9  -0.312   0.256   0.567
    1UNK    C09   10  -0.669   0.104   0.461
    1UNK    C0A   11  -0.715  -0.029   0.397
    1UNK    C0B   12  -0.722   0.102   0.606
    1UNK    C0C   13  -0.738   0.220   0.386
    1UNK    H0D   14   0.138   0.100  -0.102
    1UNK    H0E   15   0.139   0.011   0.051
    1UNK    H0F   16   0.139   0.189   0.051
    1UNK    H0G   17  -0.088   0.012  -0.054
    1UNK    H0H   18  -0.089   0.188  -0.054
    1UNK    H0I   19  -0.068   0.189   0.194
    1UNK    H0J   20  -0.068   0.012   0.196
    1UNK    H0K   21  -0.299   0.010   0.100
    1UNK    H0M   22  -0.298   0.186   0.093
    1UNK    H0N   23  -0.256   0.194   0.336
    1UNK    H0O   24  -0.269   0.018   0.348
    1UNK    H0P   25  -0.500   0.036   0.255
    1UNK    H0Q   26  -0.489   0.211   0.260
    1UNK    H0R   27  -0.469   0.028   0.505
    1UNK    H0S   28  -0.505   0.231   0.642
    1UNK    H0T   29  -0.500   0.333   0.499
    1UNK    H0U   30  -0.261   0.159   0.573
    1UNK    H0V   31  -0.296   0.308   0.662
    1UNK    H0W   32  -0.266   0.318   0.491
    1UNK    H0X   33  -0.667  -0.115   0.445
    1UNK    H0Y   34  -0.694  -0.034   0.290
    1UNK    H0Z   35  -0.824  -0.042   0.408
    1UNK    H10   36  -0.675   0.023   0.665
    1UNK    H11   37  -0.831   0.084   0.608
    1UNK    H12   38  -0.707   0.197   0.658
    1UNK    H13   39  -0.715   0.219   0.280
    1UNK    H14   40  -0.710   0.317   0.427
    1UNK    H15   41  -0.847   0.212   0.395
   1.00000   1.00000   1.00000

