LIGPARGEN GENERATED GRO FILE
   41
    1UNK    C00    1   0.100   0.100   0.000
    1UNK    C01    2  -0.052   0.100   0.000
    1UNK    S02    3  -0.114   0.100   0.167
    1UNK    O03    4  -0.074  -0.025   0.229
    1UNK    O04    5  -0.071   0.227   0.223
    1UNK    C05    6  -0.295   0.100   0.153
    1UNK    C06    7  -0.344  -0.022   0.075
    1UNK    C07    8  -0.362   0.101   0.292
    1UNK    C08    9  -0.335   0.230   0.371
    1UNK    C09   10  -0.398   0.239   0.512
    1UNK    C0A   11  -0.352   0.120   0.598
    1UNK    C0B   12  -0.368   0.379   0.580
    1UNK    C0C   13  -0.430   0.494   0.497
    1UNK    C0D   14  -0.432   0.387   0.721
    1UNK    C0E   15  -0.217   0.407   0.595
    1UNK    H0F   16   0.138   0.105  -0.102
    1UNK    H0G   17   0.139   0.009   0.047
    1UNK    H0H   18   0.140   0.185   0.056
    1UNK    H0I   19  -0.089   0.011  -0.051
    1UNK    H0J   20  -0.090   0.190  -0.049
    1UNK    H0K   21  -0.322   0.191   0.098
    1UNK    H0M   22  -0.315  -0.115   0.125
    1UNK    H0N   23  -0.302  -0.025  -0.026
    1UNK    H0O   24  -0.453  -0.021   0.065
    1UNK    H0P   25  -0.328   0.014   0.348
    1UNK    H0Q   26  -0.471   0.091   0.280
    1UNK    H0R   27  -0.367   0.314   0.310
    1UNK    H0S   28  -0.227   0.239   0.386
    1UNK    H0T   29  -0.507   0.230   0.501
    1UNK    H0U   30  -0.242   0.117   0.608
    1UNK    H0V   31  -0.383   0.025   0.555
    1UNK    H0W   32  -0.394   0.123   0.699
    1UNK    H0X   33  -0.538   0.479   0.483
    1UNK    H0Y   34  -0.384   0.503   0.398
    1UNK    H0Z   35  -0.417   0.591   0.547
    1UNK    H10   36  -0.540   0.369   0.716
    1UNK    H11   37  -0.417   0.486   0.765
    1UNK    H12   38  -0.388   0.315   0.790
    1UNK    H13   39  -0.168   0.415   0.497
    1UNK    H14   40  -0.167   0.329   0.652
    1UNK    H15   41  -0.200   0.502   0.646
   1.00000   1.00000   1.00000

