
;
; GENERATED BY LigParGen Server
; Jorgensen Lab @ Yale University 
;
[ atomtypes ]
  opls_818  H818     1.0080     0.000    A    2.50000E-01   1.25520E-01
  opls_824  H824     1.0080     0.000    A    2.50000E-01   1.25520E-01
  opls_810  O810    15.9990     0.000    A    2.90000E-01   5.85760E-01
  opls_828  H828     1.0080     0.000    A    2.50000E-01   1.25520E-01
  opls_814  C814    12.0110     0.000    A    3.55000E-01   2.92880E-01
  opls_803  N803    14.0070     0.000    A    3.25000E-01   7.11280E-01
  opls_806  C806    12.0110     0.000    A    3.50000E-01   2.76144E-01
  opls_827  H827     1.0080     0.000    A    2.50000E-01   1.25520E-01
  opls_812  C812    12.0110     0.000    A    3.50000E-01   2.76144E-01
  opls_802  O802    15.9990     0.000    A    2.96000E-01   8.78640E-01
  opls_822  H822     1.0080     0.000    A    2.50000E-01   1.25520E-01
  opls_825  H825     1.0080     0.000    A    2.50000E-01   1.25520E-01
  opls_830  H830     1.0080     0.000    A    2.50000E-01   1.25520E-01
  opls_809  O809    15.9990     0.000    A    2.96000E-01   8.78640E-01
  opls_821  H821     1.0080     0.000    A    2.50000E-01   1.25520E-01
  opls_820  H820     1.0080     0.000    A    2.50000E-01   1.25520E-01
  opls_801  C801    12.0110     0.000    A    3.55000E-01   2.92880E-01
  opls_829  H829     1.0080     0.000    A    2.50000E-01   1.25520E-01
  opls_816  H816     1.0080     0.000    A    2.50000E-01   1.25520E-01
  opls_800  C800    12.0110     0.000    A    3.50000E-01   2.76144E-01
  opls_805  C805    12.0110     0.000    A    3.50000E-01   2.76144E-01
  opls_811  C811    12.0110     0.000    A    3.50000E-01   2.76144E-01
  opls_823  H823     1.0080     0.000    A    2.50000E-01   1.25520E-01
  opls_813  C813    12.0110     0.000    A    3.50000E-01   2.76144E-01
  opls_826  H826     1.0080     0.000    A    2.50000E-01   1.25520E-01
  opls_819  H819     1.0080     0.000    A    2.50000E-01   1.25520E-01
  opls_804  C804    12.0110     0.000    A    3.50000E-01   2.76144E-01
  opls_815  O815    15.9990     0.000    A    2.96000E-01   8.78640E-01
  opls_817  H817     1.0080     0.000    A    2.50000E-01   1.25520E-01
  opls_807  O807    15.9990     0.000    A    2.90000E-01   5.85760E-01
  opls_808  C808    12.0110     0.000    A    3.55000E-01   2.92880E-01
[ moleculetype ]
; Name               nrexcl
UNK                   3
[ atoms ]
;   nr       type  resnr residue  atom   cgnr     charge       mass  
     1   opls_800      1    UNK   C00      1    -0.2718    12.0110 
     2   opls_801      1    UNK   C01      1     0.5948    12.0110 
     3   opls_802      1    UNK   O02      1    -0.4304    15.9990 
     4   opls_803      1    UNK   N03      1    -0.9663    14.0070 
     5   opls_804      1    UNK   C04      1     0.0917    12.0110 
     6   opls_805      1    UNK   C05      1     0.1692    12.0110 
     7   opls_806      1    UNK   C06      1     0.0211    12.0110 
     8   opls_807      1    UNK   O07      1    -0.3854    15.9990 
     9   opls_808      1    UNK   C08      1     0.5946    12.0110 
    10   opls_809      1    UNK   O09      1    -0.3815    15.9990 
    11   opls_810      1    UNK   O0A      1    -0.3696    15.9990 
    12   opls_811      1    UNK   C0B      1     0.1152    12.0110 
    13   opls_812      1    UNK   C0C      1    -0.2773    12.0110 
    14   opls_813      1    UNK   C0D      1     -0.243    12.0110 
    15   opls_814      1    UNK   C0E      1     0.3344    12.0110 
    16   opls_815      1    UNK   O0F      1    -0.4193    15.9990 
    17   opls_816      1    UNK   H0G      1     0.1237     1.0080 
    18   opls_817      1    UNK   H0H      1     0.1237     1.0080 
    19   opls_818      1    UNK   H0I      1     0.1237     1.0080 
    20   opls_819      1    UNK   H0J      1     0.0943     1.0080 
    21   opls_820      1    UNK   H0K      1     0.0943     1.0080 
    22   opls_821      1    UNK   H0M      1     0.0943     1.0080 
    23   opls_822      1    UNK   H0N      1     0.1752     1.0080 
    24   opls_823      1    UNK   H0O      1     0.1231     1.0080 
    25   opls_824      1    UNK   H0P      1     0.1231     1.0080 
    26   opls_825      1    UNK   H0Q      1     0.1544     1.0080 
    27   opls_826      1    UNK   H0R      1     0.1153     1.0080 
    28   opls_827      1    UNK   H0S      1     0.1153     1.0080 
    29   opls_828      1    UNK   H0T      1     0.1153     1.0080 
    30   opls_829      1    UNK   H0U      1     0.1323     1.0080 
    31   opls_830      1    UNK   H0V      1     0.1154     1.0080 
[ bonds ]
    2     1     1      0.1522 265265.600
    3     2     1      0.1229 476976.000
    4     2     1      0.1335 410032.000
    5     4     1      0.1449 282001.600
    6     4     1      0.1449 282001.600
    7     6     1      0.1529 224262.400
    8     7     1      0.1410 267776.000
    9     8     1      0.1327 179075.200
   10     9     1      0.1229 476976.000
   11     9     1      0.1327 179075.200
   12    11     1      0.1410 267776.000
   13    12     1      0.1529 224262.400
   14     6     1      0.1529 224262.400
   15    14     1      0.1522 265265.600
   16    15     1      0.1229 476976.000
   17     1     1      0.1090 284512.000
   18     1     1      0.1090 284512.000
   19     1     1      0.1090 284512.000
   20     5     1      0.1090 284512.000
   21     5     1      0.1090 284512.000
   22     5     1      0.1090 284512.000
   23     6     1      0.1090 284512.000
   24     7     1      0.1090 284512.000
   25     7     1      0.1090 284512.000
   26    12     1      0.1090 284512.000
   27    13     1      0.1090 284512.000
   28    13     1      0.1090 284512.000
   29    13     1      0.1090 284512.000
   30    14     1      0.1090 284512.000
   31    15     1      0.1090 284512.000
   14    12     1      0.1529 224262.400

[ angles ]
;  ai    aj    ak funct            c0            c1            c2            c3 
    1     2     3     1    120.400    669.440
    1     2     4     1    116.600    585.760
    2     4     5     1    121.900    418.400
    2     4     6     1    121.900    418.400
    4     6     7     1    109.700    669.440
    6     7     8     1    109.500    418.400
    7     8     9     1    116.900    694.544
    8     9    10     1    123.400    694.544
    8     9    11     1    118.180    584.923
    9    11    12     1    116.900    694.544
   11    12    13     1    109.500    418.400
    4     6    14     1    109.700    669.440
    6    14    15     1    111.100    527.184
   14    15    16     1    120.400    669.440
    2     1    17     1    109.500    292.880
    2     1    18     1    109.500    292.880
    2     1    19     1    109.500    292.880
    4     5    20     1    109.500    292.880
    4     5    21     1    109.500    292.880
    4     5    22     1    109.500    292.880
    4     6    23     1    109.500    292.880
    6     7    24     1    110.700    313.800
    6     7    25     1    110.700    313.800
   11    12    26     1    109.500    292.880
   12    13    27     1    110.700    313.800
   12    13    28     1    110.700    313.800
   12    13    29     1    110.700    313.800
    6    14    30     1    110.700    313.800
   14    15    31     1    115.000    292.880
    7     6    14     1    112.700    488.273
    5     4     6     1    118.000    418.400
   11    12    14     1    109.500    418.400
   13    12    14     1    112.700    488.273
   14     6    23     1    110.700    313.800
   21     5    22     1    107.800    276.144
   16    15    31     1    123.000    292.880
    6    14    12     1    112.700    488.273
   10     9    11     1    123.400    694.544
   12    14    15     1    111.100    527.184
   24     7    25     1    107.800    276.144
   12    14    30     1    110.700    313.800
   18     1    19     1    107.800    276.144
   27    13    29     1    107.800    276.144
    8     7    25     1    109.500    292.880
    3     2     4     1    122.900    669.440
   20     5    22     1    107.800    276.144
   27    13    28     1    107.800    276.144
   17     1    19     1    107.800    276.144
   28    13    29     1    107.800    276.144
   15    14    30     1    109.500    292.880
   17     1    18     1    107.800    276.144
    8     7    24     1    109.500    292.880
    7     6    23     1    110.700    313.800
   13    12    26     1    110.700    313.800
   14    12    26     1    110.700    313.800
   20     5    21     1    107.800    276.144

[ dihedrals ]
; IMPROPER DIHEDRAL ANGLES 
;  ai    aj    ak    al funct            c0            c1            c2            c3            c4            c5
     6     4     2     5    4        180.000     10.460     2  
    31    15    14    16    4        180.000     43.932     2  
     4     2     1     3    4        180.000     43.932     2  
    11     9     8    10    4        180.000     43.932     2  

[ dihedrals ]
; PROPER DIHEDRAL ANGLES
;  ai    aj    ak    al funct            c0            c1            c2            c3            c4            c5
   15   14   12   13        3      -4.960   6.286   1.310  -2.636  -0.000   0.000
   15   14    6    7        3      -4.960   6.286   1.310  -2.636  -0.000   0.000
   15   14    6    4        3      -8.786  23.849  -8.368  -6.694  -0.000   0.000
   15   14   12   11        3      -12.929  12.929   0.000  -0.000  -0.000   0.000
    9    8    7    6        3      -2.197   5.201   0.527  -3.531  -0.000   0.000
   12   14    6    7        3       2.301  -1.464   0.837  -1.674  -0.000   0.000
   13   12   14    6        3       2.301  -1.464   0.837  -1.674  -0.000   0.000
   12   14    6    4        3      -0.766   2.707   4.025  -5.966  -0.000   0.000
   14    6    7    8        3       2.874   0.582   2.092  -5.548  -0.000   0.000
    7    6    4    2        3       1.933   0.000  -1.933  -0.000  -0.000   0.000
   14    6    4    2        3       1.933   0.000  -1.933  -0.000  -0.000   0.000
   14    6    4    5        3       6.872  -9.943   3.071  -0.000  -0.000   0.000
    7    6    4    5        3       6.872  -9.943   3.071  -0.000  -0.000   0.000
   13   12   11    9        3      -2.197   5.201   0.527  -3.531  -0.000   0.000
   14   12   11    9        3      -2.197   5.201   0.527  -3.531  -0.000   0.000
    5    4    2    1        3      30.288  -4.812  -25.476  -0.000  -0.000   0.000
    6    4    2    1        3      30.288  -4.812  -25.476  -0.000  -0.000   0.000
    5    4    2    3        3      25.476   0.000  -25.476  -0.000  -0.000   0.000
    6    4    2    3        3      25.476   0.000  -25.476  -0.000  -0.000   0.000
   12   11    9   10        3      21.439   0.000  -21.439  -0.000  -0.000   0.000
   12   11    9    8        3      31.206  -9.768  -21.439  -0.000  -0.000   0.000
   31   15   14    6        3       0.000   0.000   0.000  -0.000  -0.000   0.000
   31   15   14   12        3       0.000   0.000   0.000  -0.000  -0.000   0.000
   31   15   14   30        3       0.753   2.259   0.000  -3.012  -0.000   0.000
   18    1    2    4        3       0.000   0.000   0.000  -0.000  -0.000   0.000
   17    1    2    4        3       0.000   0.000   0.000  -0.000  -0.000   0.000
   19    1    2    4        3       0.000   0.000   0.000  -0.000  -0.000   0.000
   19    1    2    3        3       0.000   0.000   0.000  -0.000  -0.000   0.000
   30   14   15   16        3       0.000   0.000   0.000  -0.000  -0.000   0.000
   18    1    2    3        3       0.000   0.000   0.000  -0.000  -0.000   0.000
   17    1    2    3        3       0.000   0.000   0.000  -0.000  -0.000   0.000
   26   12   14   15        3      -0.209  -0.628   0.000   0.837  -0.000   0.000
   23    6   14   15        3      -0.209  -0.628   0.000   0.837  -0.000   0.000
   27   13   12   14        3       0.628   1.883   0.000  -2.510  -0.000   0.000
   26   12   14    6        3       0.628   1.883   0.000  -2.510  -0.000   0.000
   25    7    6   14        3       0.628   1.883   0.000  -2.510  -0.000   0.000
   30   14   12   13        3       0.628   1.883   0.000  -2.510  -0.000   0.000
   23    6   14   12        3       0.628   1.883   0.000  -2.510  -0.000   0.000
   28   13   12   14        3       0.628   1.883   0.000  -2.510  -0.000   0.000
   24    7    6   14        3       0.628   1.883   0.000  -2.510  -0.000   0.000
   30   14    6    7        3       0.628   1.883   0.000  -2.510  -0.000   0.000
   29   13   12   14        3       0.628   1.883   0.000  -2.510  -0.000   0.000
   25    7    6   23        3       0.628   1.883   0.000  -2.510  -0.000   0.000
   30   14    6   23        3       0.628   1.883   0.000  -2.510  -0.000   0.000
   27   13   12   26        3       0.628   1.883   0.000  -2.510  -0.000   0.000
   30   14   12   26        3       0.628   1.883   0.000  -2.510  -0.000   0.000
   28   13   12   26        3       0.628   1.883   0.000  -2.510  -0.000   0.000
   24    7    6   23        3       0.628   1.883   0.000  -2.510  -0.000   0.000
   29   13   12   26        3       0.628   1.883   0.000  -2.510  -0.000   0.000
   24    7    6    4        3       0.971   2.912   0.000  -3.883  -0.000   0.000
   25    7    6    4        3       0.971   2.912   0.000  -3.883  -0.000   0.000
   30   14    6    4        3       0.971   2.912   0.000  -3.883  -0.000   0.000
   28   13   12   11        3       0.979   2.937   0.000  -3.916  -0.000   0.000
   23    6    7    8        3       0.979   2.937   0.000  -3.916  -0.000   0.000
   27   13   12   11        3       0.979   2.937   0.000  -3.916  -0.000   0.000
   30   14   12   11        3       0.979   2.937   0.000  -3.916  -0.000   0.000
   29   13   12   11        3       0.979   2.937   0.000  -3.916  -0.000   0.000
   21    5    4    2        3       0.000   0.000   0.000  -0.000  -0.000   0.000
   22    5    4    2        3       0.000   0.000   0.000  -0.000  -0.000   0.000
   23    6    4    2        3       0.000   0.000   0.000  -0.000  -0.000   0.000
   20    5    4    2        3       0.000   0.000   0.000  -0.000  -0.000   0.000
   22    5    4    6        3       0.000   0.000   0.000  -0.000  -0.000   0.000
   20    5    4    6        3       0.000   0.000   0.000  -0.000  -0.000   0.000
   21    5    4    6        3       0.000   0.000   0.000  -0.000  -0.000   0.000
   23    6    4    5        3       0.000   0.000   0.000  -0.000  -0.000   0.000
   26   12   11    9        3       0.414   1.243   0.000  -1.657  -0.000   0.000
   24    7    8    9        3       0.414   1.243   0.000  -1.657  -0.000   0.000
   25    7    8    9        3       0.414   1.243   0.000  -1.657  -0.000   0.000
   16   15   14    6        3       0.000   0.000   0.000  -0.000  -0.000   0.000
   16   15   14   12        3       0.000   0.000   0.000  -0.000  -0.000   0.000
   10    9    8    7        3      21.439   0.000  -21.439  -0.000  -0.000   0.000
   11    9    8    7        3      31.206  -9.768  -21.439  -0.000  -0.000   0.000
   11   12   14    6        3       2.874   0.582   2.092  -5.548  -0.000   0.000
    8    7    6    4        3      11.247  -0.397   6.138  -16.987  -0.000   0.000

[ pairs ]
     1     5    1
     1     6    1
     3     5    1
     3     6    1
     2     7    1
     5     7    1
     4     8    1
     6     9    1
     4    12    1
     2    14    1
     7    10    1
     6    11    1
     7    11    1
     7    12    1
     6    13    1
     5    14    1
     4    15    1
     8    12    1
     3    17    1
     4    17    1
     3    18    1
    10    12    1
     9    13    1
     8    14    1
     7    15    1
     6    16    1
     4    18    1
     3    19    1
     2    20    1
     9    14    1
     4    19    1
     2    21    1
     2    22    1
     2    23    1
    11    15    1
     6    20    1
     6    21    1
    13    15    1
    12    16    1
     6    22    1
     5    23    1
     4    24    1
     4    25    1
     8    23    1
     6    26    1
     9    24    1
     9    25    1
     4    30    1
    12    23    1
     9    26    1
     7    30    1
     6    31    1
    15    23    1
    14    24    1
    11    27    1
    14    25    1
    11    28    1
    11    29    1
    15    26    1
    14    27    1
    11    30    1
    14    28    1
    14    29    1
    13    30    1
    12    31    1
    16    30    1
    23    24    1
    23    25    1
    26    27    1
    23    30    1
    26    28    1
    26    29    1
    26    30    1
    30    31    1

