LIGPARGEN GENERATED GRO FILE
   31
    1UNK    C00    1   0.100   0.100   0.000
    1UNK    C01    2  -0.051   0.100   0.000
    1UNK    O02    3  -0.111   0.100   0.107
    1UNK    N03    4  -0.117   0.100  -0.123
    1UNK    C04    5  -0.048   0.100  -0.252
    1UNK    C05    6  -0.265   0.100  -0.121
    1UNK    C06    7  -0.325   0.221  -0.197
    1UNK    O07    8  -0.467   0.227  -0.178
    1UNK    C08    9  -0.537   0.159  -0.271
    1UNK    O09   10  -0.580   0.210  -0.373
    1UNK    O0A   11  -0.556   0.028  -0.240
    1UNK    C0B   12  -0.476  -0.040  -0.139
    1UNK    C0C   13  -0.518  -0.001   0.003
    1UNK    C0D   14  -0.331  -0.031  -0.170
    1UNK    C0E   15  -0.259  -0.154  -0.119
    1UNK    O0F   16  -0.300  -0.227  -0.031
    1UNK    H0G   17   0.136   0.091   0.103
    1UNK    H0H   18   0.137   0.194  -0.041
    1UNK    H0I   19   0.139   0.015  -0.056
    1UNK    H0J   20   0.061   0.100  -0.242
    1UNK    H0K   21  -0.076   0.190  -0.308
    1UNK    H0M   22  -0.077   0.011  -0.308
    1UNK    H0N   23  -0.295   0.113  -0.017
    1UNK    H0O   24  -0.302   0.217  -0.304
    1UNK    H0P   25  -0.283   0.314  -0.159
    1UNK    H0Q   26  -0.504  -0.145  -0.151
    1UNK    H0R   27  -0.514   0.106   0.022
    1UNK    H0S   28  -0.457  -0.052   0.078
    1UNK    H0T   29  -0.623  -0.029   0.019
    1UNK    H0U   30  -0.320  -0.036  -0.279
    1UNK    H0V   31  -0.164  -0.178  -0.171
   1.00000   1.00000   1.00000

