LIGPARGEN GENERATED GRO FILE
   46
    1UNK    C00    1   0.100   0.100   0.000
    1UNK    C01    2  -0.052   0.100   0.000
    1UNK    C02    3  -0.108   0.100   0.142
    1UNK    C03    4  -0.262   0.114   0.148
    1UNK    C04    5  -0.347  -0.000   0.086
    1UNK    C05    6  -0.311  -0.137   0.152
    1UNK    C06    7  -0.336  -0.136   0.302
    1UNK    N07    8  -0.357  -0.135   0.426
    1UNK    C08    9  -0.504   0.028   0.092
    1UNK    C09   10  -0.557   0.149   0.008
    1UNK    C0A   11  -0.510   0.288   0.051
    1UNK    C0B   12  -0.536   0.127  -0.142
    1UNK    C0C   13  -0.603  -0.002  -0.191
    1UNK    C0D   14  -0.566  -0.124  -0.106
    1UNK    C0E   15  -0.640  -0.248  -0.154
    1UNK    C0F   16  -0.586  -0.099   0.045
    1UNK    C0G   17  -0.734  -0.090   0.087
    1UNK    H0H   18   0.138   0.100  -0.103
    1UNK    H0I   19   0.139   0.011   0.051
    1UNK    H0J   20   0.139   0.189   0.050
    1UNK    H0K   21  -0.088   0.012  -0.055
    1UNK    H0M   22  -0.087   0.189  -0.054
    1UNK    H0N   23  -0.066   0.186   0.196
    1UNK    H0O   24  -0.075   0.011   0.197
    1UNK    H0P   25  -0.283   0.208   0.097
    1UNK    H0Q   26  -0.291   0.129   0.253
    1UNK    H0R   27  -0.318  -0.008  -0.019
    1UNK    H0S   28  -0.204  -0.156   0.137
    1UNK    H0T   29  -0.360  -0.222   0.105
    1UNK    H0U   30  -0.529   0.047   0.197
    1UNK    H0V   31  -0.665   0.153   0.025
    1UNK    H0W   32  -0.417   0.318   0.001
    1UNK    H0X   33  -0.499   0.295   0.159
    1UNK    H0Y   34  -0.585   0.363   0.021
    1UNK    H0Z   35  -0.429   0.124  -0.166
    1UNK    H10   36  -0.578   0.212  -0.198
    1UNK    H11   37  -0.575  -0.019  -0.295
    1UNK    H12   38  -0.712   0.012  -0.190
    1UNK    H13   39  -0.459  -0.144  -0.123
    1UNK    H14   40  -0.749  -0.235  -0.151
    1UNK    H15   41  -0.614  -0.335  -0.092
    1UNK    H16   42  -0.613  -0.271  -0.257
    1UNK    H17   43  -0.551  -0.187   0.099
    1UNK    H18   44  -0.791  -0.018   0.028
    1UNK    H19   45  -0.742  -0.062   0.193
    1UNK    H1A   46  -0.782  -0.188   0.076
   1.00000   1.00000   1.00000

