LIGPARGEN GENERATED GRO FILE
   30
    1UNK    C00    1   0.100   0.100   0.000
    1UNK    C01    2  -0.052   0.100   0.000
    1UNK    C02    3  -0.106   0.100   0.143
    1UNK    C03    4  -0.259   0.100   0.144
    1UNK    C04    5  -0.310   0.100   0.289
    1UNK    C05    6  -0.463   0.100   0.296
    1UNK    C06    7  -0.516   0.100   0.441
    1UNK    C07    8  -0.469   0.225   0.517
    1UNK    C08    9  -0.670   0.087   0.440
    1UNK    C09   10  -0.721   0.087   0.584
    1UNK    N0A   11  -0.763   0.087   0.702
    1UNK    H0B   12   0.138   0.100  -0.103
    1UNK    H0C   13   0.139   0.011   0.051
    1UNK    H0D   14   0.139   0.189   0.051
    1UNK    H0E   15  -0.088   0.012  -0.054
    1UNK    H0F   16  -0.088   0.188  -0.054
    1UNK    H0G   17  -0.069   0.188   0.196
    1UNK    H0H   18  -0.069   0.012   0.196
    1UNK    H0I   19  -0.297   0.012   0.092
    1UNK    H0J   20  -0.297   0.189   0.092
    1UNK    H0K   21  -0.270   0.189   0.338
    1UNK    H0M   22  -0.271   0.012   0.342
    1UNK    H0N   23  -0.501   0.011   0.244
    1UNK    H0O   24  -0.502   0.187   0.242
    1UNK    H0P   25  -0.474   0.013   0.492
    1UNK    H0Q   26  -0.502   0.317   0.466
    1UNK    H0R   27  -0.361   0.228   0.526
    1UNK    H0S   28  -0.508   0.228   0.619
    1UNK    H0T   29  -0.701  -0.006   0.391
    1UNK    H0U   30  -0.716   0.171   0.386
   1.00000   1.00000   1.00000

