LIGPARGEN GENERATED GRO FILE
   36
    1UNK    C00    1   0.100   0.100   0.000
    1UNK    C01    2  -0.051   0.100   0.000
    1UNK    O02    3  -0.114   0.100   0.106
    1UNK    C03    4  -0.123   0.094  -0.132
    1UNK    C04    5  -0.092   0.210  -0.221
    1UNK    O05    6   0.020   0.237  -0.262
    1UNK    O06    7  -0.205   0.280  -0.250
    1UNK    C07    8  -0.190   0.396  -0.336
    1UNK    C08    9  -0.270   0.377  -0.469
    1UNK    C09   10  -0.220   0.249  -0.538
    1UNK    C0A   11  -0.419   0.359  -0.431
    1UNK    C0B   12  -0.254   0.506  -0.558
    1UNK    C0C   13  -0.110   0.533  -0.603
    1UNK    C0D   14  -0.342   0.509  -0.684
    1UNK    C0E   15  -0.380   0.644  -0.740
    1UNK    O0F   16  -0.379   0.407  -0.744
    1UNK    H0G   17   0.136   0.095   0.103
    1UNK    H0H   18   0.138   0.192  -0.045
    1UNK    H0I   19   0.137   0.012  -0.054
    1UNK    H0J   20  -0.230   0.089  -0.113
    1UNK    H0K   21  -0.096   0.002  -0.184
    1UNK    H0M   22  -0.085   0.416  -0.357
    1UNK    H0N   23  -0.229   0.482  -0.280
    1UNK    H0O   24  -0.244   0.160  -0.479
    1UNK    H0P   25  -0.111   0.251  -0.550
    1UNK    H0Q   26  -0.263   0.234  -0.637
    1UNK    H0R   27  -0.434   0.268  -0.371
    1UNK    H0S   28  -0.484   0.351  -0.518
    1UNK    H0T   29  -0.455   0.443  -0.371
    1UNK    H0U   30  -0.287   0.591  -0.497
    1UNK    H0V   31  -0.071   0.453  -0.666
    1UNK    H0W   32  -0.043   0.547  -0.518
    1UNK    H0X   33  -0.105   0.625  -0.663
    1UNK    H0Y   34  -0.337   0.725  -0.679
    1UNK    H0Z   35  -0.489   0.654  -0.739
    1UNK    H10   36  -0.342   0.653  -0.842
   1.00000   1.00000   1.00000

