
;
; GENERATED BY LigParGen Server
; Jorgensen Lab @ Yale University 
;
[ atomtypes ]
  opls_818  H818     1.0080     0.000    A    2.50000E-01   1.25520E-01
  opls_814  C814    12.0110     0.000    A    3.50000E-01   2.76144E-01
  opls_824  H824     1.0080     0.000    A    2.50000E-01   1.25520E-01
  opls_815  C815    12.0110     0.000    A    3.50000E-01   2.76144E-01
  opls_805  C805    12.0110     0.000    A    3.50000E-01   2.76144E-01
  opls_843  H843     1.0080     0.000    A    2.50000E-01   1.25520E-01
  opls_836  H836     1.0080     0.000    A    2.50000E-01   1.25520E-01
  opls_834  H834     1.0080     0.000    A    2.50000E-01   1.25520E-01
  opls_810  C810    12.0110     0.000    A    3.50000E-01   2.76144E-01
  opls_828  H828     1.0080     0.000    A    2.50000E-01   1.25520E-01
  opls_812  C812    12.0110     0.000    A    3.50000E-01   2.76144E-01
  opls_802  C802    12.0110     0.000    A    3.50000E-01   2.76144E-01
  opls_827  H827     1.0080     0.000    A    2.50000E-01   1.25520E-01
  opls_809  C809    12.0110     0.000    A    3.50000E-01   2.76144E-01
  opls_806  C806    12.0110     0.000    A    3.50000E-01   2.76144E-01
  opls_822  H822     1.0080     0.000    A    2.50000E-01   1.25520E-01
  opls_807  C807    12.0110     0.000    A    3.50000E-01   2.76144E-01
  opls_838  H838     1.0080     0.000    A    2.50000E-01   1.25520E-01
  opls_825  H825     1.0080     0.000    A    2.50000E-01   1.25520E-01
  opls_830  H830     1.0080     0.000    A    2.50000E-01   1.25520E-01
  opls_821  H821     1.0080     0.000    A    2.50000E-01   1.25520E-01
  opls_842  H842     1.0080     0.000    A    2.50000E-01   1.25520E-01
  opls_820  H820     1.0080     0.000    A    2.50000E-01   1.25520E-01
  opls_803  N803    14.0070     0.000    A    3.30000E-01   7.11280E-01
  opls_837  H837     1.0080     0.000    A    2.50000E-01   1.25520E-01
  opls_829  H829     1.0080     0.000    A    2.50000E-01   1.25520E-01
  opls_831  H831     1.0080     0.000    A    2.50000E-01   1.25520E-01
  opls_816  C816    12.0110     0.000    A    3.55000E-01   2.92880E-01
  opls_832  H832     1.0080     0.000    A    2.50000E-01   1.25520E-01
  opls_800  C800    12.0110     0.000    A    3.50000E-01   2.76144E-01
  opls_846  H846     1.0080     0.000    A    2.50000E-01   1.25520E-01
  opls_848  H848     1.0080     0.000    A    2.50000E-01   1.25520E-01
  opls_811  C811    12.0110     0.000    A    3.50000E-01   2.76144E-01
  opls_823  H823     1.0080     0.000    A    2.50000E-01   1.25520E-01
  opls_813  C813    12.0110     0.000    A    3.50000E-01   2.76144E-01
  opls_826  H826     1.0080     0.000    A    2.50000E-01   1.25520E-01
  opls_835  H835     1.0080     0.000    A    2.50000E-01   1.25520E-01
  opls_841  H841     1.0080     0.000    A    2.50000E-01   1.25520E-01
  opls_819  H819     1.0080     0.000    A    2.50000E-01   1.25520E-01
  opls_804  C804    12.0110     0.000    A    3.50000E-01   2.76144E-01
  opls_833  H833     1.0080     0.000    A    2.50000E-01   1.25520E-01
  opls_839  H839     1.0080     0.000    A    2.50000E-01   1.25520E-01
  opls_801  C801    12.0110     0.000    A    3.50000E-01   2.76144E-01
  opls_808  C808    12.0110     0.000    A    3.50000E-01   2.76144E-01
  opls_817  O817    15.9990     0.000    A    2.96000E-01   8.78640E-01
  opls_840  H840     1.0080     0.000    A    2.50000E-01   1.25520E-01
  opls_847  H847     1.0080     0.000    A    2.50000E-01   1.25520E-01
  opls_844  H844     1.0080     0.000    A    2.50000E-01   1.25520E-01
  opls_845  H845     1.0080     0.000    A    2.50000E-01   1.25520E-01
[ moleculetype ]
; Name               nrexcl
UNK                   3
[ atoms ]
;   nr       type  resnr residue  atom   cgnr     charge       mass  
     1   opls_800      1    UNK   C00      1    -0.2253    12.0110 
     2   opls_801      1    UNK   C01      1    -0.1724    12.0110 
     3   opls_802      1    UNK   C02      1     0.1392    12.0110 
     4   opls_803      1    UNK   N03      1    -0.6262    14.0070 
     5   opls_804      1    UNK   C04      1    -0.0294    12.0110 
     6   opls_805      1    UNK   C05      1     0.0191    12.0110 
     7   opls_806      1    UNK   C06      1    -0.2369    12.0110 
     8   opls_807      1    UNK   C07      1    -0.1208    12.0110 
     9   opls_808      1    UNK   C08      1    -0.2227    12.0110 
    10   opls_809      1    UNK   C09      1    -0.1785    12.0110 
    11   opls_810      1    UNK   C0A      1    -0.1184    12.0110 
    12   opls_811      1    UNK   C0B      1    -0.1678    12.0110 
    13   opls_812      1    UNK   C0C      1    -0.1155    12.0110 
    14   opls_813      1    UNK   C0D      1    -0.2353    12.0110 
    15   opls_814      1    UNK   C0E      1    -0.2371    12.0110 
    16   opls_815      1    UNK   C0F      1    -0.2385    12.0110 
    17   opls_816      1    UNK   C0G      1     0.3744    12.0110 
    18   opls_817      1    UNK   O0H      1    -0.4533    15.9990 
    19   opls_818      1    UNK   H0I      1     0.0829     1.0080 
    20   opls_819      1    UNK   H0J      1     0.0829     1.0080 
    21   opls_820      1    UNK   H0K      1     0.0829     1.0080 
    22   opls_821      1    UNK   H0M      1     0.0854     1.0080 
    23   opls_822      1    UNK   H0N      1     0.0854     1.0080 
    24   opls_823      1    UNK   H0O      1      0.107     1.0080 
    25   opls_824      1    UNK   H0P      1     0.0819     1.0080 
    26   opls_825      1    UNK   H0Q      1     0.0819     1.0080 
    27   opls_826      1    UNK   H0R      1     0.0819     1.0080 
    28   opls_827      1    UNK   H0S      1     0.0953     1.0080 
    29   opls_828      1    UNK   H0T      1     0.0953     1.0080 
    30   opls_829      1    UNK   H0U      1     0.0841     1.0080 
    31   opls_830      1    UNK   H0V      1     0.0841     1.0080 
    32   opls_831      1    UNK   H0W      1     0.0841     1.0080 
    33   opls_832      1    UNK   H0X      2     0.0914     1.0080 
    34   opls_833      1    UNK   H0Y      2     0.0914     1.0080 
    35   opls_834      1    UNK   H0Z      2     0.0914     1.0080 
    36   opls_835      1    UNK   H10      2     0.1006     1.0080 
    37   opls_836      1    UNK   H11      2     0.1006     1.0080 
    38   opls_837      1    UNK   H12      2     0.1098     1.0080 
    39   opls_838      1    UNK   H13      2     0.0929     1.0080 
    40   opls_839      1    UNK   H14      2     0.0929     1.0080 
    41   opls_840      1    UNK   H15      2     0.0982     1.0080 
    42   opls_841      1    UNK   H16      2     0.0819     1.0080 
    43   opls_842      1    UNK   H17      2     0.0819     1.0080 
    44   opls_843      1    UNK   H18      2     0.0819     1.0080 
    45   opls_844      1    UNK   H19      2     0.0829     1.0080 
    46   opls_845      1    UNK   H1A      2     0.0829     1.0080 
    47   opls_846      1    UNK   H1B      2     0.0829     1.0080 
    48   opls_847      1    UNK   H1C      2     0.1333     1.0080 
    49   opls_848      1    UNK   H1D      2     0.1333     1.0080 
[ bonds ]
    2     1     1      0.1529 224262.400
    3     2     1      0.1529 224262.400
    4     3     1      0.1448 319657.600
    5     4     1      0.1448 319657.600
    6     4     1      0.1448 319657.600
    7     6     1      0.1529 224262.400
    8     3     1      0.1529 224262.400
    9     8     1      0.1529 224262.400
   10     8     1      0.1529 224262.400
   11    10     1      0.1529 224262.400
   12    11     1      0.1529 224262.400
   13    12     1      0.1529 224262.400
   14    13     1      0.1529 224262.400
   15    13     1      0.1529 224262.400
   16    11     1      0.1529 224262.400
   17     8     1      0.1522 265265.600
   18    17     1      0.1229 476976.000
   19     1     1      0.1090 284512.000
   20     1     1      0.1090 284512.000
   21     1     1      0.1090 284512.000
   22     2     1      0.1090 284512.000
   23     2     1      0.1090 284512.000
   24     3     1      0.1090 284512.000
   25     5     1      0.1090 284512.000
   26     5     1      0.1090 284512.000
   27     5     1      0.1090 284512.000
   28     6     1      0.1090 284512.000
   29     6     1      0.1090 284512.000
   30     7     1      0.1090 284512.000
   31     7     1      0.1090 284512.000
   32     7     1      0.1090 284512.000
   33     9     1      0.1090 284512.000
   34     9     1      0.1090 284512.000
   35     9     1      0.1090 284512.000
   36    10     1      0.1090 284512.000
   37    10     1      0.1090 284512.000
   38    11     1      0.1090 284512.000
   39    12     1      0.1090 284512.000
   40    12     1      0.1090 284512.000
   41    13     1      0.1090 284512.000
   42    14     1      0.1090 284512.000
   43    14     1      0.1090 284512.000
   44    14     1      0.1090 284512.000
   45    15     1      0.1090 284512.000
   46    15     1      0.1090 284512.000
   47    15     1      0.1090 284512.000
   48    16     1      0.1090 284512.000
   49    16     1      0.1090 284512.000
   17    16     1      0.1522 265265.600

[ angles ]
;  ai    aj    ak funct            c0            c1            c2            c3 
    1     2     3     1    112.700    488.273
    2     3     4     1    109.470    470.282
    3     4     5     1    107.200    433.462
    3     4     6     1    107.200    433.462
    4     6     7     1    109.470    470.282
    2     3     8     1    112.700    488.273
    3     8     9     1    112.700    488.273
    3     8    10     1    112.700    488.273
    8    10    11     1    112.700    488.273
   10    11    12     1    112.700    488.273
   11    12    13     1    112.700    488.273
   12    13    14     1    112.700    488.273
   12    13    15     1    112.700    488.273
   10    11    16     1    112.700    488.273
    3     8    17     1    111.100    527.184
    8    17    18     1    120.400    669.440
    2     1    19     1    110.700    313.800
    2     1    20     1    110.700    313.800
    2     1    21     1    110.700    313.800
    1     2    22     1    110.700    313.800
    1     2    23     1    110.700    313.800
    2     3    24     1    110.700    313.800
    4     5    25     1    109.500    292.880
    4     5    26     1    109.500    292.880
    4     5    27     1    109.500    292.880
    4     6    28     1    109.500    292.880
    4     6    29     1    109.500    292.880
    6     7    30     1    110.700    313.800
    6     7    31     1    110.700    313.800
    6     7    32     1    110.700    313.800
    8     9    33     1    110.700    313.800
    8     9    34     1    110.700    313.800
    8     9    35     1    110.700    313.800
    8    10    36     1    110.700    313.800
    8    10    37     1    110.700    313.800
   10    11    38     1    110.700    313.800
   11    12    39     1    110.700    313.800
   11    12    40     1    110.700    313.800
   12    13    41     1    110.700    313.800
   13    14    42     1    110.700    313.800
   13    14    43     1    110.700    313.800
   13    14    44     1    110.700    313.800
   13    15    45     1    110.700    313.800
   13    15    46     1    110.700    313.800
   13    15    47     1    110.700    313.800
   11    16    48     1    110.700    313.800
   11    16    49     1    110.700    313.800
   39    12    40     1    107.800    276.144
   15    13    41     1    110.700    313.800
   43    14    44     1    107.800    276.144
   14    13    15     1    112.700    488.273
   11    10    36     1    110.700    313.800
   19     1    21     1    107.800    276.144
   25     5    26     1    107.800    276.144
    4     3    24     1    109.500    292.880
   31     7    32     1    107.800    276.144
   30     7    32     1    107.800    276.144
   12    11    38     1    110.700    313.800
   20     1    21     1    107.800    276.144
    4     3     8     1    109.470    470.282
    9     8    17     1    111.100    527.184
    5     4     6     1    107.200    433.462
   45    15    46     1    107.800    276.144
   10     8    17     1    111.100    527.184
   33     9    35     1    107.800    276.144
   16    17    18     1    120.400    669.440
   14    13    41     1    110.700    313.800
   42    14    44     1    107.800    276.144
   16    11    38     1    110.700    313.800
   48    16    49     1    107.800    276.144
   45    15    47     1    107.800    276.144
   46    15    47     1    107.800    276.144
    8     3    24     1    110.700    313.800
   25     5    27     1    107.800    276.144
   28     6    29     1    107.800    276.144
   13    12    39     1    110.700    313.800
    7     6    28     1    110.700    313.800
    9     8    10     1    112.700    488.273
    8    17    16     1    116.000    585.760
   34     9    35     1    107.800    276.144
   42    14    43     1    107.800    276.144
   17    16    48     1    109.500    292.880
    7     6    29     1    110.700    313.800
   22     2    23     1    107.800    276.144
   11    16    17     1    111.100    527.184
   13    12    40     1    110.700    313.800
   33     9    34     1    107.800    276.144
    3     2    22     1    110.700    313.800
    3     2    23     1    110.700    313.800
   26     5    27     1    107.800    276.144
   17    16    49     1    109.500    292.880
   11    10    37     1    110.700    313.800
   30     7    31     1    107.800    276.144
   12    11    16     1    112.700    488.273
   19     1    20     1    107.800    276.144
   36    10    37     1    107.800    276.144

[ dihedrals ]
; IMPROPER DIHEDRAL ANGLES 
;  ai    aj    ak    al funct            c0            c1            c2            c3            c4            c5
    18    17     8    16    4        180.000     43.932     2  

[ dihedrals ]
; PROPER DIHEDRAL ANGLES
;  ai    aj    ak    al funct            c0            c1            c2            c3            c4            c5
   17   16   11   10        3      -4.960   6.286   1.310  -2.636  -0.000   0.000
   17    8    3    2        3      -4.960   6.286   1.310  -2.636  -0.000   0.000
   17   16   11   12        3      -4.960   6.286   1.310  -2.636  -0.000   0.000
   17    8   10   11        3      -4.960   6.286   1.310  -2.636  -0.000   0.000
   17    8    3    4        3       3.335  -1.552   2.820  -4.602  -0.000   0.000
   16   17    8   10        3       0.818  -7.906   0.602   6.485  -0.000   0.000
   16   17    8    9        3       0.818  -7.906   0.602   6.485  -0.000   0.000
   16   17    8    3        3       0.818  -7.906   0.602   6.485  -0.000   0.000
   11   16   17    8        3       0.818  -7.906   0.602   6.485  -0.000   0.000
   13   12   11   10        3       2.301  -1.464   0.837  -1.674  -0.000   0.000
   11   10    8    9        3       2.301  -1.464   0.837  -1.674  -0.000   0.000
    9    8    3    2        3       2.301  -1.464   0.837  -1.674  -0.000   0.000
   12   11   10    8        3       2.301  -1.464   0.837  -1.674  -0.000   0.000
   16   11   12   13        3       2.301  -1.464   0.837  -1.674  -0.000   0.000
   10    8    3    2        3       2.301  -1.464   0.837  -1.674  -0.000   0.000
   16   11   10    8        3       2.301  -1.464   0.837  -1.674  -0.000   0.000
   11   10    8    3        3       2.301  -1.464   0.837  -1.674  -0.000   0.000
   14   13   12   11        3       2.301  -1.464   0.837  -1.674  -0.000   0.000
    8    3    2    1        3       2.301  -1.464   0.837  -1.674  -0.000   0.000
   15   13   12   11        3       2.301  -1.464   0.837  -1.674  -0.000   0.000
   10    8    3    4        3       3.335  -1.552   2.820  -4.602  -0.000   0.000
    9    8    3    4        3       3.335  -1.552   2.820  -4.602  -0.000   0.000
    7    6    4    3        3       1.789   3.492   0.536  -5.816  -0.000   0.000
    8    3    4    6        3       1.789   3.492   0.536  -5.816  -0.000   0.000
    7    6    4    5        3       1.789   3.492   0.536  -5.816  -0.000   0.000
    8    3    4    5        3       1.789   3.492   0.536  -5.816  -0.000   0.000
    5    4    3    2        3       1.789   3.492   0.536  -5.816  -0.000   0.000
    6    4    3    2        3       1.789   3.492   0.536  -5.816  -0.000   0.000
   49   16   17    8        3       0.575   1.726   0.000  -2.301  -0.000   0.000
   48   16   17    8        3       0.575   1.726   0.000  -2.301  -0.000   0.000
   49   16   17   18        3       0.000   0.000   0.000  -0.000  -0.000   0.000
   48   16   17   18        3       0.000   0.000   0.000  -0.000  -0.000   0.000
   37   10    8   17        3      -0.209  -0.628   0.000   0.837  -0.000   0.000
   34    9    8   17        3      -0.209  -0.628   0.000   0.837  -0.000   0.000
   33    9    8   17        3      -0.209  -0.628   0.000   0.837  -0.000   0.000
   36   10    8   17        3      -0.209  -0.628   0.000   0.837  -0.000   0.000
   24    3    8   17        3      -0.209  -0.628   0.000   0.837  -0.000   0.000
   38   11   16   17        3      -0.209  -0.628   0.000   0.837  -0.000   0.000
   35    9    8   17        3      -0.209  -0.628   0.000   0.837  -0.000   0.000
   33    9    8   10        3       0.628   1.883   0.000  -2.510  -0.000   0.000
   40   12   11   10        3       0.628   1.883   0.000  -2.510  -0.000   0.000
   41   13   12   11        3       0.628   1.883   0.000  -2.510  -0.000   0.000
   43   14   13   15        3       0.628   1.883   0.000  -2.510  -0.000   0.000
   37   10    8    3        3       0.628   1.883   0.000  -2.510  -0.000   0.000
   36   10    8    9        3       0.628   1.883   0.000  -2.510  -0.000   0.000
   44   14   13   15        3       0.628   1.883   0.000  -2.510  -0.000   0.000
   34    9    8    3        3       0.628   1.883   0.000  -2.510  -0.000   0.000
   39   12   11   16        3       0.628   1.883   0.000  -2.510  -0.000   0.000
   49   16   11   12        3       0.628   1.883   0.000  -2.510  -0.000   0.000
   24    3    8   10        3       0.628   1.883   0.000  -2.510  -0.000   0.000
   36   10    8    3        3       0.628   1.883   0.000  -2.510  -0.000   0.000
   21    1    2    3        3       0.628   1.883   0.000  -2.510  -0.000   0.000
   37   10    8    9        3       0.628   1.883   0.000  -2.510  -0.000   0.000
   43   14   13   12        3       0.628   1.883   0.000  -2.510  -0.000   0.000
   47   15   13   12        3       0.628   1.883   0.000  -2.510  -0.000   0.000
   45   15   13   14        3       0.628   1.883   0.000  -2.510  -0.000   0.000
   23    2    3    8        3       0.628   1.883   0.000  -2.510  -0.000   0.000
   20    1    2    3        3       0.628   1.883   0.000  -2.510  -0.000   0.000
   24    3    2    1        3       0.628   1.883   0.000  -2.510  -0.000   0.000
   37   10   11   12        3       0.628   1.883   0.000  -2.510  -0.000   0.000
   40   12   13   14        3       0.628   1.883   0.000  -2.510  -0.000   0.000
   44   14   13   12        3       0.628   1.883   0.000  -2.510  -0.000   0.000
   24    3    8    9        3       0.628   1.883   0.000  -2.510  -0.000   0.000
   34    9    8   10        3       0.628   1.883   0.000  -2.510  -0.000   0.000
   37   10   11   16        3       0.628   1.883   0.000  -2.510  -0.000   0.000
   36   10   11   16        3       0.628   1.883   0.000  -2.510  -0.000   0.000
   46   15   13   14        3       0.628   1.883   0.000  -2.510  -0.000   0.000
   40   12   13   15        3       0.628   1.883   0.000  -2.510  -0.000   0.000
   48   16   11   12        3       0.628   1.883   0.000  -2.510  -0.000   0.000
   40   12   11   16        3       0.628   1.883   0.000  -2.510  -0.000   0.000
   36   10   11   12        3       0.628   1.883   0.000  -2.510  -0.000   0.000
   38   11   12   13        3       0.628   1.883   0.000  -2.510  -0.000   0.000
   42   14   13   15        3       0.628   1.883   0.000  -2.510  -0.000   0.000
   39   12   13   15        3       0.628   1.883   0.000  -2.510  -0.000   0.000
   35    9    8    3        3       0.628   1.883   0.000  -2.510  -0.000   0.000
   49   16   11   10        3       0.628   1.883   0.000  -2.510  -0.000   0.000
   48   16   11   10        3       0.628   1.883   0.000  -2.510  -0.000   0.000
   39   12   11   10        3       0.628   1.883   0.000  -2.510  -0.000   0.000
   47   15   13   14        3       0.628   1.883   0.000  -2.510  -0.000   0.000
   35    9    8   10        3       0.628   1.883   0.000  -2.510  -0.000   0.000
   45   15   13   12        3       0.628   1.883   0.000  -2.510  -0.000   0.000
   39   12   13   14        3       0.628   1.883   0.000  -2.510  -0.000   0.000
   42   14   13   12        3       0.628   1.883   0.000  -2.510  -0.000   0.000
   38   11   10    8        3       0.628   1.883   0.000  -2.510  -0.000   0.000
   22    2    3    8        3       0.628   1.883   0.000  -2.510  -0.000   0.000
   19    1    2    3        3       0.628   1.883   0.000  -2.510  -0.000   0.000
   33    9    8    3        3       0.628   1.883   0.000  -2.510  -0.000   0.000
   46   15   13   12        3       0.628   1.883   0.000  -2.510  -0.000   0.000
   45   15   13   41        3       0.628   1.883   0.000  -2.510  -0.000   0.000
   48   16   11   38        3       0.628   1.883   0.000  -2.510  -0.000   0.000
   46   15   13   41        3       0.628   1.883   0.000  -2.510  -0.000   0.000
   24    3    2   23        3       0.628   1.883   0.000  -2.510  -0.000   0.000
   23    2    1   20        3       0.628   1.883   0.000  -2.510  -0.000   0.000
   43   14   13   41        3       0.628   1.883   0.000  -2.510  -0.000   0.000
   47   15   13   41        3       0.628   1.883   0.000  -2.510  -0.000   0.000
   49   16   11   38        3       0.628   1.883   0.000  -2.510  -0.000   0.000
   38   11   10   37        3       0.628   1.883   0.000  -2.510  -0.000   0.000
   31    7    6   29        3       0.628   1.883   0.000  -2.510  -0.000   0.000
   42   14   13   41        3       0.628   1.883   0.000  -2.510  -0.000   0.000
   32    7    6   29        3       0.628   1.883   0.000  -2.510  -0.000   0.000
   40   12   11   38        3       0.628   1.883   0.000  -2.510  -0.000   0.000
   38   11   10   36        3       0.628   1.883   0.000  -2.510  -0.000   0.000
   22    2    1   20        3       0.628   1.883   0.000  -2.510  -0.000   0.000
   24    3    2   22        3       0.628   1.883   0.000  -2.510  -0.000   0.000
   23    2    1   21        3       0.628   1.883   0.000  -2.510  -0.000   0.000
   32    7    6   28        3       0.628   1.883   0.000  -2.510  -0.000   0.000
   23    2    1   19        3       0.628   1.883   0.000  -2.510  -0.000   0.000
   44   14   13   41        3       0.628   1.883   0.000  -2.510  -0.000   0.000
   30    7    6   29        3       0.628   1.883   0.000  -2.510  -0.000   0.000
   41   13   12   39        3       0.628   1.883   0.000  -2.510  -0.000   0.000
   22    2    1   21        3       0.628   1.883   0.000  -2.510  -0.000   0.000
   22    2    1   19        3       0.628   1.883   0.000  -2.510  -0.000   0.000
   30    7    6   28        3       0.628   1.883   0.000  -2.510  -0.000   0.000
   41   13   12   40        3       0.628   1.883   0.000  -2.510  -0.000   0.000
   39   12   11   38        3       0.628   1.883   0.000  -2.510  -0.000   0.000
   31    7    6   28        3       0.628   1.883   0.000  -2.510  -0.000   0.000
   30    7    6    4        3      -4.096   5.088   2.966  -3.958  -0.000   0.000
   31    7    6    4        3      -4.096   5.088   2.966  -3.958  -0.000   0.000
   32    7    6    4        3      -4.096   5.088   2.966  -3.958  -0.000   0.000
   23    2    3    4        3      -4.096   5.088   2.966  -3.958  -0.000   0.000
   22    2    3    4        3      -4.096   5.088   2.966  -3.958  -0.000   0.000
   29    6    4    3        3       1.172   3.515   0.000  -4.686  -0.000   0.000
   24    3    4    6        3       1.172   3.515   0.000  -4.686  -0.000   0.000
   25    5    4    3        3       1.172   3.515   0.000  -4.686  -0.000   0.000
   26    5    4    6        3       1.172   3.515   0.000  -4.686  -0.000   0.000
   25    5    4    6        3       1.172   3.515   0.000  -4.686  -0.000   0.000
   26    5    4    3        3       1.172   3.515   0.000  -4.686  -0.000   0.000
   27    5    4    6        3       1.172   3.515   0.000  -4.686  -0.000   0.000
   28    6    4    3        3       1.172   3.515   0.000  -4.686  -0.000   0.000
   29    6    4    5        3       1.172   3.515   0.000  -4.686  -0.000   0.000
   24    3    4    5        3       1.172   3.515   0.000  -4.686  -0.000   0.000
   28    6    4    5        3       1.172   3.515   0.000  -4.686  -0.000   0.000
   27    5    4    3        3       1.172   3.515   0.000  -4.686  -0.000   0.000
    4    3    2    1        3       3.335  -1.552   2.820  -4.602  -0.000   0.000
   18   17    8    9        3       0.000   0.000   0.000  -0.000  -0.000   0.000
   18   17    8   10        3       0.000   0.000   0.000  -0.000  -0.000   0.000
   18   17   16   11        3       0.000   0.000   0.000  -0.000  -0.000   0.000
   18   17    8    3        3       0.000   0.000   0.000  -0.000  -0.000   0.000

[ pairs ]
     1     4    1
     2     5    1
     2     6    1
     1     8    1
     3     7    1
     2     9    1
     5     7    1
     2    10    1
     5     8    1
     4     9    1
     6     8    1
     4    10    1
     3    11    1
     3    16    1
     2    17    1
     9    11    1
     8    12    1
     4    17    1
     3    18    1
     3    19    1
    10    13    1
     3    20    1
     3    21    1
    11    14    1
     9    16    1
     1    24    1
    11    15    1
     4    22    1
     9    18    1
     4    23    1
    10    18    1
     3    25    1
    13    16    1
    12    17    1
    11    18    1
     5    24    1
     3    26    1
     8    22    1
     6    24    1
     3    27    1
     8    23    1
     6    25    1
     3    28    1
     6    26    1
     3    29    1
     9    24    1
     6    27    1
     5    28    1
    10    24    1
     5    29    1
     4    30    1
     4    31    1
     4    32    1
     3    33    1
     3    34    1
     3    35    1
     3    36    1
     3    37    1
    19    22    1
    17    24    1
    20    22    1
    19    23    1
    21    22    1
    20    23    1
    10    33    1
    21    23    1
    10    34    1
    10    35    1
     9    36    1
    22    24    1
     9    37    1
     8    38    1
    23    24    1
    12    36    1
    12    37    1
    10    39    1
    17    33    1
    10    40    1
    17    34    1
    13    38    1
    17    35    1
    16    36    1
    11    41    1
    17    36    1
    16    37    1
    14    39    1
    17    37    1
    15    39    1
    14    40    1
    12    42    1
    17    38    1
    16    39    1
    15    40    1
    12    43    1
    16    40    1
    12    44    1
     8    48    1
    15    42    1
    12    45    1
     8    49    1
    28    30    1
    15    43    1
    12    46    1
    10    48    1
    29    30    1
    28    31    1
    15    44    1
    14    45    1
    12    47    1
    10    49    1
    29    31    1
    28    32    1
    14    46    1
    12    48    1
    29    32    1
    14    47    1
    12    49    1
    18    48    1
    18    49    1
    36    38    1
    37    38    1
    38    39    1
    38    40    1
    39    41    1
    40    41    1
    41    42    1
    41    43    1
    41    44    1
    41    45    1
    38    48    1
    41    46    1
    38    49    1
    41    47    1

