LIGPARGEN GENERATED GRO FILE
   49
    1UNK    C00    1   0.100   0.100   0.000
    1UNK    C01    2  -0.052   0.100   0.000
    1UNK    C02    3  -0.124   0.100   0.141
    1UNK    N03    4  -0.070   0.208   0.227
    1UNK    C04    5  -0.092   0.345   0.179
    1UNK    C05    6  -0.104   0.203   0.371
    1UNK    C06    7  -0.080   0.071   0.443
    1UNK    C07    8  -0.280   0.082   0.117
    1UNK    C08    9  -0.339   0.190   0.024
    1UNK    C09   10  -0.304  -0.061   0.057
    1UNK    C0A   11  -0.437  -0.115   0.112
    1UNK    C0B   12  -0.563  -0.068   0.036
    1UNK    C0C   13  -0.567  -0.108  -0.113
    1UNK    C0D   14  -0.574  -0.259  -0.130
    1UNK    C0E   15  -0.686  -0.041  -0.182
    1UNK    C0F   16  -0.435  -0.064   0.255
    1UNK    C0G   17  -0.371   0.072   0.239
    1UNK    O0H   18  -0.402   0.167   0.312
    1UNK    H0I   19   0.136   0.069  -0.099
    1UNK    H0J   20   0.141   0.030   0.074
    1UNK    H0K   21   0.140   0.200   0.018
    1UNK    H0M   22  -0.083   0.010  -0.055
    1UNK    H0N   23  -0.085   0.185  -0.061
    1UNK    H0O   24  -0.088   0.007   0.187
    1UNK    H0P   25  -0.069   0.357   0.073
    1UNK    H0Q   26  -0.025   0.413   0.232
    1UNK    H0R   27  -0.194   0.379   0.198
    1UNK    H0S   28  -0.207   0.236   0.388
    1UNK    H0T   29  -0.042   0.278   0.422
    1UNK    H0U   30  -0.131  -0.013   0.395
    1UNK    H0V   31  -0.119   0.078   0.545
    1UNK    H0W   32   0.027   0.049   0.449
    1UNK    H0X   33  -0.303   0.179  -0.079
    1UNK    H0Y   34  -0.315   0.290   0.058
    1UNK    H0Z   35  -0.447   0.187   0.019
    1UNK    H10   36  -0.226  -0.130   0.093
    1UNK    H11   37  -0.298  -0.063  -0.052
    1UNK    H12   38  -0.436  -0.224   0.113
    1UNK    H13   39  -0.576   0.040   0.045
    1UNK    H14   40  -0.651  -0.111   0.086
    1UNK    H15   41  -0.477  -0.072  -0.164
    1UNK    H16   42  -0.654  -0.302  -0.068
    1UNK    H17   43  -0.480  -0.306  -0.100
    1UNK    H18   44  -0.594  -0.287  -0.234
    1UNK    H19   45  -0.781  -0.068  -0.134
    1UNK    H1A   46  -0.692  -0.070  -0.287
    1UNK    H1B   47  -0.676   0.068  -0.178
    1UNK    H1C   48  -0.371  -0.125   0.320
    1UNK    H1D   49  -0.535  -0.056   0.299
   1.00000   1.00000   1.00000

