LIGPARGEN GENERATED GRO FILE
   44
    1UNK    C00    1   0.100   0.100   0.000
    1UNK    C01    2  -0.053   0.100   0.000
    1UNK    C02    3  -0.113   0.100   0.142
    1UNK    C03    4  -0.088   0.230   0.222
    1UNK    C04    5  -0.106   0.357   0.141
    1UNK    O05    6  -0.015   0.438   0.121
    1UNK    C06    7  -0.184   0.219   0.343
    1UNK    C07    8  -0.220   0.355   0.407
    1UNK    C08    9  -0.115   0.135   0.453
    1UNK    C09   10  -0.311   0.153   0.281
    1UNK    C0A   11  -0.397   0.077   0.383
    1UNK    O0B   12  -0.359  -0.017   0.452
    1UNK    O0C   13  -0.522   0.130   0.388
    1UNK    C0D   14  -0.608   0.064   0.482
    1UNK    C0E   15  -0.266   0.071   0.154
    1UNK    C0F   16  -0.347   0.123   0.032
    1UNK    C0G   17  -0.294  -0.082   0.169
    1UNK    C0H   18  -0.253  -0.173   0.053
    1UNK    H0I   19   0.137   0.107  -0.103
    1UNK    H0J   20   0.139   0.007   0.044
    1UNK    H0K   21   0.141   0.184   0.056
    1UNK    H0M   22  -0.085   0.011  -0.055
    1UNK    H0N   23  -0.088   0.186  -0.058
    1UNK    H0O   24  -0.061   0.020   0.197
    1UNK    H0P   25   0.017   0.232   0.257
    1UNK    H0Q   26  -0.207   0.376   0.100
    1UNK    H0R   27  -0.130   0.407   0.441
    1UNK    H0S   28  -0.286   0.341   0.492
    1UNK    H0T   29  -0.272   0.421   0.336
    1UNK    H0U   30  -0.017   0.177   0.478
    1UNK    H0V   31  -0.099   0.031   0.422
    1UNK    H0W   32  -0.173   0.134   0.545
    1UNK    H0X   33  -0.375   0.235   0.245
    1UNK    H0Y   34  -0.707   0.109   0.476
    1UNK    H0Z   35  -0.570   0.077   0.584
    1UNK    H10   36  -0.616  -0.043   0.458
    1UNK    H11   37  -0.336   0.231   0.019
    1UNK    H12   38  -0.454   0.103   0.045
    1UNK    H13   39  -0.316   0.076  -0.062
    1UNK    H14   40  -0.402  -0.097   0.185
    1UNK    H15   41  -0.243  -0.120   0.258
    1UNK    H16   42  -0.297  -0.141  -0.042
    1UNK    H17   43  -0.288  -0.275   0.073
    1UNK    H18   44  -0.145  -0.177   0.043
   1.00000   1.00000   1.00000

