
;
; GENERATED BY LigParGen Server
; Jorgensen Lab @ Yale University 
;
[ atomtypes ]
  opls_818  H818     1.0080     0.000    A    2.50000E-01   1.25520E-01
  opls_814  C814    12.0110     0.000    A    3.50000E-01   2.76144E-01
  opls_824  H824     1.0080     0.000    A    2.50000E-01   1.25520E-01
  opls_805  O805    15.9990     0.000    A    2.96000E-01   8.78640E-01
  opls_810  C810    12.0110     0.000    A    3.55000E-01   2.92880E-01
  opls_843  H843     1.0080     0.000    A    2.50000E-01   1.25520E-01
  opls_836  H836     1.0080     0.000    A    2.50000E-01   1.25520E-01
  opls_834  H834     1.0080     0.000    A    2.50000E-01   1.25520E-01
  opls_828  H828     1.0080     0.000    A    2.50000E-01   1.25520E-01
  opls_812  O812    15.9990     0.000    A    2.90000E-01   5.85760E-01
  opls_806  C806    12.0110     0.000    A    3.50000E-01   2.76144E-01
  opls_827  H827     1.0080     0.000    A    2.50000E-01   1.25520E-01
  opls_809  C809    12.0110     0.000    A    3.50000E-01   2.76144E-01
  opls_838  H838     1.0080     0.000    A    2.50000E-01   1.25520E-01
  opls_811  O811    15.9990     0.000    A    2.96000E-01   8.78640E-01
  opls_822  H822     1.0080     0.000    A    2.50000E-01   1.25520E-01
  opls_803  C803    12.0110     0.000    A    3.50000E-01   2.76144E-01
  opls_825  H825     1.0080     0.000    A    2.50000E-01   1.25520E-01
  opls_830  H830     1.0080     0.000    A    2.50000E-01   1.25520E-01
  opls_821  H821     1.0080     0.000    A    2.50000E-01   1.25520E-01
  opls_842  H842     1.0080     0.000    A    2.50000E-01   1.25520E-01
  opls_820  H820     1.0080     0.000    A    2.50000E-01   1.25520E-01
  opls_837  H837     1.0080     0.000    A    2.50000E-01   1.25520E-01
  opls_823  H823     1.0080     0.000    A    2.50000E-01   1.25520E-01
  opls_829  H829     1.0080     0.000    A    2.50000E-01   1.25520E-01
  opls_831  H831     1.0080     0.000    A    2.50000E-01   1.25520E-01
  opls_804  C804    12.0110     0.000    A    3.55000E-01   2.92880E-01
  opls_832  H832     1.0080     0.000    A    2.50000E-01   1.25520E-01
  opls_800  C800    12.0110     0.000    A    3.50000E-01   2.76144E-01
  opls_815  C815    12.0110     0.000    A    3.50000E-01   2.76144E-01
  opls_802  C802    12.0110     0.000    A    3.50000E-01   2.76144E-01
  opls_813  C813    12.0110     0.000    A    3.50000E-01   2.76144E-01
  opls_826  H826     1.0080     0.000    A    2.50000E-01   1.25520E-01
  opls_835  H835     1.0080     0.000    A    2.50000E-01   1.25520E-01
  opls_841  H841     1.0080     0.000    A    2.50000E-01   1.25520E-01
  opls_819  H819     1.0080     0.000    A    2.50000E-01   1.25520E-01
  opls_816  C816    12.0110     0.000    A    3.50000E-01   2.76144E-01
  opls_833  H833     1.0080     0.000    A    2.50000E-01   1.25520E-01
  opls_839  H839     1.0080     0.000    A    2.50000E-01   1.25520E-01
  opls_817  C817    12.0110     0.000    A    3.50000E-01   2.76144E-01
  opls_801  C801    12.0110     0.000    A    3.50000E-01   2.76144E-01
  opls_808  C808    12.0110     0.000    A    3.50000E-01   2.76144E-01
  opls_840  H840     1.0080     0.000    A    2.50000E-01   1.25520E-01
  opls_807  C807    12.0110     0.000    A    3.50000E-01   2.76144E-01
[ moleculetype ]
; Name               nrexcl
UNK                   3
[ atoms ]
;   nr       type  resnr residue  atom   cgnr     charge       mass  
     1   opls_800      1    UNK   C00      1    -0.2435    12.0110 
     2   opls_801      1    UNK   C01      1    -0.1728    12.0110 
     3   opls_802      1    UNK   C02      1    -0.0934    12.0110 
     4   opls_803      1    UNK   C03      1    -0.1874    12.0110 
     5   opls_804      1    UNK   C04      1     0.3286    12.0110 
     6   opls_805      1    UNK   O05      1    -0.4445    15.9990 
     7   opls_806      1    UNK   C06      1    -0.0269    12.0110 
     8   opls_807      1    UNK   C07      1    -0.2415    12.0110 
     9   opls_808      1    UNK   C08      1    -0.2319    12.0110 
    10   opls_809      1    UNK   C09      1    -0.1215    12.0110 
    11   opls_810      1    UNK   C0A      1     0.4469    12.0110 
    12   opls_811      1    UNK   O0B      1    -0.4461    15.9990 
    13   opls_812      1    UNK   O0C      1     -0.354    15.9990 
    14   opls_813      1    UNK   C0D      1    -0.0593    12.0110 
    15   opls_814      1    UNK   C0E      1    -0.0223    12.0110 
    16   opls_815      1    UNK   C0F      1    -0.2347    12.0110 
    17   opls_816      1    UNK   C0G      1    -0.1767    12.0110 
    18   opls_817      1    UNK   C0H      1    -0.2365    12.0110 
    19   opls_818      1    UNK   H0I      1     0.0871     1.0080 
    20   opls_819      1    UNK   H0J      1     0.0871     1.0080 
    21   opls_820      1    UNK   H0K      1     0.0871     1.0080 
    22   opls_821      1    UNK   H0M      1     0.0933     1.0080 
    23   opls_822      1    UNK   H0N      1     0.0933     1.0080 
    24   opls_823      1    UNK   H0O      1     0.1147     1.0080 
    25   opls_824      1    UNK   H0P      1     0.1355     1.0080 
    26   opls_825      1    UNK   H0Q      1     0.1068     1.0080 
    27   opls_826      1    UNK   H0R      1     0.0921     1.0080 
    28   opls_827      1    UNK   H0S      1     0.0921     1.0080 
    29   opls_828      1    UNK   H0T      1     0.0921     1.0080 
    30   opls_829      1    UNK   H0U      1     0.0948     1.0080 
    31   opls_830      1    UNK   H0V      1     0.0948     1.0080 
    32   opls_831      1    UNK   H0W      1     0.0948     1.0080 
    33   opls_832      1    UNK   H0X      2     0.1314     1.0080 
    34   opls_833      1    UNK   H0Y      2     0.1025     1.0080 
    35   opls_834      1    UNK   H0Z      2     0.1025     1.0080 
    36   opls_835      1    UNK   H10      2     0.1025     1.0080 
    37   opls_836      1    UNK   H11      2     0.0869     1.0080 
    38   opls_837      1    UNK   H12      2     0.0869     1.0080 
    39   opls_838      1    UNK   H13      2     0.0869     1.0080 
    40   opls_839      1    UNK   H14      2     0.1014     1.0080 
    41   opls_840      1    UNK   H15      2     0.1014     1.0080 
    42   opls_841      1    UNK   H16      2     0.0831     1.0080 
    43   opls_842      1    UNK   H17      2     0.0831     1.0080 
    44   opls_843      1    UNK   H18      2     0.0831     1.0080 
[ bonds ]
    2     1     1      0.1529 224262.400
    3     2     1      0.1529 224262.400
    4     3     1      0.1529 224262.400
    5     4     1      0.1522 265265.600
    6     5     1      0.1229 476976.000
    7     4     1      0.1529 224262.400
    8     7     1      0.1529 224262.400
    9     7     1      0.1529 224262.400
   10     7     1      0.1529 224262.400
   11    10     1      0.1522 265265.600
   12    11     1      0.1229 476976.000
   13    11     1      0.1327 179075.200
   14    13     1      0.1410 267776.000
   15     3     1      0.1529 224262.400
   16    15     1      0.1529 224262.400
   17    15     1      0.1529 224262.400
   18    17     1      0.1529 224262.400
   19     1     1      0.1090 284512.000
   20     1     1      0.1090 284512.000
   21     1     1      0.1090 284512.000
   22     2     1      0.1090 284512.000
   23     2     1      0.1090 284512.000
   24     3     1      0.1090 284512.000
   25     4     1      0.1090 284512.000
   26     5     1      0.1090 284512.000
   27     8     1      0.1090 284512.000
   28     8     1      0.1090 284512.000
   29     8     1      0.1090 284512.000
   30     9     1      0.1090 284512.000
   31     9     1      0.1090 284512.000
   32     9     1      0.1090 284512.000
   33    10     1      0.1090 284512.000
   34    14     1      0.1090 284512.000
   35    14     1      0.1090 284512.000
   36    14     1      0.1090 284512.000
   37    16     1      0.1090 284512.000
   38    16     1      0.1090 284512.000
   39    16     1      0.1090 284512.000
   40    17     1      0.1090 284512.000
   41    17     1      0.1090 284512.000
   42    18     1      0.1090 284512.000
   43    18     1      0.1090 284512.000
   44    18     1      0.1090 284512.000
   15    10     1      0.1529 224262.400

[ angles ]
;  ai    aj    ak funct            c0            c1            c2            c3 
    1     2     3     1    112.700    488.273
    2     3     4     1    112.700    488.273
    3     4     5     1    111.100    527.184
    4     5     6     1    120.400    669.440
    3     4     7     1    112.700    488.273
    4     7     8     1    112.700    488.273
    4     7     9     1    112.700    488.273
    4     7    10     1    112.700    488.273
    7    10    11     1    111.100    527.184
   10    11    12     1    120.400    669.440
   10    11    13     1    111.400    677.808
   11    13    14     1    116.900    694.544
    2     3    15     1    112.700    488.273
    3    15    16     1    112.700    488.273
    3    15    17     1    112.700    488.273
   15    17    18     1    112.700    488.273
    2     1    19     1    110.700    313.800
    2     1    20     1    110.700    313.800
    2     1    21     1    110.700    313.800
    1     2    22     1    110.700    313.800
    1     2    23     1    110.700    313.800
    2     3    24     1    110.700    313.800
    3     4    25     1    110.700    313.800
    4     5    26     1    115.000    292.880
    7     8    27     1    110.700    313.800
    7     8    28     1    110.700    313.800
    7     8    29     1    110.700    313.800
    7     9    30     1    110.700    313.800
    7     9    31     1    110.700    313.800
    7     9    32     1    110.700    313.800
    7    10    33     1    110.700    313.800
   13    14    34     1    109.500    292.880
   13    14    35     1    109.500    292.880
   13    14    36     1    109.500    292.880
   15    16    37     1    110.700    313.800
   15    16    38     1    110.700    313.800
   15    16    39     1    110.700    313.800
   15    17    40     1    110.700    313.800
   15    17    41     1    110.700    313.800
   17    18    42     1    110.700    313.800
   17    18    43     1    110.700    313.800
   17    18    44     1    110.700    313.800
   15     3    24     1    110.700    313.800
    5     4    25     1    109.500    292.880
    9     7    10     1    112.700    488.273
    8     7     9     1    112.700    488.273
   18    17    41     1    110.700    313.800
   11    10    15     1    111.100    527.184
   11    10    33     1    109.500    292.880
   20     1    21     1    107.800    276.144
   19     1    20     1    107.800    276.144
    5     4     7     1    111.100    527.184
   10    15    17     1    112.700    488.273
   37    16    39     1    107.800    276.144
   34    14    36     1    107.800    276.144
   37    16    38     1    107.800    276.144
   18    17    40     1    110.700    313.800
   42    18    44     1    107.800    276.144
    8     7    10     1    112.700    488.273
   27     8    29     1    107.800    276.144
   27     8    28     1    107.800    276.144
    7     4    25     1    110.700    313.800
    3     2    22     1    110.700    313.800
    3     2    23     1    110.700    313.800
   19     1    21     1    107.800    276.144
    3    15    10     1    112.700    488.273
   30     9    31     1    107.800    276.144
   43    18    44     1    107.800    276.144
   22     2    23     1    107.800    276.144
   30     9    32     1    107.800    276.144
    4     3    24     1    110.700    313.800
   16    15    17     1    112.700    488.273
    6     5    26     1    123.000    292.880
   40    17    41     1    107.800    276.144
   12    11    13     1    123.400    694.544
   15    10    33     1    110.700    313.800
   35    14    36     1    107.800    276.144
   31     9    32     1    107.800    276.144
   34    14    35     1    107.800    276.144
   10    15    16     1    112.700    488.273
    7    10    15     1    112.700    488.273
    4     3    15     1    112.700    488.273
   42    18    43     1    107.800    276.144
   38    16    39     1    107.800    276.144
   28     8    29     1    107.800    276.144

[ dihedrals ]
; IMPROPER DIHEDRAL ANGLES 
;  ai    aj    ak    al funct            c0            c1            c2            c3            c4            c5
    26     5     4     6    4        180.000     43.932     2  
    13    11    10    12    4        180.000     43.932     2  

[ dihedrals ]
; PROPER DIHEDRAL ANGLES
;  ai    aj    ak    al funct            c0            c1            c2            c3            c4            c5
    5    4    3    2        3      -4.960   6.286   1.310  -2.636  -0.000   0.000
   11   10    7    9        3      -4.960   6.286   1.310  -2.636  -0.000   0.000
   11   10   15    3        3      -4.960   6.286   1.310  -2.636  -0.000   0.000
   11   10    7    4        3      -4.960   6.286   1.310  -2.636  -0.000   0.000
   11   10    7    8        3      -4.960   6.286   1.310  -2.636  -0.000   0.000
    7    4    5    6        3       0.000   0.000   0.000  -0.000  -0.000   0.000
   15   10   11   12        3       0.000   0.000   0.000  -0.000  -0.000   0.000
   15   10   11   13        3      -1.157  -3.471   0.000   4.628  -0.000   0.000
   10    7    4    5        3      -4.960   6.286   1.310  -2.636  -0.000   0.000
    9    7    4    5        3      -4.960   6.286   1.310  -2.636  -0.000   0.000
   16   15   10   11        3      -4.960   6.286   1.310  -2.636  -0.000   0.000
   17   15   10   11        3      -4.960   6.286   1.310  -2.636  -0.000   0.000
   15    3    4    5        3      -4.960   6.286   1.310  -2.636  -0.000   0.000
    8    7    4    5        3      -4.960   6.286   1.310  -2.636  -0.000   0.000
   15   10    7    9        3       2.301  -1.464   0.837  -1.674  -0.000   0.000
   16   15   10    7        3       2.301  -1.464   0.837  -1.674  -0.000   0.000
    7    4    3    2        3       2.301  -1.464   0.837  -1.674  -0.000   0.000
   10   15    3    4        3       2.301  -1.464   0.837  -1.674  -0.000   0.000
   15    3    2    1        3       2.301  -1.464   0.837  -1.674  -0.000   0.000
   15   10    7    4        3       2.301  -1.464   0.837  -1.674  -0.000   0.000
    7   10   15    3        3       2.301  -1.464   0.837  -1.674  -0.000   0.000
   17   15   10    7        3       2.301  -1.464   0.837  -1.674  -0.000   0.000
   17   15    3    4        3       2.301  -1.464   0.837  -1.674  -0.000   0.000
   10    7    4    3        3       2.301  -1.464   0.837  -1.674  -0.000   0.000
   16   15    3    4        3       2.301  -1.464   0.837  -1.674  -0.000   0.000
   15   10    7    8        3       2.301  -1.464   0.837  -1.674  -0.000   0.000
   15    3    4    7        3       2.301  -1.464   0.837  -1.674  -0.000   0.000
   16   15    3    2        3       2.301  -1.464   0.837  -1.674  -0.000   0.000
   18   17   15   10        3       2.301  -1.464   0.837  -1.674  -0.000   0.000
    4    3    2    1        3       2.301  -1.464   0.837  -1.674  -0.000   0.000
   18   17   15    3        3       2.301  -1.464   0.837  -1.674  -0.000   0.000
   10   15    3    2        3       2.301  -1.464   0.837  -1.674  -0.000   0.000
   17   15    3    2        3       2.301  -1.464   0.837  -1.674  -0.000   0.000
   18   17   15   16        3       2.301  -1.464   0.837  -1.674  -0.000   0.000
    9    7    4    3        3       2.301  -1.464   0.837  -1.674  -0.000   0.000
    8    7    4    3        3       2.301  -1.464   0.837  -1.674  -0.000   0.000
   14   13   11   10        3      31.206  -9.768  -21.439  -0.000  -0.000   0.000
   14   13   11   12        3      21.439   0.000  -21.439  -0.000  -0.000   0.000
   26    5    4    7        3       0.000   0.000   0.000  -0.000  -0.000   0.000
   26    5    4    3        3       0.000   0.000   0.000  -0.000  -0.000   0.000
   26    5    4   25        3       0.753   2.259   0.000  -3.012  -0.000   0.000
   25    4    5    6        3       0.000   0.000   0.000  -0.000  -0.000   0.000
   33   10   11   12        3       0.000   0.000   0.000  -0.000  -0.000   0.000
   33   10   11   13        3       0.276   0.828   0.000  -1.105  -0.000   0.000
   24    3    4    5        3      -0.209  -0.628   0.000   0.837  -0.000   0.000
   37   16   15   10        3       0.628   1.883   0.000  -2.510  -0.000   0.000
   37   16   15   17        3       0.628   1.883   0.000  -2.510  -0.000   0.000
   30    9    7    8        3       0.628   1.883   0.000  -2.510  -0.000   0.000
   41   17   15   16        3       0.628   1.883   0.000  -2.510  -0.000   0.000
   38   16   15   10        3       0.628   1.883   0.000  -2.510  -0.000   0.000
   33   10   15   17        3       0.628   1.883   0.000  -2.510  -0.000   0.000
   21    1    2    3        3       0.628   1.883   0.000  -2.510  -0.000   0.000
   24    3   15   17        3       0.628   1.883   0.000  -2.510  -0.000   0.000
   32    9    7   10        3       0.628   1.883   0.000  -2.510  -0.000   0.000
   28    8    7    4        3       0.628   1.883   0.000  -2.510  -0.000   0.000
   24    3   15   10        3       0.628   1.883   0.000  -2.510  -0.000   0.000
   24    3   15   16        3       0.628   1.883   0.000  -2.510  -0.000   0.000
   24    3    2    1        3       0.628   1.883   0.000  -2.510  -0.000   0.000
   33   10    7    4        3       0.628   1.883   0.000  -2.510  -0.000   0.000
   31    9    7   10        3       0.628   1.883   0.000  -2.510  -0.000   0.000
   39   16   15    3        3       0.628   1.883   0.000  -2.510  -0.000   0.000
   31    9    7    4        3       0.628   1.883   0.000  -2.510  -0.000   0.000
   24    3    4    7        3       0.628   1.883   0.000  -2.510  -0.000   0.000
   31    9    7    8        3       0.628   1.883   0.000  -2.510  -0.000   0.000
   29    8    7    9        3       0.628   1.883   0.000  -2.510  -0.000   0.000
   28    8    7   10        3       0.628   1.883   0.000  -2.510  -0.000   0.000
   22    2    3   15        3       0.628   1.883   0.000  -2.510  -0.000   0.000
   40   17   15    3        3       0.628   1.883   0.000  -2.510  -0.000   0.000
   39   16   15   17        3       0.628   1.883   0.000  -2.510  -0.000   0.000
   33   10   15   16        3       0.628   1.883   0.000  -2.510  -0.000   0.000
   20    1    2    3        3       0.628   1.883   0.000  -2.510  -0.000   0.000
   22    2    3    4        3       0.628   1.883   0.000  -2.510  -0.000   0.000
   25    4    3    2        3       0.628   1.883   0.000  -2.510  -0.000   0.000
   40   17   15   10        3       0.628   1.883   0.000  -2.510  -0.000   0.000
   38   16   15    3        3       0.628   1.883   0.000  -2.510  -0.000   0.000
   40   17   15   16        3       0.628   1.883   0.000  -2.510  -0.000   0.000
   41   17   15   10        3       0.628   1.883   0.000  -2.510  -0.000   0.000
   29    8    7   10        3       0.628   1.883   0.000  -2.510  -0.000   0.000
   25    4    7   10        3       0.628   1.883   0.000  -2.510  -0.000   0.000
   33   10    7    8        3       0.628   1.883   0.000  -2.510  -0.000   0.000
   33   10   15    3        3       0.628   1.883   0.000  -2.510  -0.000   0.000
   27    8    7   10        3       0.628   1.883   0.000  -2.510  -0.000   0.000
   28    8    7    9        3       0.628   1.883   0.000  -2.510  -0.000   0.000
   42   18   17   15        3       0.628   1.883   0.000  -2.510  -0.000   0.000
   37   16   15    3        3       0.628   1.883   0.000  -2.510  -0.000   0.000
   30    9    7    4        3       0.628   1.883   0.000  -2.510  -0.000   0.000
   27    8    7    4        3       0.628   1.883   0.000  -2.510  -0.000   0.000
   19    1    2    3        3       0.628   1.883   0.000  -2.510  -0.000   0.000
   43   18   17   15        3       0.628   1.883   0.000  -2.510  -0.000   0.000
   23    2    3    4        3       0.628   1.883   0.000  -2.510  -0.000   0.000
   25    4    7    9        3       0.628   1.883   0.000  -2.510  -0.000   0.000
   32    9    7    8        3       0.628   1.883   0.000  -2.510  -0.000   0.000
   29    8    7    4        3       0.628   1.883   0.000  -2.510  -0.000   0.000
   25    4    3   15        3       0.628   1.883   0.000  -2.510  -0.000   0.000
   39   16   15   10        3       0.628   1.883   0.000  -2.510  -0.000   0.000
   33   10    7    9        3       0.628   1.883   0.000  -2.510  -0.000   0.000
   41   17   15    3        3       0.628   1.883   0.000  -2.510  -0.000   0.000
   27    8    7    9        3       0.628   1.883   0.000  -2.510  -0.000   0.000
   32    9    7    4        3       0.628   1.883   0.000  -2.510  -0.000   0.000
   23    2    3   15        3       0.628   1.883   0.000  -2.510  -0.000   0.000
   44   18   17   15        3       0.628   1.883   0.000  -2.510  -0.000   0.000
   38   16   15   17        3       0.628   1.883   0.000  -2.510  -0.000   0.000
   30    9    7   10        3       0.628   1.883   0.000  -2.510  -0.000   0.000
   25    4    7    8        3       0.628   1.883   0.000  -2.510  -0.000   0.000
   42   18   17   40        3       0.628   1.883   0.000  -2.510  -0.000   0.000
   23    2    1   20        3       0.628   1.883   0.000  -2.510  -0.000   0.000
   22    2    1   20        3       0.628   1.883   0.000  -2.510  -0.000   0.000
   42   18   17   41        3       0.628   1.883   0.000  -2.510  -0.000   0.000
   25    4    3   24        3       0.628   1.883   0.000  -2.510  -0.000   0.000
   43   18   17   41        3       0.628   1.883   0.000  -2.510  -0.000   0.000
   22    2    1   21        3       0.628   1.883   0.000  -2.510  -0.000   0.000
   24    3    2   22        3       0.628   1.883   0.000  -2.510  -0.000   0.000
   23    2    1   19        3       0.628   1.883   0.000  -2.510  -0.000   0.000
   44   18   17   41        3       0.628   1.883   0.000  -2.510  -0.000   0.000
   23    2    1   21        3       0.628   1.883   0.000  -2.510  -0.000   0.000
   22    2    1   19        3       0.628   1.883   0.000  -2.510  -0.000   0.000
   43   18   17   40        3       0.628   1.883   0.000  -2.510  -0.000   0.000
   24    3    2   23        3       0.628   1.883   0.000  -2.510  -0.000   0.000
   44   18   17   40        3       0.628   1.883   0.000  -2.510  -0.000   0.000
   35   14   13   11        3       0.414   1.243   0.000  -1.657  -0.000   0.000
   34   14   13   11        3       0.414   1.243   0.000  -1.657  -0.000   0.000
   36   14   13   11        3       0.414   1.243   0.000  -1.657  -0.000   0.000
   12   11   10    7        3       0.000   0.000   0.000  -0.000  -0.000   0.000
    6    5    4    3        3       0.000   0.000   0.000  -0.000  -0.000   0.000
   13   11   10    7        3      -1.157  -3.471   0.000   4.628  -0.000   0.000

[ pairs ]
     1     4    1
     2     5    1
     3     6    1
     2     7    1
     3     8    1
     3     9    1
     2    10    1
     6     7    1
     5     8    1
     5     9    1
     3    11    1
     5    10    1
     4    11    1
     1    15    1
     2    16    1
     8    11    1
     7    12    1
     2    17    1
     9    11    1
     7    13    1
     5    15    1
     4    16    1
     4    17    1
     3    18    1
     3    19    1
     8    15    1
     7    16    1
     3    20    1
    10    14    1
     9    15    1
     7    17    1
     3    21    1
     1    24    1
    12    14    1
     4    22    1
    12    15    1
    11    16    1
     4    23    1
     2    25    1
    13    15    1
    11    17    1
    10    18    1
     5    24    1
     3    26    1
     7    24    1
     6    25    1
     4    27    1
     4    28    1
     8    25    1
     7    26    1
     4    29    1
    16    18    1
    10    24    1
     9    25    1
     4    30    1
    10    25    1
     4    31    1
     9    27    1
     4    32    1
     3    33    1
    15    22    1
    10    27    1
     9    28    1
     4    33    1
    15    23    1
    10    28    1
     9    29    1
     8    30    1
    10    29    1
     8    31    1
    16    24    1
    15    25    1
    10    30    1
     8    32    1
     3    37    1
    19    22    1
    17    24    1
    10    31    1
     8    33    1
     3    38    1
    20    22    1
    19    23    1
    10    32    1
     9    33    1
     3    39    1
    21    22    1
    20    23    1
     3    40    1
    21    23    1
     3    41    1
    12    33    1
    11    34    1
    22    24    1
    13    33    1
    11    35    1
    23    24    1
    11    36    1
    10    37    1
    10    38    1
    24    25    1
    16    33    1
    10    39    1
    17    33    1
    10    40    1
    25    26    1
    10    41    1
    17    37    1
    17    38    1
    17    39    1
    16    40    1
    16    41    1
    15    42    1
    15    43    1
    15    44    1
    40    42    1
    41    42    1
    40    43    1
    41    43    1
    40    44    1
    41    44    1

