LIGPARGEN GENERATED GRO FILE
   31
    1UNK    C00    1   0.100   0.100   0.000
    1UNK    C01    2  -0.052   0.100   0.000
    1UNK    C02    3  -0.103   0.100   0.144
    1UNK    O03    4  -0.243   0.123   0.155
    1UNK    C04    5  -0.323   0.016   0.181
    1UNK    O05    6  -0.301  -0.100   0.155
    1UNK    O06    7  -0.433   0.067   0.242
    1UNK    C07    8  -0.555  -0.007   0.230
    1UNK    C08    9  -0.595  -0.082   0.357
    1UNK    C09   10  -0.600  -0.003   0.488
    1UNK    C0A   11  -0.687   0.123   0.479
    1UNK    O0B   12  -0.653  -0.095   0.586
    1UNK    C0C   13  -0.656  -0.045   0.719
    1UNK    H0D   14   0.140   0.100  -0.102
    1UNK    H0E   15   0.139   0.012   0.052
    1UNK    H0F   16   0.139   0.189   0.051
    1UNK    H0G   17  -0.090   0.012  -0.054
    1UNK    H0H   18  -0.090   0.188  -0.054
    1UNK    H0I   19  -0.057   0.184   0.197
    1UNK    H0J   20  -0.073   0.009   0.196
    1UNK    H0K   21  -0.551  -0.075   0.145
    1UNK    H0M   22  -0.631   0.068   0.207
    1UNK    H0N   23  -0.528  -0.168   0.371
    1UNK    H0O   24  -0.695  -0.126   0.339
    1UNK    H0P   25  -0.498   0.024   0.518
    1UNK    H0Q   26  -0.791   0.097   0.459
    1UNK    H0R   27  -0.651   0.191   0.402
    1UNK    H0S   28  -0.686   0.178   0.573
    1UNK    H0T   29  -0.677  -0.129   0.786
    1UNK    H0U   30  -0.736   0.028   0.732
    1UNK    H0V   31  -0.559  -0.002   0.747
   1.00000   1.00000   1.00000

