LIGPARGEN GENERATED GRO FILE
   39
    1UNK    C00    1   0.100   0.100   0.000
    1UNK    C01    2  -0.052   0.100   0.000
    1UNK    C02    3  -0.109   0.100   0.141
    1UNK    O03    4  -0.046   0.125   0.242
    1UNK    O04    5  -0.240   0.068   0.135
    1UNK    C05    6  -0.313   0.047   0.256
    1UNK    O06    7  -0.258  -0.062   0.331
    1UNK    C07    8  -0.286  -0.041   0.462
    1UNK    O08    9  -0.279  -0.128   0.548
    1UNK    C09   10  -0.332   0.099   0.486
    1UNK    C0A   11  -0.326   0.168   0.349
    1UNK    C0B   12  -0.449   0.263   0.327
    1UNK    C0C   13  -0.449   0.368   0.441
    1UNK    C0D   14  -0.465   0.332   0.185
    1UNK    C0E   15  -0.497   0.229   0.074
    1UNK    C0F   16  -0.585   0.430   0.187
    1UNK    C0G   17  -0.340   0.412   0.145
    1UNK    H0H   18   0.138   0.083  -0.101
    1UNK    H0I   19   0.140   0.022   0.065
    1UNK    H0J   20   0.139   0.196   0.035
    1UNK    H0K   21  -0.087   0.010  -0.051
    1UNK    H0M   22  -0.090   0.188  -0.053
    1UNK    H0N   23  -0.412   0.012   0.226
    1UNK    H0O   24  -0.264   0.148   0.557
    1UNK    H0P   25  -0.433   0.095   0.527
    1UNK    H0Q   26  -0.236   0.230   0.345
    1UNK    H0R   27  -0.540   0.202   0.343
    1UNK    H0S   28  -0.359   0.430   0.437
    1UNK    H0T   29  -0.451   0.321   0.540
    1UNK    H0U   30  -0.536   0.433   0.438
    1UNK    H0V   31  -0.562   0.149   0.112
    1UNK    H0W   32  -0.407   0.184   0.032
    1UNK    H0X   33  -0.549   0.275  -0.010
    1UNK    H0Y   34  -0.675   0.382   0.226
    1UNK    H0Z   35  -0.608   0.466   0.086
    1UNK    H10   36  -0.565   0.519   0.247
    1UNK    H11   37  -0.252   0.347   0.135
    1UNK    H12   38  -0.316   0.489   0.218
    1UNK    H13   39  -0.355   0.461   0.048
   1.00000   1.00000   1.00000

