
;
; GENERATED BY LigParGen Server
; Jorgensen Lab @ Yale University 
;
[ atomtypes ]
  opls_818  H818     1.0080     0.000    A    2.50000E-01   1.25520E-01
  opls_814  C814    12.0110     0.000    A    3.50000E-01   2.76144E-01
  opls_831  H831     1.0080     0.000    A    2.50000E-01   1.25520E-01
  opls_824  H824     1.0080     0.000    A    2.50000E-01   1.25520E-01
  opls_808  O808    15.9990     0.000    A    2.96000E-01   8.78640E-01
  opls_836  H836     1.0080     0.000    A    2.50000E-01   1.25520E-01
  opls_834  H834     1.0080     0.000    A    2.50000E-01   1.25520E-01
  opls_828  H828     1.0080     0.000    A    2.50000E-01   1.25520E-01
  opls_812  C812    12.0110     0.000    A    3.50000E-01   2.76144E-01
  opls_803  O803    15.9990     0.000    A    2.96000E-01   8.78640E-01
  opls_811  C811    12.0110     0.000    A    3.50000E-01   2.76144E-01
  opls_827  H827     1.0080     0.000    A    2.50000E-01   1.25520E-01
  opls_809  C809    12.0110     0.000    A    3.50000E-01   2.76144E-01
  opls_838  H838     1.0080     0.000    A    2.50000E-01   1.25520E-01
  opls_822  H822     1.0080     0.000    A    2.50000E-01   1.25520E-01
  opls_825  H825     1.0080     0.000    A    2.50000E-01   1.25520E-01
  opls_830  H830     1.0080     0.000    A    2.50000E-01   1.25520E-01
  opls_810  C810    12.0110     0.000    A    3.50000E-01   2.76144E-01
  opls_820  H820     1.0080     0.000    A    2.50000E-01   1.25520E-01
  opls_837  H837     1.0080     0.000    A    2.50000E-01   1.25520E-01
  opls_821  H821     1.0080     0.000    A    2.50000E-01   1.25520E-01
  opls_806  O806    15.9990     0.000    A    2.90000E-01   5.85760E-01
  opls_832  H832     1.0080     0.000    A    2.50000E-01   1.25520E-01
  opls_800  C800    12.0110     0.000    A    3.50000E-01   2.76144E-01
  opls_805  C805    12.0110     0.000    A    3.50000E-01   2.76144E-01
  opls_815  C815    12.0110     0.000    A    3.50000E-01   2.76144E-01
  opls_802  C802    12.0110     0.000    A    3.55000E-01   2.92880E-01
  opls_823  H823     1.0080     0.000    A    2.50000E-01   1.25520E-01
  opls_813  C813    12.0110     0.000    A    3.50000E-01   2.76144E-01
  opls_826  H826     1.0080     0.000    A    2.50000E-01   1.25520E-01
  opls_835  H835     1.0080     0.000    A    2.50000E-01   1.25520E-01
  opls_819  H819     1.0080     0.000    A    2.50000E-01   1.25520E-01
  opls_816  C816    12.0110     0.000    A    3.50000E-01   2.76144E-01
  opls_833  H833     1.0080     0.000    A    2.50000E-01   1.25520E-01
  opls_801  C801    12.0110     0.000    A    3.50000E-01   2.76144E-01
  opls_807  C807    12.0110     0.000    A    3.55000E-01   2.92880E-01
  opls_817  H817     1.0080     0.000    A    2.50000E-01   1.25520E-01
  opls_804  O804    15.9990     0.000    A    2.90000E-01   5.85760E-01
  opls_829  H829     1.0080     0.000    A    2.50000E-01   1.25520E-01
[ moleculetype ]
; Name               nrexcl
UNK                   3
[ atoms ]
;   nr       type  resnr residue  atom   cgnr     charge       mass  
     1   opls_800      1    UNK   C00      1    -0.2354    12.0110 
     2   opls_801      1    UNK   C01      1    -0.1873    12.0110 
     3   opls_802      1    UNK   C02      1     0.4454    12.0110 
     4   opls_803      1    UNK   O03      1    -0.4349    15.9990 
     5   opls_804      1    UNK   O04      1     -0.348    15.9990 
     6   opls_805      1    UNK   C05      1     0.2487    12.0110 
     7   opls_806      1    UNK   O06      1    -0.3442    15.9990 
     8   opls_807      1    UNK   C07      1     0.4566    12.0110 
     9   opls_808      1    UNK   O08      1    -0.3899    15.9990 
    10   opls_809      1    UNK   C09      1    -0.2544    12.0110 
    11   opls_810      1    UNK   C0A      1     -0.176    12.0110 
    12   opls_811      1    UNK   C0B      1    -0.0802    12.0110 
    13   opls_812      1    UNK   C0C      1    -0.2427    12.0110 
    14   opls_813      1    UNK   C0D      1    -0.0406    12.0110 
    15   opls_814      1    UNK   C0E      1    -0.2431    12.0110 
    16   opls_815      1    UNK   C0F      1    -0.2338    12.0110 
    17   opls_816      1    UNK   C0G      1    -0.2289    12.0110 
    18   opls_817      1    UNK   H0H      1     0.0983     1.0080 
    19   opls_818      1    UNK   H0I      1     0.0983     1.0080 
    20   opls_819      1    UNK   H0J      1     0.0983     1.0080 
    21   opls_820      1    UNK   H0K      1     0.1316     1.0080 
    22   opls_821      1    UNK   H0M      1     0.1316     1.0080 
    23   opls_822      1    UNK   H0N      1      0.153     1.0080 
    24   opls_823      1    UNK   H0O      1     0.1513     1.0080 
    25   opls_824      1    UNK   H0P      1     0.1513     1.0080 
    26   opls_825      1    UNK   H0Q      1     0.1522     1.0080 
    27   opls_826      1    UNK   H0R      1      0.093     1.0080 
    28   opls_827      1    UNK   H0S      1     0.0882     1.0080 
    29   opls_828      1    UNK   H0T      1     0.0882     1.0080 
    30   opls_829      1    UNK   H0U      1     0.0882     1.0080 
    31   opls_830      1    UNK   H0V      1     0.0874     1.0080 
    32   opls_831      1    UNK   H0W      1     0.0874     1.0080 
    33   opls_832      1    UNK   H0X      2     0.0874     1.0080 
    34   opls_833      1    UNK   H0Y      2     0.0842     1.0080 
    35   opls_834      1    UNK   H0Z      2     0.0842     1.0080 
    36   opls_835      1    UNK   H10      2     0.0842     1.0080 
    37   opls_836      1    UNK   H11      2     0.0833     1.0080 
    38   opls_837      1    UNK   H12      2     0.0833     1.0080 
    39   opls_838      1    UNK   H13      2     0.0833     1.0080 
[ bonds ]
    2     1     1      0.1529 224262.400
    3     2     1      0.1522 265265.600
    4     3     1      0.1229 476976.000
    5     3     1      0.1327 179075.200
    6     5     1      0.1380 267776.000
    7     6     1      0.1380 267776.000
    8     7     1      0.1327 179075.200
    9     8     1      0.1229 476976.000
   10     8     1      0.1522 265265.600
   11     6     1      0.1529 224262.400
   12    11     1      0.1529 224262.400
   13    12     1      0.1529 224262.400
   14    12     1      0.1529 224262.400
   15    14     1      0.1529 224262.400
   16    14     1      0.1529 224262.400
   17    14     1      0.1529 224262.400
   18     1     1      0.1090 284512.000
   19     1     1      0.1090 284512.000
   20     1     1      0.1090 284512.000
   21     2     1      0.1090 284512.000
   22     2     1      0.1090 284512.000
   23     6     1      0.1090 284512.000
   24    10     1      0.1090 284512.000
   25    10     1      0.1090 284512.000
   26    11     1      0.1090 284512.000
   27    12     1      0.1090 284512.000
   28    13     1      0.1090 284512.000
   29    13     1      0.1090 284512.000
   30    13     1      0.1090 284512.000
   31    15     1      0.1090 284512.000
   32    15     1      0.1090 284512.000
   33    15     1      0.1090 284512.000
   34    16     1      0.1090 284512.000
   35    16     1      0.1090 284512.000
   36    16     1      0.1090 284512.000
   37    17     1      0.1090 284512.000
   38    17     1      0.1090 284512.000
   39    17     1      0.1090 284512.000
   11    10     1      0.1529 224262.400

[ angles ]
;  ai    aj    ak funct            c0            c1            c2            c3 
    1     2     3     1    111.100    527.184
    2     3     4     1    120.400    669.440
    2     3     5     1    111.400    677.808
    3     5     6     1    116.900    694.544
    5     6     7     1    111.550    774.877
    6     7     8     1    116.900    694.544
    7     8     9     1    123.400    694.544
    7     8    10     1    111.400    677.808
    5     6    11     1    109.500    418.400
    6    11    12     1    112.700    488.273
   11    12    13     1    112.700    488.273
   11    12    14     1    112.700    488.273
   12    14    15     1    112.700    488.273
   12    14    16     1    112.700    488.273
   12    14    17     1    112.700    488.273
    2     1    18     1    110.700    313.800
    2     1    19     1    110.700    313.800
    2     1    20     1    110.700    313.800
    1     2    21     1    110.700    313.800
    1     2    22     1    110.700    313.800
    5     6    23     1    109.500    292.880
    8    10    24     1    109.500    292.880
    8    10    25     1    109.500    292.880
    6    11    26     1    110.700    313.800
   11    12    27     1    110.700    313.800
   12    13    28     1    110.700    313.800
   12    13    29     1    110.700    313.800
   12    13    30     1    110.700    313.800
   14    15    31     1    110.700    313.800
   14    15    32     1    110.700    313.800
   14    15    33     1    110.700    313.800
   14    16    34     1    110.700    313.800
   14    16    35     1    110.700    313.800
   14    16    36     1    110.700    313.800
   14    17    37     1    110.700    313.800
   14    17    38     1    110.700    313.800
   14    17    39     1    110.700    313.800
   28    13    30     1    107.800    276.144
   37    17    39     1    107.800    276.144
   16    14    17     1    112.700    488.273
   13    12    14     1    112.700    488.273
   19     1    20     1    107.800    276.144
   15    14    16     1    112.700    488.273
   32    15    33     1    107.800    276.144
   11     6    23     1    110.700    313.800
    7     6    23     1    109.500    292.880
    6    11    10     1    112.700    488.273
    3     2    22     1    109.500    292.880
    4     3     5     1    123.400    694.544
   31    15    33     1    107.800    276.144
    7     6    11     1    109.500    418.400
   35    16    36     1    107.800    276.144
   10    11    26     1    110.700    313.800
   18     1    19     1    107.800    276.144
    8    10    11     1    111.100    527.184
   24    10    25     1    107.800    276.144
   38    17    39     1    107.800    276.144
   10    11    12     1    112.700    488.273
   11    10    25     1    110.700    313.800
   29    13    30     1    107.800    276.144
   21     2    22     1    107.800    276.144
   28    13    29     1    107.800    276.144
   18     1    20     1    107.800    276.144
   14    12    27     1    110.700    313.800
   34    16    36     1    107.800    276.144
   15    14    17     1    112.700    488.273
   12    11    26     1    110.700    313.800
    3     2    21     1    109.500    292.880
   37    17    38     1    107.800    276.144
    9     8    10     1    120.400    669.440
   31    15    32     1    107.800    276.144
   13    12    27     1    110.700    313.800
   34    16    35     1    107.800    276.144
   11    10    24     1    110.700    313.800

[ dihedrals ]
; IMPROPER DIHEDRAL ANGLES 
;  ai    aj    ak    al funct            c0            c1            c2            c3            c4            c5
    10     8     7     9    4        180.000     43.932     2  
     5     3     2     4    4        180.000     43.932     2  

[ dihedrals ]
; PROPER DIHEDRAL ANGLES
;  ai    aj    ak    al funct            c0            c1            c2            c3            c4            c5
    8   10   11    6        3       2.301  -1.464   0.837  -1.674  -0.000   0.000
    8    7    6    5        3      -6.458   0.810   5.682  -0.033  -0.000   0.000
    6    5    3    2        3      31.206  -9.768  -21.439  -0.000  -0.000   0.000
    6    5    3    4        3      21.439   0.000  -21.439  -0.000  -0.000   0.000
   10    8    7    6        3      31.206  -9.768  -21.439  -0.000  -0.000   0.000
   11    6    7    8        3       1.715   2.845   1.046  -5.607  -0.000   0.000
   11    6    5    3        3       1.715   2.845   1.046  -5.607  -0.000   0.000
   11   10    8    9        3       0.000   0.000   0.000  -0.000  -0.000   0.000
   11   10    8    7        3      -1.157  -3.471   0.000   4.628  -0.000   0.000
   10   11    6    7        3       2.874   0.582   2.092  -5.548  -0.000   0.000
   10   11    6    5        3       2.874   0.582   2.092  -5.548  -0.000   0.000
   12   11    6    7        3       2.874   0.582   2.092  -5.548  -0.000   0.000
   12   11    6    5        3       2.874   0.582   2.092  -5.548  -0.000   0.000
   12   11   10    8        3      -4.960   6.286   1.310  -2.636  -0.000   0.000
   13   12   11    6        3       2.301  -1.464   0.837  -1.674  -0.000   0.000
   14   12   11    6        3       2.301  -1.464   0.837  -1.674  -0.000   0.000
   13   12   11   10        3       2.301  -1.464   0.837  -1.674  -0.000   0.000
   17   14   12   11        3       2.301  -1.464   0.837  -1.674  -0.000   0.000
   15   14   12   13        3       2.301  -1.464   0.837  -1.674  -0.000   0.000
   17   14   12   13        3       2.301  -1.464   0.837  -1.674  -0.000   0.000
   16   14   12   13        3       2.301  -1.464   0.837  -1.674  -0.000   0.000
   15   14   12   11        3       2.301  -1.464   0.837  -1.674  -0.000   0.000
   16   14   12   11        3       2.301  -1.464   0.837  -1.674  -0.000   0.000
   14   12   11   10        3       2.301  -1.464   0.837  -1.674  -0.000   0.000
   23    6   11   10        3       0.628   1.883   0.000  -2.510  -0.000   0.000
   23    6   11   12        3       0.628   1.883   0.000  -2.510  -0.000   0.000
   23    6    5    3        3       1.590   4.770   0.000  -6.360  -0.000   0.000
   23    6    7    8        3       1.590   4.770   0.000  -6.360  -0.000   0.000
   22    2    3    4        3       0.000   0.000   0.000  -0.000  -0.000   0.000
   25   10    8    9        3       0.000   0.000   0.000  -0.000  -0.000   0.000
   24   10    8    9        3       0.000   0.000   0.000  -0.000  -0.000   0.000
   21    2    3    4        3       0.000   0.000   0.000  -0.000  -0.000   0.000
   24   10    8    7        3       0.276   0.828   0.000  -1.105  -0.000   0.000
   25   10    8    7        3       0.276   0.828   0.000  -1.105  -0.000   0.000
   21    2    3    5        3       0.276   0.828   0.000  -1.105  -0.000   0.000
   22    2    3    5        3       0.276   0.828   0.000  -1.105  -0.000   0.000
   26   11    6   23        3       0.628   1.883   0.000  -2.510  -0.000   0.000
   26   11    6    7        3       0.979   2.937   0.000  -3.916  -0.000   0.000
   26   11    6    5        3       0.979   2.937   0.000  -3.916  -0.000   0.000
   20    1    2    3        3      -0.209  -0.628   0.000   0.837  -0.000   0.000
   18    1    2    3        3      -0.209  -0.628   0.000   0.837  -0.000   0.000
   26   11   10    8        3      -0.209  -0.628   0.000   0.837  -0.000   0.000
   19    1    2    3        3      -0.209  -0.628   0.000   0.837  -0.000   0.000
   27   12   11    6        3       0.628   1.883   0.000  -2.510  -0.000   0.000
   24   10   11    6        3       0.628   1.883   0.000  -2.510  -0.000   0.000
   25   10   11    6        3       0.628   1.883   0.000  -2.510  -0.000   0.000
   36   16   14   15        3       0.628   1.883   0.000  -2.510  -0.000   0.000
   26   11   12   14        3       0.628   1.883   0.000  -2.510  -0.000   0.000
   38   17   14   12        3       0.628   1.883   0.000  -2.510  -0.000   0.000
   35   16   14   15        3       0.628   1.883   0.000  -2.510  -0.000   0.000
   28   13   12   14        3       0.628   1.883   0.000  -2.510  -0.000   0.000
   31   15   14   16        3       0.628   1.883   0.000  -2.510  -0.000   0.000
   35   16   14   12        3       0.628   1.883   0.000  -2.510  -0.000   0.000
   27   12   14   15        3       0.628   1.883   0.000  -2.510  -0.000   0.000
   27   12   14   17        3       0.628   1.883   0.000  -2.510  -0.000   0.000
   34   16   14   15        3       0.628   1.883   0.000  -2.510  -0.000   0.000
   32   15   14   12        3       0.628   1.883   0.000  -2.510  -0.000   0.000
   39   17   14   16        3       0.628   1.883   0.000  -2.510  -0.000   0.000
   39   17   14   12        3       0.628   1.883   0.000  -2.510  -0.000   0.000
   34   16   14   17        3       0.628   1.883   0.000  -2.510  -0.000   0.000
   27   12   11   10        3       0.628   1.883   0.000  -2.510  -0.000   0.000
   30   13   12   11        3       0.628   1.883   0.000  -2.510  -0.000   0.000
   30   13   12   14        3       0.628   1.883   0.000  -2.510  -0.000   0.000
   29   13   12   11        3       0.628   1.883   0.000  -2.510  -0.000   0.000
   37   17   14   12        3       0.628   1.883   0.000  -2.510  -0.000   0.000
   31   15   14   17        3       0.628   1.883   0.000  -2.510  -0.000   0.000
   32   15   14   16        3       0.628   1.883   0.000  -2.510  -0.000   0.000
   29   13   12   14        3       0.628   1.883   0.000  -2.510  -0.000   0.000
   38   17   14   16        3       0.628   1.883   0.000  -2.510  -0.000   0.000
   33   15   14   17        3       0.628   1.883   0.000  -2.510  -0.000   0.000
   39   17   14   15        3       0.628   1.883   0.000  -2.510  -0.000   0.000
   34   16   14   12        3       0.628   1.883   0.000  -2.510  -0.000   0.000
   35   16   14   17        3       0.628   1.883   0.000  -2.510  -0.000   0.000
   33   15   14   16        3       0.628   1.883   0.000  -2.510  -0.000   0.000
   32   15   14   17        3       0.628   1.883   0.000  -2.510  -0.000   0.000
   36   16   14   12        3       0.628   1.883   0.000  -2.510  -0.000   0.000
   25   10   11   12        3       0.628   1.883   0.000  -2.510  -0.000   0.000
   24   10   11   12        3       0.628   1.883   0.000  -2.510  -0.000   0.000
   33   15   14   12        3       0.628   1.883   0.000  -2.510  -0.000   0.000
   26   11   12   13        3       0.628   1.883   0.000  -2.510  -0.000   0.000
   27   12   14   16        3       0.628   1.883   0.000  -2.510  -0.000   0.000
   28   13   12   11        3       0.628   1.883   0.000  -2.510  -0.000   0.000
   36   16   14   17        3       0.628   1.883   0.000  -2.510  -0.000   0.000
   37   17   14   15        3       0.628   1.883   0.000  -2.510  -0.000   0.000
   37   17   14   16        3       0.628   1.883   0.000  -2.510  -0.000   0.000
   31   15   14   12        3       0.628   1.883   0.000  -2.510  -0.000   0.000
   38   17   14   15        3       0.628   1.883   0.000  -2.510  -0.000   0.000
   27   12   11   26        3       0.628   1.883   0.000  -2.510  -0.000   0.000
   21    2    1   19        3       0.628   1.883   0.000  -2.510  -0.000   0.000
   22    2    1   18        3       0.628   1.883   0.000  -2.510  -0.000   0.000
   26   11   10   24        3       0.628   1.883   0.000  -2.510  -0.000   0.000
   26   11   10   25        3       0.628   1.883   0.000  -2.510  -0.000   0.000
   22    2    1   20        3       0.628   1.883   0.000  -2.510  -0.000   0.000
   29   13   12   27        3       0.628   1.883   0.000  -2.510  -0.000   0.000
   28   13   12   27        3       0.628   1.883   0.000  -2.510  -0.000   0.000
   21    2    1   20        3       0.628   1.883   0.000  -2.510  -0.000   0.000
   22    2    1   19        3       0.628   1.883   0.000  -2.510  -0.000   0.000
   30   13   12   27        3       0.628   1.883   0.000  -2.510  -0.000   0.000
   21    2    1   18        3       0.628   1.883   0.000  -2.510  -0.000   0.000
    4    3    2    1        3       0.000   0.000   0.000  -0.000  -0.000   0.000
    9    8    7    6        3      21.439   0.000  -21.439  -0.000  -0.000   0.000
    5    3    2    1        3      -1.157  -3.471   0.000   4.628  -0.000   0.000
    7    6    5    3        3      -6.458   0.810   5.682  -0.033  -0.000   0.000

[ pairs ]
     1     4    1
     1     5    1
     2     6    1
     4     6    1
     3     7    1
     5     8    1
     3    11    1
     6     9    1
     5    10    1
     5    12    1
     7    12    1
     6    13    1
     9    11    1
     8    12    1
     6    14    1
     3    18    1
     3    19    1
    10    13    1
     3    20    1
    10    14    1
     4    21    1
    11    15    1
     5    21    1
     4    22    1
     3    23    1
    11    16    1
     5    22    1
    13    15    1
    11    17    1
    13    16    1
    13    17    1
     6    24    1
     8    23    1
     7    24    1
     6    25    1
     5    26    1
     7    25    1
    10    23    1
     9    24    1
     7    26    1
     6    27    1
     9    25    1
     8    26    1
    12    23    1
    12    24    1
    12    25    1
    10    27    1
    18    21    1
    13    26    1
    11    28    1
    19    21    1
    18    22    1
    14    26    1
    11    29    1
    20    21    1
    19    22    1
    11    30    1
    20    22    1
    15    27    1
    14    28    1
    16    27    1
    14    29    1
    12    31    1
    17    27    1
    14    30    1
    12    32    1
    12    33    1
    12    34    1
    16    31    1
    12    35    1
    17    31    1
    16    32    1
    12    36    1
    23    26    1
    17    32    1
    16    33    1
    15    34    1
    12    37    1
    24    26    1
    17    33    1
    15    35    1
    12    38    1
    25    26    1
    17    34    1
    15    36    1
    12    39    1
    17    35    1
    15    37    1
    26    27    1
    17    36    1
    16    37    1
    15    38    1
    16    38    1
    15    39    1
    27    28    1
    16    39    1
    27    29    1
    27    30    1

