
;
; GENERATED BY LigParGen Server
; Jorgensen Lab @ Yale University 
;
[ atomtypes ]
  opls_818  H818     1.0080     0.000    A    2.50000E-01   1.25520E-01
  opls_824  H824     1.0080     0.000    A    2.50000E-01   1.25520E-01
  opls_805  C805    12.0110     0.000    A    3.50000E-01   2.76144E-01
  opls_834  H834     1.0080     0.000    A    2.50000E-01   1.25520E-01
  opls_828  H828     1.0080     0.000    A    2.50000E-01   1.25520E-01
  opls_814  C814    12.0110     0.000    A    3.55000E-01   2.92880E-01
  opls_812  C812    12.0110     0.000    A    3.50000E-01   2.76144E-01
  opls_811  C811    12.0110     0.000    A    3.50000E-01   2.76144E-01
  opls_827  H827     1.0080     0.000    A    2.50000E-01   1.25520E-01
  opls_809  C809    12.0110     0.000    A    3.50000E-01   2.76144E-01
  opls_822  H822     1.0080     0.000    A    2.50000E-01   1.25520E-01
  opls_803  C803    12.0110     0.000    A    3.50000E-01   2.76144E-01
  opls_825  H825     1.0080     0.000    A    2.50000E-01   1.25520E-01
  opls_830  H830     1.0080     0.000    A    2.50000E-01   1.25520E-01
  opls_821  H821     1.0080     0.000    A    2.50000E-01   1.25520E-01
  opls_820  H820     1.0080     0.000    A    2.50000E-01   1.25520E-01
  opls_829  H829     1.0080     0.000    A    2.50000E-01   1.25520E-01
  opls_831  H831     1.0080     0.000    A    2.50000E-01   1.25520E-01
  opls_804  C804    12.0110     0.000    A    3.55000E-01   2.92880E-01
  opls_832  H832     1.0080     0.000    A    2.50000E-01   1.25520E-01
  opls_800  C800    12.0110     0.000    A    3.50000E-01   2.76144E-01
  opls_802  C802    12.0110     0.000    A    3.50000E-01   2.76144E-01
  opls_823  H823     1.0080     0.000    A    2.50000E-01   1.25520E-01
  opls_813  O813    15.9990     0.000    A    2.90000E-01   5.85760E-01
  opls_808  O808    15.9990     0.000    A    2.90000E-01   5.85760E-01
  opls_826  H826     1.0080     0.000    A    2.50000E-01   1.25520E-01
  opls_819  H819     1.0080     0.000    A    2.50000E-01   1.25520E-01
  opls_810  C810    12.0110     0.000    A    3.50000E-01   2.76144E-01
  opls_833  H833     1.0080     0.000    A    2.50000E-01   1.25520E-01
  opls_801  C801    12.0110     0.000    A    3.50000E-01   2.76144E-01
  opls_806  O806    15.9990     0.000    A    2.96000E-01   8.78640E-01
  opls_817  H817     1.0080     0.000    A    2.50000E-01   1.25520E-01
  opls_815  O815    15.9990     0.000    A    2.96000E-01   8.78640E-01
  opls_816  O816    15.9990     0.000    A    2.90000E-01   5.85760E-01
  opls_807  C807    12.0110     0.000    A    3.50000E-01   2.76144E-01
[ moleculetype ]
; Name               nrexcl
UNK                   3
[ atoms ]
;   nr       type  resnr residue  atom   cgnr     charge       mass  
     1   opls_800      1    UNK   C00      1    -0.2407    12.0110 
     2   opls_801      1    UNK   C01      1    -0.1829    12.0110 
     3   opls_802      1    UNK   C02      1    -0.1633    12.0110 
     4   opls_803      1    UNK   C03      1    -0.1127    12.0110 
     5   opls_804      1    UNK   C04      1     0.3902    12.0110 
     6   opls_805      1    UNK   C05      1    -0.2795    12.0110 
     7   opls_806      1    UNK   O06      1    -0.4544    15.9990 
     8   opls_807      1    UNK   C07      1    -0.0023    12.0110 
     9   opls_808      1    UNK   O08      1    -0.3578    15.9990 
    10   opls_809      1    UNK   C09      1    -0.0338    12.0110 
    11   opls_810      1    UNK   C0A      1     0.1617    12.0110 
    12   opls_811      1    UNK   C0B      1    -0.2565    12.0110 
    13   opls_812      1    UNK   C0C      1     0.0299    12.0110 
    14   opls_813      1    UNK   O0D      1    -0.3786    15.9990 
    15   opls_814      1    UNK   C0E      1     0.6217    12.0110 
    16   opls_815      1    UNK   O0F      1    -0.3745    15.9990 
    17   opls_816      1    UNK   O0G      1    -0.4035    15.9990 
    18   opls_817      1    UNK   H0H      1     0.0875     1.0080 
    19   opls_818      1    UNK   H0I      1     0.0875     1.0080 
    20   opls_819      1    UNK   H0J      1     0.0875     1.0080 
    21   opls_820      1    UNK   H0K      1     0.0843     1.0080 
    22   opls_821      1    UNK   H0M      1     0.0843     1.0080 
    23   opls_822      1    UNK   H0N      1     0.1173     1.0080 
    24   opls_823      1    UNK   H0O      1     0.1173     1.0080 
    25   opls_824      1    UNK   H0P      1     0.1261     1.0080 
    26   opls_825      1    UNK   H0Q      1     0.1261     1.0080 
    27   opls_826      1    UNK   H0R      1     0.1261     1.0080 
    28   opls_827      1    UNK   H0S      1     0.1171     1.0080 
    29   opls_828      1    UNK   H0T      1     0.1171     1.0080 
    30   opls_829      1    UNK   H0U      1     0.1222     1.0080 
    31   opls_830      1    UNK   H0V      1     0.1222     1.0080 
    32   opls_831      1    UNK   H0W      1      0.138     1.0080 
    33   opls_832      1    UNK   H0X      2      0.138     1.0080 
    34   opls_833      1    UNK   H0Y      2     0.1193     1.0080 
    35   opls_834      1    UNK   H0Z      2     0.1193     1.0080 
[ bonds ]
    2     1     1      0.1529 224262.400
    3     2     1      0.1529 224262.400
    4     3     1      0.1529 224262.400
    5     4     1      0.1522 265265.600
    6     5     1      0.1522 265265.600
    7     5     1      0.1229 476976.000
    8     4     1      0.1529 224262.400
    9     8     1      0.1410 267776.000
   10     9     1      0.1410 267776.000
   11     4     1      0.1529 224262.400
   12    11     1      0.1529 224262.400
   13    12     1      0.1529 224262.400
   14    13     1      0.1410 267776.000
   15    14     1      0.1327 179075.200
   16    15     1      0.1229 476976.000
   17    11     1      0.1410 267776.000
   18     1     1      0.1090 284512.000
   19     1     1      0.1090 284512.000
   20     1     1      0.1090 284512.000
   21     2     1      0.1090 284512.000
   22     2     1      0.1090 284512.000
   23     3     1      0.1090 284512.000
   24     3     1      0.1090 284512.000
   25     6     1      0.1090 284512.000
   26     6     1      0.1090 284512.000
   27     6     1      0.1090 284512.000
   28     8     1      0.1090 284512.000
   29     8     1      0.1090 284512.000
   30    10     1      0.1090 284512.000
   31    10     1      0.1090 284512.000
   32    12     1      0.1090 284512.000
   33    12     1      0.1090 284512.000
   34    13     1      0.1090 284512.000
   35    13     1      0.1090 284512.000
   11    10     1      0.1529 224262.400
   17    15     1      0.1327 179075.200

[ angles ]
;  ai    aj    ak funct            c0            c1            c2            c3 
    1     2     3     1    112.700    488.273
    2     3     4     1    112.700    488.273
    3     4     5     1    111.100    527.184
    4     5     6     1    116.000    585.760
    4     5     7     1    120.400    669.440
    3     4     8     1    112.700    488.273
    4     8     9     1    109.500    418.400
    8     9    10     1    109.500    502.080
    3     4    11     1    112.700    488.273
    4    11    12     1    112.700    488.273
   11    12    13     1    112.700    488.273
   12    13    14     1    109.500    418.400
   13    14    15     1    116.900    694.544
   14    15    16     1    123.400    694.544
    4    11    17     1    109.500    418.400
    2     1    18     1    110.700    313.800
    2     1    19     1    110.700    313.800
    2     1    20     1    110.700    313.800
    1     2    21     1    110.700    313.800
    1     2    22     1    110.700    313.800
    2     3    23     1    110.700    313.800
    2     3    24     1    110.700    313.800
    5     6    25     1    109.500    292.880
    5     6    26     1    109.500    292.880
    5     6    27     1    109.500    292.880
    4     8    28     1    110.700    313.800
    4     8    29     1    110.700    313.800
    9    10    30     1    109.500    292.880
    9    10    31     1    109.500    292.880
   11    12    32     1    110.700    313.800
   11    12    33     1    110.700    313.800
   12    13    34     1    110.700    313.800
   12    13    35     1    110.700    313.800
    9     8    28     1    109.500    292.880
   13    12    33     1    110.700    313.800
    3     2    21     1    110.700    313.800
    5     4    11     1    111.100    527.184
   30    10    31     1    107.800    276.144
   14    13    35     1    109.500    292.880
   11    17    15     1    116.900    694.544
   32    12    33     1    107.800    276.144
   34    13    35     1    107.800    276.144
   28     8    29     1    107.800    276.144
   10    11    17     1    109.500    418.400
    9     8    29     1    109.500    292.880
    4     3    23     1    110.700    313.800
    3     2    22     1    110.700    313.800
   14    13    34     1    109.500    292.880
   23     3    24     1    107.800    276.144
   14    15    17     1    118.180    584.923
    5     4     8     1    111.100    527.184
   18     1    19     1    107.800    276.144
    6     5     7     1    120.400    669.440
   10    11    12     1    112.700    488.273
    4     3    24     1    110.700    313.800
   16    15    17     1    123.400    694.544
   11    10    31     1    110.700    313.800
   25     6    26     1    107.800    276.144
   18     1    20     1    107.800    276.144
   26     6    27     1    107.800    276.144
    9    10    11     1    109.500    418.400
   12    11    17     1    109.500    418.400
   13    12    32     1    110.700    313.800
    8     4    11     1    112.700    488.273
    4    11    10     1    112.700    488.273
   19     1    20     1    107.800    276.144
   25     6    27     1    107.800    276.144
   21     2    22     1    107.800    276.144
   11    10    30     1    110.700    313.800

[ dihedrals ]
; IMPROPER DIHEDRAL ANGLES 
;  ai    aj    ak    al funct            c0            c1            c2            c3            c4            c5
     7     5     4     6    4        180.000     43.932     2  
    16    15    17    14    4        180.000     43.932     2  

[ dihedrals ]
; PROPER DIHEDRAL ANGLES
;  ai    aj    ak    al funct            c0            c1            c2            c3            c4            c5
    5    4    3    2        3      -4.960   6.286   1.310  -2.636  -0.000   0.000
   15   17   11   10        3      -2.197   5.201   0.527  -3.531  -0.000   0.000
   15   17   11    4        3      -2.197   5.201   0.527  -3.531  -0.000   0.000
   15   14   13   12        3      -2.197   5.201   0.527  -3.531  -0.000   0.000
   15   17   11   12        3      -2.197   5.201   0.527  -3.531  -0.000   0.000
    6    5    4    3        3       0.818  -7.906   0.602   6.485  -0.000   0.000
   11    4    5    6        3       0.818  -7.906   0.602   6.485  -0.000   0.000
    8    4    5    6        3       0.818  -7.906   0.602   6.485  -0.000   0.000
   11    4    5    7        3       0.000   0.000   0.000  -0.000  -0.000   0.000
    8    4    5    7        3       0.000   0.000   0.000  -0.000  -0.000   0.000
   10   11    4    5        3      -4.960   6.286   1.310  -2.636  -0.000   0.000
   12   11    4    5        3      -4.960   6.286   1.310  -2.636  -0.000   0.000
    4    3    2    1        3       2.301  -1.464   0.837  -1.674  -0.000   0.000
   12   11    4    3        3       2.301  -1.464   0.837  -1.674  -0.000   0.000
    8    4    3    2        3       2.301  -1.464   0.837  -1.674  -0.000   0.000
   10   11    4    3        3       2.301  -1.464   0.837  -1.674  -0.000   0.000
   13   12   11   10        3       2.301  -1.464   0.837  -1.674  -0.000   0.000
   11    4    3    2        3       2.301  -1.464   0.837  -1.674  -0.000   0.000
   10   11    4    8        3       2.301  -1.464   0.837  -1.674  -0.000   0.000
   12   11    4    8        3       2.301  -1.464   0.837  -1.674  -0.000   0.000
   13   12   11    4        3       2.301  -1.464   0.837  -1.674  -0.000   0.000
   11    4    8    9        3       2.874   0.582   2.092  -5.548  -0.000   0.000
   12   11   10    9        3       2.874   0.582   2.092  -5.548  -0.000   0.000
   11   10    9    8        3       1.715   2.845   1.046  -5.607  -0.000   0.000
   10    9    8    4        3       1.715   2.845   1.046  -5.607  -0.000   0.000
   26    6    5    4        3       0.575   1.726   0.000  -2.301  -0.000   0.000
   25    6    5    4        3       0.575   1.726   0.000  -2.301  -0.000   0.000
   27    6    5    4        3       0.575   1.726   0.000  -2.301  -0.000   0.000
   27    6    5    7        3       0.000   0.000   0.000  -0.000  -0.000   0.000
   25    6    5    7        3       0.000   0.000   0.000  -0.000  -0.000   0.000
   26    6    5    7        3       0.000   0.000   0.000  -0.000  -0.000   0.000
   24    3    4    5        3      -0.209  -0.628   0.000   0.837  -0.000   0.000
   29    8    4    5        3      -0.209  -0.628   0.000   0.837  -0.000   0.000
   28    8    4    5        3      -0.209  -0.628   0.000   0.837  -0.000   0.000
   23    3    4    5        3      -0.209  -0.628   0.000   0.837  -0.000   0.000
   18    1    2    3        3       0.628   1.883   0.000  -2.510  -0.000   0.000
   31   10   11    4        3       0.628   1.883   0.000  -2.510  -0.000   0.000
   32   12   11    4        3       0.628   1.883   0.000  -2.510  -0.000   0.000
   33   12   11    4        3       0.628   1.883   0.000  -2.510  -0.000   0.000
   22    2    3    4        3       0.628   1.883   0.000  -2.510  -0.000   0.000
   23    3    4   11        3       0.628   1.883   0.000  -2.510  -0.000   0.000
   34   13   12   11        3       0.628   1.883   0.000  -2.510  -0.000   0.000
   23    3    4    8        3       0.628   1.883   0.000  -2.510  -0.000   0.000
   28    8    4    3        3       0.628   1.883   0.000  -2.510  -0.000   0.000
   23    3    2    1        3       0.628   1.883   0.000  -2.510  -0.000   0.000
   33   12   11   10        3       0.628   1.883   0.000  -2.510  -0.000   0.000
   32   12   11   10        3       0.628   1.883   0.000  -2.510  -0.000   0.000
   20    1    2    3        3       0.628   1.883   0.000  -2.510  -0.000   0.000
   29    8    4   11        3       0.628   1.883   0.000  -2.510  -0.000   0.000
   35   13   12   11        3       0.628   1.883   0.000  -2.510  -0.000   0.000
   24    3    4    8        3       0.628   1.883   0.000  -2.510  -0.000   0.000
   24    3    2    1        3       0.628   1.883   0.000  -2.510  -0.000   0.000
   28    8    4   11        3       0.628   1.883   0.000  -2.510  -0.000   0.000
   24    3    4   11        3       0.628   1.883   0.000  -2.510  -0.000   0.000
   31   10   11   12        3       0.628   1.883   0.000  -2.510  -0.000   0.000
   19    1    2    3        3       0.628   1.883   0.000  -2.510  -0.000   0.000
   30   10   11    4        3       0.628   1.883   0.000  -2.510  -0.000   0.000
   21    2    3    4        3       0.628   1.883   0.000  -2.510  -0.000   0.000
   29    8    4    3        3       0.628   1.883   0.000  -2.510  -0.000   0.000
   30   10   11   12        3       0.628   1.883   0.000  -2.510  -0.000   0.000
   34   13   12   32        3       0.628   1.883   0.000  -2.510  -0.000   0.000
   21    2    1   19        3       0.628   1.883   0.000  -2.510  -0.000   0.000
   22    2    1   18        3       0.628   1.883   0.000  -2.510  -0.000   0.000
   22    2    1   19        3       0.628   1.883   0.000  -2.510  -0.000   0.000
   35   13   12   32        3       0.628   1.883   0.000  -2.510  -0.000   0.000
   23    3    2   22        3       0.628   1.883   0.000  -2.510  -0.000   0.000
   34   13   12   33        3       0.628   1.883   0.000  -2.510  -0.000   0.000
   22    2    1   20        3       0.628   1.883   0.000  -2.510  -0.000   0.000
   24    3    2   22        3       0.628   1.883   0.000  -2.510  -0.000   0.000
   23    3    2   21        3       0.628   1.883   0.000  -2.510  -0.000   0.000
   21    2    1   18        3       0.628   1.883   0.000  -2.510  -0.000   0.000
   35   13   12   33        3       0.628   1.883   0.000  -2.510  -0.000   0.000
   21    2    1   20        3       0.628   1.883   0.000  -2.510  -0.000   0.000
   24    3    2   21        3       0.628   1.883   0.000  -2.510  -0.000   0.000
   32   12   13   14        3       0.979   2.937   0.000  -3.916  -0.000   0.000
   33   12   13   14        3       0.979   2.937   0.000  -3.916  -0.000   0.000
   30   10   11   17        3       0.979   2.937   0.000  -3.916  -0.000   0.000
   32   12   11   17        3       0.979   2.937   0.000  -3.916  -0.000   0.000
   33   12   11   17        3       0.979   2.937   0.000  -3.916  -0.000   0.000
   31   10   11   17        3       0.979   2.937   0.000  -3.916  -0.000   0.000
   35   13   14   15        3       0.414   1.243   0.000  -1.657  -0.000   0.000
   34   13   14   15        3       0.414   1.243   0.000  -1.657  -0.000   0.000
   28    8    9   10        3       1.590   4.770   0.000  -6.360  -0.000   0.000
   30   10    9    8        3       1.590   4.770   0.000  -6.360  -0.000   0.000
   29    8    9   10        3       1.590   4.770   0.000  -6.360  -0.000   0.000
   31   10    9    8        3       1.590   4.770   0.000  -6.360  -0.000   0.000
    7    5    4    3        3       0.000   0.000   0.000  -0.000  -0.000   0.000
   16   15   14   13        3      21.439   0.000  -21.439  -0.000  -0.000   0.000
   16   15   17   11        3      21.439   0.000  -21.439  -0.000  -0.000   0.000
   17   15   14   13        3      31.206  -9.768  -21.439  -0.000  -0.000   0.000
   14   15   17   11        3      31.206  -9.768  -21.439  -0.000  -0.000   0.000
    9    8    4    5        3      -12.929  12.929   0.000  -0.000  -0.000   0.000
   17   11    4    5        3      -12.929  12.929   0.000  -0.000  -0.000   0.000
   17   11   12   13        3       2.874   0.582   2.092  -5.548  -0.000   0.000
   17   11    4    8        3       2.874   0.582   2.092  -5.548  -0.000   0.000
   14   13   12   11        3       2.874   0.582   2.092  -5.548  -0.000   0.000
    9    8    4    3        3       2.874   0.582   2.092  -5.548  -0.000   0.000
   17   11    4    3        3       2.874   0.582   2.092  -5.548  -0.000   0.000
    9   10   11    4        3       2.874   0.582   2.092  -5.548  -0.000   0.000
   17   11   10    9        3      -1.151   1.151   0.000  -0.000  -0.000   0.000

[ pairs ]
     1     4    1
     2     5    1
     3     6    1
     3     7    1
     2     8    1
     3     9    1
     3    10    1
     2    11    1
     6     8    1
     5     9    1
     7     8    1
     5    10    1
     3    12    1
     6    11    1
     5    12    1
     4    13    1
     7    11    1
     4    15    1
     8    12    1
     3    17    1
     9    12    1
     3    18    1
     5    17    1
     3    19    1
    10    13    1
     3    20    1
     1    23    1
    11    14    1
    10    15    1
     8    17    1
     4    21    1
     1    24    1
     9    17    1
     4    22    1
    12    15    1
    11    16    1
     5    23    1
    13    16    1
     5    24    1
     4    25    1
    13    17    1
     4    26    1
     8    23    1
     4    27    1
     3    28    1
     8    24    1
     7    25    1
     3    29    1
     7    26    1
     5    28    1
    11    23    1
     7    27    1
     5    29    1
     4    30    1
    11    24    1
     4    31    1
     4    32    1
     4    33    1
    10    28    1
     8    30    1
    18    21    1
    11    28    1
    10    29    1
     8    31    1
    19    21    1
    18    22    1
    11    29    1
    20    21    1
    19    22    1
    20    22    1
    12    30    1
    10    32    1
    12    31    1
    10    33    1
    21    23    1
    22    23    1
    21    24    1
    11    34    1
    22    24    1
    14    32    1
    11    35    1
    17    30    1
    14    33    1
    17    31    1
    17    32    1
    15    34    1
    17    33    1
    15    35    1
    32    34    1
    33    34    1
    32    35    1
    33    35    1

