LIGPARGEN GENERATED GRO FILE
   35
    1UNK    C00    1   0.100   0.100   0.000
    1UNK    C01    2  -0.052   0.100   0.000
    1UNK    C02    3  -0.111   0.100   0.142
    1UNK    C03    4  -0.267   0.100   0.161
    1UNK    C04    5  -0.294   0.118   0.314
    1UNK    C05    6  -0.434   0.141   0.367
    1UNK    O06    7  -0.200   0.120   0.395
    1UNK    C07    8  -0.329   0.223   0.095
    1UNK    O08    9  -0.459   0.183   0.049
    1UNK    C09   10  -0.446   0.048   0.005
    1UNK    C0A   11  -0.348  -0.021   0.101
    1UNK    C0B   12  -0.270  -0.133   0.034
    1UNK    C0C   13  -0.362  -0.245  -0.007
    1UNK    O0D   14  -0.458  -0.281   0.092
    1UNK    C0E   15  -0.490  -0.202   0.197
    1UNK    O0F   16  -0.573  -0.236   0.280
    1UNK    O0G   17  -0.423  -0.085   0.208
    1UNK    H0H   18   0.136   0.081  -0.102
    1UNK    H0I   19   0.140   0.021   0.064
    1UNK    H0J   20   0.140   0.196   0.033
    1UNK    H0K   21  -0.079   0.011  -0.055
    1UNK    H0M   22  -0.088   0.185  -0.058
    1UNK    H0N   23  -0.071   0.190   0.192
    1UNK    H0O   24  -0.069   0.015   0.197
    1UNK    H0P   25  -0.511   0.121   0.292
    1UNK    H0Q   26  -0.444   0.245   0.398
    1UNK    H0R   27  -0.451   0.075   0.452
    1UNK    H0S   28  -0.274   0.258   0.007
    1UNK    H0T   29  -0.340   0.309   0.162
    1UNK    H0U   30  -0.406   0.051  -0.097
    1UNK    H0V   31  -0.545   0.003   0.004
    1UNK    H0W   32  -0.195  -0.173   0.103
    1UNK    H0X   33  -0.222  -0.101  -0.058
    1UNK    H0Y   34  -0.303  -0.334  -0.031
    1UNK    H0Z   35  -0.417  -0.218  -0.098
   1.00000   1.00000   1.00000

