
;
; GENERATED BY LigParGen Server
; Jorgensen Lab @ Yale University 
;
[ atomtypes ]
  opls_818  H818     1.0080     0.000    A    2.50000E-01   1.25520E-01
  opls_824  H824     1.0080     0.000    A    2.50000E-01   1.25520E-01
  opls_807  S807    32.0600     0.000    A    3.55000E-01   1.04600E+00
  opls_805  C805    12.0110     0.000    A    3.50000E-01   2.76144E-01
  opls_806  N806    14.0070     0.000    A    3.25000E-01   7.11280E-01
  opls_808  O808    15.9990     0.000    A    2.96000E-01   7.11280E-01
  opls_810  C810    12.0110     0.000    A    3.50000E-01   2.76144E-01
  opls_828  H828     1.0080     0.000    A    2.50000E-01   1.25520E-01
  opls_814  C814    12.0110     0.000    A    3.55000E-01   2.92880E-01
  opls_802  C802    12.0110     0.000    A    3.50000E-01   2.76144E-01
  opls_827  H827     1.0080     0.000    A    2.50000E-01   1.25520E-01
  opls_801  C801    12.0110     0.000    A    3.50000E-01   2.76144E-01
  opls_822  H822     1.0080     0.000    A    2.50000E-01   1.25520E-01
  opls_803  C803    12.0110     0.000    A    3.50000E-01   2.76144E-01
  opls_825  H825     1.0080     0.000    A    2.50000E-01   1.25520E-01
  opls_830  H830     1.0080     0.000    A    2.50000E-01   1.25520E-01
  opls_821  H821     1.0080     0.000    A    2.50000E-01   1.25520E-01
  opls_820  H820     1.0080     0.000    A    2.50000E-01   1.25520E-01
  opls_829  H829     1.0080     0.000    A    2.50000E-01   1.25520E-01
  opls_831  H831     1.0080     0.000    A    2.50000E-01   1.25520E-01
  opls_800  C800    12.0110     0.000    A    3.50000E-01   2.76144E-01
  opls_811  C811    12.0110     0.000    A    3.50000E-01   2.76144E-01
  opls_823  H823     1.0080     0.000    A    2.50000E-01   1.25520E-01
  opls_813  O813    15.9990     0.000    A    2.90000E-01   5.85760E-01
  opls_816  O816    15.9990     0.000    A    2.90000E-01   5.85760E-01
  opls_826  H826     1.0080     0.000    A    2.50000E-01   1.25520E-01
  opls_819  H819     1.0080     0.000    A    2.50000E-01   1.25520E-01
  opls_804  C804    12.0110     0.000    A    3.50000E-01   2.76144E-01
  opls_812  C812    12.0110     0.000    A    3.50000E-01   2.76144E-01
  opls_809  O809    15.9990     0.000    A    2.96000E-01   7.11280E-01
  opls_815  O815    15.9990     0.000    A    2.96000E-01   8.78640E-01
  opls_817  H817     1.0080     0.000    A    2.50000E-01   1.25520E-01
[ moleculetype ]
; Name               nrexcl
UNK                   3
[ atoms ]
;   nr       type  resnr residue  atom   cgnr     charge       mass  
     1   opls_800      1    UNK   C00      1    -0.2304    12.0110 
     2   opls_801      1    UNK   C01      1    -0.1883    12.0110 
     3   opls_802      1    UNK   C02      1      0.334    12.0110 
     4   opls_803      1    UNK   C03      1     -0.171    12.0110 
     5   opls_804      1    UNK   C04      1    -0.1736    12.0110 
     6   opls_805      1    UNK   C05      1     0.2954    12.0110 
     7   opls_806      1    UNK   N06      1    -1.3797    14.0070 
     8   opls_807      1    UNK   S07      1     1.5772    32.0600 
     9   opls_808      1    UNK   O08      1    -0.5202    15.9990 
    10   opls_809      1    UNK   O09      1    -0.5202    15.9990 
    11   opls_810      1    UNK   C0A      1    -0.5993    12.0110 
    12   opls_811      1    UNK   C0B      1     0.0994    12.0110 
    13   opls_812      1    UNK   C0C      1    -0.0158    12.0110 
    14   opls_813      1    UNK   O0D      1    -0.3197    15.9990 
    15   opls_814      1    UNK   C0E      1     0.5648    12.0110 
    16   opls_815      1    UNK   O0F      1    -0.3605    15.9990 
    17   opls_816      1    UNK   O0G      1    -0.3236    15.9990 
    18   opls_817      1    UNK   H0H      1     0.0869     1.0080 
    19   opls_818      1    UNK   H0I      1     0.0869     1.0080 
    20   opls_819      1    UNK   H0J      1     0.0869     1.0080 
    21   opls_820      1    UNK   H0K      1     0.1162     1.0080 
    22   opls_821      1    UNK   H0M      1     0.1162     1.0080 
    23   opls_822      1    UNK   H0N      1     0.1208     1.0080 
    24   opls_823      1    UNK   H0O      1     0.1205     1.0080 
    25   opls_824      1    UNK   H0P      1     0.1205     1.0080 
    26   opls_825      1    UNK   H0Q      1     0.1155     1.0080 
    27   opls_826      1    UNK   H0R      1     0.1155     1.0080 
    28   opls_827      1    UNK   H0S      1     0.1625     1.0080 
    29   opls_828      1    UNK   H0T      1     0.1992     1.0080 
    30   opls_829      1    UNK   H0U      1     0.1992     1.0080 
    31   opls_830      1    UNK   H0V      1     0.1422     1.0080 
    32   opls_831      1    UNK   H0W      1     0.1422     1.0080 
[ bonds ]
    2     1     1      0.1529 224262.400
    3     2     1      0.1529 224262.400
    4     3     1      0.1529 224262.400
    5     4     1      0.1529 224262.400
    6     5     1      0.1529 224262.400
    7     3     1      0.1449 282001.600
    8     7     1      0.1670 363171.200
    9     8     1      0.1440 585760.000
   10     8     1      0.1440 585760.000
   11     8     1      0.1770 284512.000
   12     6     1      0.1529 224262.400
   13    12     1      0.1529 224262.400
   14    13     1      0.1410 267776.000
   15    14     1      0.1327 179075.200
   16    15     1      0.1229 476976.000
   17    12     1      0.1410 267776.000
   18     1     1      0.1090 284512.000
   19     1     1      0.1090 284512.000
   20     1     1      0.1090 284512.000
   21     2     1      0.1090 284512.000
   22     2     1      0.1090 284512.000
   23     3     1      0.1090 284512.000
   24     4     1      0.1090 284512.000
   25     4     1      0.1090 284512.000
   26     5     1      0.1090 284512.000
   27     5     1      0.1090 284512.000
   28     6     1      0.1090 284512.000
   29    11     1      0.1090 284512.000
   30    11     1      0.1090 284512.000
   31    13     1      0.1090 284512.000
   32    13     1      0.1090 284512.000
    7     6     1      0.1449 282001.600
   12    11     1      0.1529 224262.400
   17    15     1      0.1327 179075.200

[ angles ]
;  ai    aj    ak funct            c0            c1            c2            c3 
    1     2     3     1    112.700    488.273
    2     3     4     1    112.700    488.273
    3     4     5     1    112.700    488.273
    4     5     6     1    112.700    488.273
    2     3     7     1    109.700    669.440
    3     7     8     1    120.000    418.400
    7     8     9     1    107.000   1004.160
    7     8    10     1    107.000   1004.160
    7     8    11     1    103.000    836.800
    5     6    12     1    112.700    488.273
    6    12    13     1    112.700    488.273
   12    13    14     1    109.500    418.400
   13    14    15     1    116.900    694.544
   14    15    16     1    123.400    694.544
    6    12    17     1    109.500    418.400
    2     1    18     1    110.700    313.800
    2     1    19     1    110.700    313.800
    2     1    20     1    110.700    313.800
    1     2    21     1    110.700    313.800
    1     2    22     1    110.700    313.800
    2     3    23     1    110.700    313.800
    3     4    24     1    110.700    313.800
    3     4    25     1    110.700    313.800
    4     5    26     1    110.700    313.800
    4     5    27     1    110.700    313.800
    5     6    28     1    110.700    313.800
    8    11    29     1    109.500    292.880
    8    11    30     1    109.500    292.880
   12    13    31     1    110.700    313.800
   12    13    32     1    110.700    313.800
   12    17    15     1    116.900    694.544
    9     8    10     1    119.000    870.272
    3     2    21     1    110.700    313.800
    7     3    23     1    109.500    292.880
    8    11    12     1    108.600    418.400
    5     4    24     1    110.700    313.800
   24     4    25     1    107.800    276.144
    6     7     8     1    120.000    418.400
    7     6    28     1    109.500    292.880
    5     6     7     1    109.700    669.440
    4     3     7     1    109.700    669.440
    3     7     6     1    118.000    418.400
    4     3    23     1    110.700    313.800
    3     2    22     1    110.700    313.800
   12    11    30     1    110.700    313.800
    6     5    27     1    110.700    313.800
   31    13    32     1    107.800    276.144
   18     1    19     1    107.800    276.144
   10     8    11     1    108.900    619.232
   13    12    17     1    109.500    418.400
   26     5    27     1    107.800    276.144
   14    13    31     1    109.500    292.880
   14    15    17     1    118.180    584.923
    5     4    25     1    110.700    313.800
   11    12    17     1    109.500    418.400
   16    15    17     1    123.400    694.544
   14    13    32     1    109.500    292.880
    6    12    11     1    112.700    488.273
    6     5    26     1    110.700    313.800
    9     8    11     1    108.900    619.232
   18     1    20     1    107.800    276.144
   21     2    22     1    107.800    276.144
   29    11    30     1    107.800    276.144
   19     1    20     1    107.800    276.144
   11    12    13     1    112.700    488.273
   12     6    28     1    110.700    313.800
   12    11    29     1    110.700    313.800
    7     6    12     1    109.700    669.440

[ dihedrals ]
; IMPROPER DIHEDRAL ANGLES 
;  ai    aj    ak    al funct            c0            c1            c2            c3            c4            c5
    16    15    17    14    4        180.000     43.932     2  
     8     7     3     6    4        180.000     10.460     2  

[ dihedrals ]
; PROPER DIHEDRAL ANGLES
;  ai    aj    ak    al funct            c0            c1            c2            c3            c4            c5
   15   17   12    6        3      -2.197   5.201   0.527  -3.531  -0.000   0.000
   15   17   12   13        3      -2.197   5.201   0.527  -3.531  -0.000   0.000
   15   17   12   11        3      -2.197   5.201   0.527  -3.531  -0.000   0.000
   15   14   13   12        3      -2.197   5.201   0.527  -3.531  -0.000   0.000
    4    3    2    1        3       2.301  -1.464   0.837  -1.674  -0.000   0.000
    5    4    3    2        3       2.301  -1.464   0.837  -1.674  -0.000   0.000
    6    5    4    3        3       2.301  -1.464   0.837  -1.674  -0.000   0.000
   12    6    5    4        3       2.301  -1.464   0.837  -1.674  -0.000   0.000
   13   12    6    5        3       2.301  -1.464   0.837  -1.674  -0.000   0.000
   11   12    6    5        3       2.301  -1.464   0.837  -1.674  -0.000   0.000
   13   12    6    7        3      -0.766   2.707   4.025  -5.966  -0.000   0.000
   11   12    6    7        3      -0.766   2.707   4.025  -5.966  -0.000   0.000
   13   12   11    8        3       2.784   0.278   0.828  -3.891  -0.000   0.000
   12    6    7    3        3       6.872  -9.943   3.071  -0.000  -0.000   0.000
    5    6    7    3        3       6.872  -9.943   3.071  -0.000  -0.000   0.000
   12    6    7    8        3      -3.431  -3.008  10.598  -4.159  -0.000   0.000
   12   11    8    7        3       0.000   0.000   0.000  -0.000  -0.000   0.000
   12   11    8   10        3       0.000   0.000   0.000  -0.000  -0.000   0.000
   12   11    8    9        3       0.000   0.000   0.000  -0.000  -0.000   0.000
    6    7    3    4        3       6.872  -9.943   3.071  -0.000  -0.000   0.000
    6    7    3    2        3       6.872  -9.943   3.071  -0.000  -0.000   0.000
   11    8    7    6        3      -2.897  11.182  12.410  -20.694  -0.000   0.000
   11    8    7    3        3      -2.897  11.182  12.410  -20.694  -0.000   0.000
   28    6    5    4        3       0.628   1.883   0.000  -2.510  -0.000   0.000
   21    2    3    4        3       0.628   1.883   0.000  -2.510  -0.000   0.000
   31   13   12    6        3       0.628   1.883   0.000  -2.510  -0.000   0.000
   26    5    4    3        3       0.628   1.883   0.000  -2.510  -0.000   0.000
   25    4    5    6        3       0.628   1.883   0.000  -2.510  -0.000   0.000
   30   11   12   13        3       0.628   1.883   0.000  -2.510  -0.000   0.000
   26    5    6   12        3       0.628   1.883   0.000  -2.510  -0.000   0.000
   28    6   12   11        3       0.628   1.883   0.000  -2.510  -0.000   0.000
   24    4    3    2        3       0.628   1.883   0.000  -2.510  -0.000   0.000
   27    5    6   12        3       0.628   1.883   0.000  -2.510  -0.000   0.000
   30   11   12    6        3       0.628   1.883   0.000  -2.510  -0.000   0.000
   24    4    5    6        3       0.628   1.883   0.000  -2.510  -0.000   0.000
   23    3    2    1        3       0.628   1.883   0.000  -2.510  -0.000   0.000
   23    3    4    5        3       0.628   1.883   0.000  -2.510  -0.000   0.000
   19    1    2    3        3       0.628   1.883   0.000  -2.510  -0.000   0.000
   20    1    2    3        3       0.628   1.883   0.000  -2.510  -0.000   0.000
   29   11   12    6        3       0.628   1.883   0.000  -2.510  -0.000   0.000
   25    4    3    2        3       0.628   1.883   0.000  -2.510  -0.000   0.000
   18    1    2    3        3       0.628   1.883   0.000  -2.510  -0.000   0.000
   31   13   12   11        3       0.628   1.883   0.000  -2.510  -0.000   0.000
   32   13   12    6        3       0.628   1.883   0.000  -2.510  -0.000   0.000
   28    6   12   13        3       0.628   1.883   0.000  -2.510  -0.000   0.000
   22    2    3    4        3       0.628   1.883   0.000  -2.510  -0.000   0.000
   32   13   12   11        3       0.628   1.883   0.000  -2.510  -0.000   0.000
   27    5    4    3        3       0.628   1.883   0.000  -2.510  -0.000   0.000
   29   11   12   13        3       0.628   1.883   0.000  -2.510  -0.000   0.000
   26    5    4   24        3       0.628   1.883   0.000  -2.510  -0.000   0.000
   22    2    1   19        3       0.628   1.883   0.000  -2.510  -0.000   0.000
   27    5    4   24        3       0.628   1.883   0.000  -2.510  -0.000   0.000
   26    5    4   25        3       0.628   1.883   0.000  -2.510  -0.000   0.000
   28    6    5   26        3       0.628   1.883   0.000  -2.510  -0.000   0.000
   24    4    3   23        3       0.628   1.883   0.000  -2.510  -0.000   0.000
   27    5    4   25        3       0.628   1.883   0.000  -2.510  -0.000   0.000
   25    4    3   23        3       0.628   1.883   0.000  -2.510  -0.000   0.000
   23    3    2   21        3       0.628   1.883   0.000  -2.510  -0.000   0.000
   21    2    1   18        3       0.628   1.883   0.000  -2.510  -0.000   0.000
   23    3    2   22        3       0.628   1.883   0.000  -2.510  -0.000   0.000
   22    2    1   20        3       0.628   1.883   0.000  -2.510  -0.000   0.000
   22    2    1   18        3       0.628   1.883   0.000  -2.510  -0.000   0.000
   21    2    1   19        3       0.628   1.883   0.000  -2.510  -0.000   0.000
   28    6    5   27        3       0.628   1.883   0.000  -2.510  -0.000   0.000
   21    2    1   20        3       0.628   1.883   0.000  -2.510  -0.000   0.000
   22    2    3    7        3       0.971   2.912   0.000  -3.883  -0.000   0.000
   26    5    6    7        3       0.971   2.912   0.000  -3.883  -0.000   0.000
   21    2    3    7        3       0.971   2.912   0.000  -3.883  -0.000   0.000
   27    5    6    7        3       0.971   2.912   0.000  -3.883  -0.000   0.000
   25    4    3    7        3       0.971   2.912   0.000  -3.883  -0.000   0.000
   24    4    3    7        3       0.971   2.912   0.000  -3.883  -0.000   0.000
   32   13   12   17        3       0.979   2.937   0.000  -3.916  -0.000   0.000
   28    6   12   17        3       0.979   2.937   0.000  -3.916  -0.000   0.000
   31   13   12   17        3       0.979   2.937   0.000  -3.916  -0.000   0.000
   30   11   12   17        3       0.979   2.937   0.000  -3.916  -0.000   0.000
   29   11   12   17        3       0.979   2.937   0.000  -3.916  -0.000   0.000
   23    3    7    6        3       0.000   0.000   0.000  -0.000  -0.000   0.000
   28    6    7    3        3       0.000   0.000   0.000  -0.000  -0.000   0.000
   28    6    7    8        3      -2.935  -1.914   6.096  -1.247  -0.000   0.000
   23    3    7    8        3      -2.935  -1.914   6.096  -1.247  -0.000   0.000
   32   13   14   15        3       0.414   1.243   0.000  -1.657  -0.000   0.000
   31   13   14   15        3       0.414   1.243   0.000  -1.657  -0.000   0.000
   29   11    8    7        3       0.000   0.000   0.000  -0.000  -0.000   0.000
   30   11    8    7        3       0.000   0.000   0.000  -0.000  -0.000   0.000
   30   11    8    9        3       0.732   2.197   0.000  -2.929  -0.000   0.000
   29   11    8   10        3       0.732   2.197   0.000  -2.929  -0.000   0.000
   30   11    8   10        3       0.732   2.197   0.000  -2.929  -0.000   0.000
   29   11    8    9        3       0.732   2.197   0.000  -2.929  -0.000   0.000
    7    3    4    5        3      -0.766   2.707   4.025  -5.966  -0.000   0.000
    7    3    2    1        3      -0.766   2.707   4.025  -5.966  -0.000   0.000
    7    6    5    4        3      -0.766   2.707   4.025  -5.966  -0.000   0.000
   16   15   14   13        3      21.439   0.000  -21.439  -0.000  -0.000   0.000
   16   15   17   12        3      21.439   0.000  -21.439  -0.000  -0.000   0.000
   17   15   14   13        3      31.206  -9.768  -21.439  -0.000  -0.000   0.000
   14   15   17   12        3      31.206  -9.768  -21.439  -0.000  -0.000   0.000
   17   12    6    5        3       2.874   0.582   2.092  -5.548  -0.000   0.000
   14   13   12   11        3       2.874   0.582   2.092  -5.548  -0.000   0.000
   14   13   12    6        3       2.874   0.582   2.092  -5.548  -0.000   0.000
   17   12    6    7        3      11.247  -0.397   6.138  -16.987  -0.000   0.000
   17   12   13   14        3      -1.151   1.151   0.000  -0.000  -0.000   0.000
   17   12   11    8        3       0.979   2.937   0.000  -3.916  -0.000   0.000
   10    8    7    3        3       0.000   0.000   0.000  -0.000  -0.000   0.000
   10    8    7    6        3       0.000   0.000   0.000  -0.000  -0.000   0.000
    9    8    7    3        3       0.000   0.000   0.000  -0.000  -0.000   0.000
    9    8    7    6        3       0.000   0.000   0.000  -0.000  -0.000   0.000
    8   11   12    6        3       2.784   0.278   0.828  -3.891  -0.000   0.000
    8    7    3    4        3      -3.431  -3.008  10.598  -4.159  -0.000   0.000
    8    7    3    2        3      -3.431  -3.008  10.598  -4.159  -0.000   0.000
    8    7    6    5        3      -3.431  -3.008  10.598  -4.159  -0.000   0.000

[ pairs ]
     1     4    1
     2     5    1
     2     6    1
     1     7    1
     2     8    1
     4     8    1
     3     9    1
     5     8    1
     3    10    1
     3    11    1
     6     9    1
     3    12    1
     6    10    1
     5    11    1
     4    12    1
     5    13    1
     7    13    1
     6    14    1
     9    12    1
     8    13    1
     6    15    1
     3    18    1
    10    12    1
     5    17    1
     3    19    1
     3    20    1
     7    17    1
     1    23    1
    11    14    1
     8    17    1
     4    21    1
    11    15    1
     4    22    1
     2    24    1
     2    25    1
    12    16    1
     7    21    1
     5    23    1
    13    16    1
     7    22    1
     6    23    1
     3    26    1
     6    24    1
     3    27    1
     8    23    1
     7    24    1
     6    25    1
     3    28    1
     7    25    1
     4    28    1
     7    26    1
     7    27    1
     6    29    1
     8    28    1
     7    29    1
     6    30    1
     7    30    1
     6    31    1
    12    26    1
     9    29    1
     6    32    1
    18    21    1
    12    27    1
    11    28    1
    10    29    1
     9    30    1
    19    21    1
    18    22    1
    10    30    1
    20    21    1
    19    22    1
    13    28    1
    20    22    1
    13    29    1
    11    31    1
    13    30    1
    11    32    1
    21    23    1
    22    23    1
    17    28    1
    17    29    1
    15    31    1
    23    24    1
    17    30    1
    15    32    1
    23    25    1
    17    31    1
    17    32    1
    24    26    1
    25    26    1
    24    27    1
    25    27    1
    26    28    1
    27    28    1

