LIGPARGEN GENERATED GRO FILE
   32
    1UNK    C00    1   0.100   0.100   0.000
    1UNK    C01    2  -0.052   0.100   0.000
    1UNK    C02    3  -0.119   0.100   0.136
    1UNK    C03    4  -0.104  -0.029   0.218
    1UNK    C04    5  -0.170   0.013   0.350
    1UNK    C05    6  -0.128   0.161   0.367
    1UNK    N06    7  -0.064   0.194   0.236
    1UNK    S07    8  -0.057   0.361   0.218
    1UNK    O08    9   0.067   0.405   0.277
    1UNK    O09   10  -0.098   0.398   0.085
    1UNK    C0A   11  -0.185   0.400   0.334
    1UNK    C0B   12  -0.239   0.268   0.385
    1UNK    C0C   13  -0.288   0.279   0.526
    1UNK    O0D   14  -0.412   0.210   0.527
    1UNK    C0E   15  -0.456   0.203   0.399
    1UNK    O0F   16  -0.568   0.169   0.366
    1UNK    O0G   17  -0.358   0.238   0.311
    1UNK    H0H   18   0.136   0.115  -0.102
    1UNK    H0I   19   0.140   0.004   0.036
    1UNK    H0J   20   0.141   0.181   0.062
    1UNK    H0K   21  -0.087   0.013  -0.057
    1UNK    H0M   22  -0.086   0.188  -0.056
    1UNK    H0N   23  -0.226   0.119   0.121
    1UNK    H0O   24   0.002  -0.052   0.236
    1UNK    H0P   25  -0.151  -0.116   0.172
    1UNK    H0Q   26  -0.136  -0.049   0.434
    1UNK    H0R   27  -0.278   0.001   0.342
    1UNK    H0S   28  -0.050   0.170   0.444
    1UNK    H0T   29  -0.261   0.460   0.283
    1UNK    H0U   30  -0.138   0.458   0.414
    1UNK    H0V   31  -0.308   0.382   0.557
    1UNK    H0W   32  -0.221   0.234   0.600
   1.00000   1.00000   1.00000

