LIGPARGEN GENERATED GRO FILE
   41
    1UNK    C00    1   0.100   0.100   0.000
    1UNK    C01    2  -0.052   0.100   0.000
    1UNK    C02    3  -0.106   0.100   0.143
    1UNK    C03    4  -0.258   0.111   0.148
    1UNK    C04    5  -0.322   0.103   0.289
    1UNK    C05    6  -0.286   0.222   0.383
    1UNK    C06    7  -0.140   0.237   0.425
    1UNK    C07    8  -0.479   0.091   0.281
    1UNK    C08    9  -0.544   0.211   0.212
    1UNK    C09   10  -0.533  -0.037   0.212
    1UNK    C0A   11  -0.495  -0.172   0.275
    1UNK    C0B   12  -0.546  -0.186   0.418
    1UNK    C0C   13  -0.554  -0.285   0.188
    1UNK    H0D   14   0.138   0.105  -0.102
    1UNK    H0E   15   0.139   0.009   0.047
    1UNK    H0F   16   0.139   0.186   0.055
    1UNK    H0G   17  -0.089   0.012  -0.054
    1UNK    H0H   18  -0.088   0.189  -0.053
    1UNK    H0I   19  -0.060   0.185   0.193
    1UNK    H0J   20  -0.073   0.009   0.195
    1UNK    H0K   21  -0.298   0.029   0.087
    1UNK    H0M   22  -0.289   0.204   0.099
    1UNK    H0N   23  -0.284   0.012   0.337
    1UNK    H0O   24  -0.344   0.210   0.475
    1UNK    H0P   25  -0.317   0.317   0.338
    1UNK    H0Q   26  -0.090   0.140   0.435
    1UNK    H0R   27  -0.135   0.287   0.523
    1UNK    H0S   28  -0.085   0.300   0.356
    1UNK    H0T   29  -0.516   0.090   0.385
    1UNK    H0U   30  -0.525   0.210   0.104
    1UNK    H0V   31  -0.509   0.307   0.251
    1UNK    H0W   32  -0.653   0.209   0.226
    1UNK    H0X   33  -0.502  -0.036   0.107
    1UNK    H0Y   34  -0.642  -0.030   0.211
    1UNK    H0Z   35  -0.386  -0.184   0.274
    1UNK    H10   36  -0.651  -0.157   0.426
    1UNK    H11   37  -0.488  -0.124   0.486
    1UNK    H12   38  -0.538  -0.290   0.453
    1UNK    H13   39  -0.664  -0.279   0.185
    1UNK    H14   40  -0.528  -0.383   0.228
    1UNK    H15   41  -0.517  -0.279   0.086
   1.00000   1.00000   1.00000

