
;
; GENERATED BY LigParGen Server
; Jorgensen Lab @ Yale University 
;
[ atomtypes ]
  opls_818  H818     1.0080     0.000    A    2.50000E-01   1.25520E-01
  opls_824  H824     1.0080     0.000    A    2.50000E-01   1.25520E-01
  opls_805  C805    12.0110     0.000    A    3.50000E-01   2.76144E-01
  opls_833  H833     1.0080     0.000    A    2.50000E-01   1.25520E-01
  opls_836  H836     1.0080     0.000    A    2.50000E-01   1.25520E-01
  opls_834  H834     1.0080     0.000    A    2.50000E-01   1.25520E-01
  opls_810  C810    12.0110     0.000    A    3.50000E-01   2.76144E-01
  opls_828  H828     1.0080     0.000    A    2.50000E-01   1.25520E-01
  opls_812  C812    12.0110     0.000    A    3.50000E-01   2.76144E-01
  opls_802  C802    12.0110     0.000    A    3.50000E-01   2.76144E-01
  opls_815  H815     1.0080     0.000    A    2.50000E-01   1.25520E-01
  opls_809  C809    12.0110     0.000    A    3.50000E-01   2.76144E-01
  opls_806  C806    12.0110     0.000    A    3.50000E-01   2.76144E-01
  opls_822  H822     1.0080     0.000    A    2.50000E-01   1.25520E-01
  opls_803  C803    12.0110     0.000    A    3.50000E-01   2.76144E-01
  opls_838  H838     1.0080     0.000    A    2.50000E-01   1.25520E-01
  opls_825  H825     1.0080     0.000    A    2.50000E-01   1.25520E-01
  opls_814  H814     1.0080     0.000    A    2.50000E-01   1.25520E-01
  opls_821  H821     1.0080     0.000    A    2.50000E-01   1.25520E-01
  opls_820  H820     1.0080     0.000    A    2.50000E-01   1.25520E-01
  opls_837  H837     1.0080     0.000    A    2.50000E-01   1.25520E-01
  opls_829  H829     1.0080     0.000    A    2.50000E-01   1.25520E-01
  opls_831  H831     1.0080     0.000    A    2.50000E-01   1.25520E-01
  opls_832  H832     1.0080     0.000    A    2.50000E-01   1.25520E-01
  opls_816  H816     1.0080     0.000    A    2.50000E-01   1.25520E-01
  opls_800  C800    12.0110     0.000    A    3.50000E-01   2.76144E-01
  opls_811  C811    12.0110     0.000    A    3.50000E-01   2.76144E-01
  opls_823  H823     1.0080     0.000    A    2.50000E-01   1.25520E-01
  opls_813  C813    12.0110     0.000    A    3.50000E-01   2.76144E-01
  opls_826  H826     1.0080     0.000    A    2.50000E-01   1.25520E-01
  opls_835  H835     1.0080     0.000    A    2.50000E-01   1.25520E-01
  opls_841  H841     1.0080     0.000    A    2.50000E-01   1.25520E-01
  opls_819  H819     1.0080     0.000    A    2.50000E-01   1.25520E-01
  opls_804  C804    12.0110     0.000    A    3.50000E-01   2.76144E-01
  opls_827  H827     1.0080     0.000    A    2.50000E-01   1.25520E-01
  opls_839  H839     1.0080     0.000    A    2.50000E-01   1.25520E-01
  opls_801  C801    12.0110     0.000    A    3.50000E-01   2.76144E-01
  opls_808  C808    12.0110     0.000    A    3.50000E-01   2.76144E-01
  opls_817  H817     1.0080     0.000    A    2.50000E-01   1.25520E-01
  opls_830  H830     1.0080     0.000    A    2.50000E-01   1.25520E-01
  opls_840  H840     1.0080     0.000    A    2.50000E-01   1.25520E-01
  opls_807  C807    12.0110     0.000    A    3.50000E-01   2.76144E-01
[ moleculetype ]
; Name               nrexcl
UNK                   3
[ atoms ]
;   nr       type  resnr residue  atom   cgnr     charge       mass  
     1   opls_800      1    UNK   C00      1    -0.2369    12.0110 
     2   opls_801      1    UNK   C01      1    -0.1743    12.0110 
     3   opls_802      1    UNK   C02      1     -0.084    12.0110 
     4   opls_803      1    UNK   C03      1    -0.1073    12.0110 
     5   opls_804      1    UNK   C04      1    -0.2379    12.0110 
     6   opls_805      1    UNK   C05      1    -0.2352    12.0110 
     7   opls_806      1    UNK   C06      1    -0.1179    12.0110 
     8   opls_807      1    UNK   C07      1    -0.1797    12.0110 
     9   opls_808      1    UNK   C08      1    -0.1791    12.0110 
    10   opls_809      1    UNK   C09      1    -0.0509    12.0110 
    11   opls_810      1    UNK   C0A      1     -0.229    12.0110 
    12   opls_811      1    UNK   C0B      1    -0.2228    12.0110 
    13   opls_812      1    UNK   C0C      1    -0.1063    12.0110 
    14   opls_813      1    UNK   C0D      1    -0.2299    12.0110 
    15   opls_814      1    UNK   H0E      1     0.0796     1.0080 
    16   opls_815      1    UNK   H0F      1     0.0796     1.0080 
    17   opls_816      1    UNK   H0G      1     0.0796     1.0080 
    18   opls_817      1    UNK   H0H      1      0.087     1.0080 
    19   opls_818      1    UNK   H0I      1      0.087     1.0080 
    20   opls_819      1    UNK   H0J      1     0.0949     1.0080 
    21   opls_820      1    UNK   H0K      1     0.0954     1.0080 
    22   opls_821      1    UNK   H0M      1     0.0804     1.0080 
    23   opls_822      1    UNK   H0N      1     0.0804     1.0080 
    24   opls_823      1    UNK   H0O      1     0.0804     1.0080 
    25   opls_824      1    UNK   H0P      1     0.0806     1.0080 
    26   opls_825      1    UNK   H0Q      1     0.0806     1.0080 
    27   opls_826      1    UNK   H0R      1     0.0806     1.0080 
    28   opls_827      1    UNK   H0S      1      0.101     1.0080 
    29   opls_828      1    UNK   H0T      1     0.0941     1.0080 
    30   opls_829      1    UNK   H0U      1     0.0941     1.0080 
    31   opls_830      1    UNK   H0V      1     0.0925     1.0080 
    32   opls_831      1    UNK   H0W      1     0.0925     1.0080 
    33   opls_832      1    UNK   H0X      2     0.0809     1.0080 
    34   opls_833      1    UNK   H0Y      2     0.0809     1.0080 
    35   opls_834      1    UNK   H0Z      2     0.0809     1.0080 
    36   opls_835      1    UNK   H10      2     0.0813     1.0080 
    37   opls_836      1    UNK   H11      2     0.0813     1.0080 
    38   opls_837      1    UNK   H12      2     0.0813     1.0080 
    39   opls_838      1    UNK   H13      2     0.1009     1.0080 
    40   opls_839      1    UNK   H14      2     0.0811     1.0080 
    41   opls_840      1    UNK   H15      2     0.0811     1.0080 
    42   opls_841      1    UNK   H16      2     0.0811     1.0080 
[ bonds ]
    2     1     1      0.1529 224262.400
    3     2     1      0.1529 224262.400
    4     3     1      0.1529 224262.400
    5     4     1      0.1529 224262.400
    6     4     1      0.1529 224262.400
    7     3     1      0.1529 224262.400
    8     7     1      0.1529 224262.400
    9     8     1      0.1529 224262.400
   10     9     1      0.1529 224262.400
   11    10     1      0.1529 224262.400
   12    10     1      0.1529 224262.400
   13     7     1      0.1529 224262.400
   14    13     1      0.1529 224262.400
   15     1     1      0.1090 284512.000
   16     1     1      0.1090 284512.000
   17     1     1      0.1090 284512.000
   18     2     1      0.1090 284512.000
   19     2     1      0.1090 284512.000
   20     3     1      0.1090 284512.000
   21     4     1      0.1090 284512.000
   22     5     1      0.1090 284512.000
   23     5     1      0.1090 284512.000
   24     5     1      0.1090 284512.000
   25     6     1      0.1090 284512.000
   26     6     1      0.1090 284512.000
   27     6     1      0.1090 284512.000
   28     7     1      0.1090 284512.000
   29     8     1      0.1090 284512.000
   30     8     1      0.1090 284512.000
   31     9     1      0.1090 284512.000
   32     9     1      0.1090 284512.000
   33    11     1      0.1090 284512.000
   34    11     1      0.1090 284512.000
   35    11     1      0.1090 284512.000
   36    12     1      0.1090 284512.000
   37    12     1      0.1090 284512.000
   38    12     1      0.1090 284512.000
   39    13     1      0.1090 284512.000
   40    14     1      0.1090 284512.000
   41    14     1      0.1090 284512.000
   42    14     1      0.1090 284512.000
   13    10     1      0.1529 224262.400

[ angles ]
;  ai    aj    ak funct            c0            c1            c2            c3 
    1     2     3     1    112.700    488.273
    2     3     4     1    112.700    488.273
    3     4     5     1    112.700    488.273
    3     4     6     1    112.700    488.273
    2     3     7     1    112.700    488.273
    3     7     8     1    112.700    488.273
    7     8     9     1    112.700    488.273
    8     9    10     1    112.700    488.273
    9    10    11     1    112.700    488.273
    9    10    12     1    112.700    488.273
    3     7    13     1    112.700    488.273
    7    13    14     1    112.700    488.273
    2     1    15     1    110.700    313.800
    2     1    16     1    110.700    313.800
    2     1    17     1    110.700    313.800
    1     2    18     1    110.700    313.800
    1     2    19     1    110.700    313.800
    2     3    20     1    110.700    313.800
    3     4    21     1    110.700    313.800
    4     5    22     1    110.700    313.800
    4     5    23     1    110.700    313.800
    4     5    24     1    110.700    313.800
    4     6    25     1    110.700    313.800
    4     6    26     1    110.700    313.800
    4     6    27     1    110.700    313.800
    3     7    28     1    110.700    313.800
    7     8    29     1    110.700    313.800
    7     8    30     1    110.700    313.800
    8     9    31     1    110.700    313.800
    8     9    32     1    110.700    313.800
   10    11    33     1    110.700    313.800
   10    11    34     1    110.700    313.800
   10    11    35     1    110.700    313.800
   10    12    36     1    110.700    313.800
   10    12    37     1    110.700    313.800
   10    12    38     1    110.700    313.800
    7    13    39     1    110.700    313.800
   13    14    40     1    110.700    313.800
   13    14    41     1    110.700    313.800
   13    14    42     1    110.700    313.800
   11    10    12     1    112.700    488.273
    8     7    28     1    110.700    313.800
    9     8    30     1    110.700    313.800
   12    10    13     1    112.700    488.273
    5     4     6     1    112.700    488.273
   14    13    39     1    110.700    313.800
   10     9    32     1    110.700    313.800
   33    11    34     1    107.800    276.144
   22     5    23     1    107.800    276.144
    3     2    18     1    110.700    313.800
   22     5    24     1    107.800    276.144
   37    12    38     1    107.800    276.144
    8     7    13     1    112.700    488.273
    9     8    29     1    110.700    313.800
    9    10    13     1    112.700    488.273
   10    13    39     1    110.700    313.800
    7    13    10     1    112.700    488.273
   25     6    27     1    107.800    276.144
   10    13    14     1    112.700    488.273
   23     5    24     1    107.800    276.144
   29     8    30     1    107.800    276.144
   18     2    19     1    107.800    276.144
    7     3    20     1    110.700    313.800
    6     4    21     1    110.700    313.800
    4     3     7     1    112.700    488.273
   26     6    27     1    107.800    276.144
   36    12    37     1    107.800    276.144
   33    11    35     1    107.800    276.144
   15     1    16     1    107.800    276.144
   40    14    41     1    107.800    276.144
   11    10    13     1    112.700    488.273
   40    14    42     1    107.800    276.144
    3     2    19     1    110.700    313.800
   10     9    31     1    110.700    313.800
   34    11    35     1    107.800    276.144
   25     6    26     1    107.800    276.144
   15     1    17     1    107.800    276.144
   16     1    17     1    107.800    276.144
   31     9    32     1    107.800    276.144
   13     7    28     1    110.700    313.800
   41    14    42     1    107.800    276.144
   36    12    38     1    107.800    276.144
    5     4    21     1    110.700    313.800
    4     3    20     1    110.700    313.800

[ dihedrals ]
; IMPROPER DIHEDRAL ANGLES 
;  ai    aj    ak    al funct            c0            c1            c2            c3            c4            c5

[ dihedrals ]
; PROPER DIHEDRAL ANGLES
;  ai    aj    ak    al funct            c0            c1            c2            c3            c4            c5
    4    3    2    1        3       2.301  -1.464   0.837  -1.674  -0.000   0.000
    9   10   13    7        3       2.301  -1.464   0.837  -1.674  -0.000   0.000
    8    7    3    4        3       2.301  -1.464   0.837  -1.674  -0.000   0.000
   14   13    7    8        3       2.301  -1.464   0.837  -1.674  -0.000   0.000
   14   13   10   11        3       2.301  -1.464   0.837  -1.674  -0.000   0.000
   10   13    7    3        3       2.301  -1.464   0.837  -1.674  -0.000   0.000
    7    3    2    1        3       2.301  -1.464   0.837  -1.674  -0.000   0.000
   14   13   10   12        3       2.301  -1.464   0.837  -1.674  -0.000   0.000
    7    3    4    5        3       2.301  -1.464   0.837  -1.674  -0.000   0.000
   13   10    9    8        3       2.301  -1.464   0.837  -1.674  -0.000   0.000
   12   10   13    7        3       2.301  -1.464   0.837  -1.674  -0.000   0.000
   10   13    7    8        3       2.301  -1.464   0.837  -1.674  -0.000   0.000
   13    7    3    4        3       2.301  -1.464   0.837  -1.674  -0.000   0.000
   11   10   13    7        3       2.301  -1.464   0.837  -1.674  -0.000   0.000
   14   13    7    3        3       2.301  -1.464   0.837  -1.674  -0.000   0.000
   13    7    8    9        3       2.301  -1.464   0.837  -1.674  -0.000   0.000
    6    4    3    2        3       2.301  -1.464   0.837  -1.674  -0.000   0.000
   13    7    3    2        3       2.301  -1.464   0.837  -1.674  -0.000   0.000
   12   10    9    8        3       2.301  -1.464   0.837  -1.674  -0.000   0.000
   14   13   10    9        3       2.301  -1.464   0.837  -1.674  -0.000   0.000
   11   10    9    8        3       2.301  -1.464   0.837  -1.674  -0.000   0.000
   10    9    8    7        3       2.301  -1.464   0.837  -1.674  -0.000   0.000
    8    7    3    2        3       2.301  -1.464   0.837  -1.674  -0.000   0.000
    9    8    7    3        3       2.301  -1.464   0.837  -1.674  -0.000   0.000
    5    4    3    2        3       2.301  -1.464   0.837  -1.674  -0.000   0.000
    7    3    4    6        3       2.301  -1.464   0.837  -1.674  -0.000   0.000
   28    7   13   10        3       0.628   1.883   0.000  -2.510  -0.000   0.000
   27    6    4    5        3       0.628   1.883   0.000  -2.510  -0.000   0.000
   29    8    7   13        3       0.628   1.883   0.000  -2.510  -0.000   0.000
   29    8    9   10        3       0.628   1.883   0.000  -2.510  -0.000   0.000
   31    9   10   11        3       0.628   1.883   0.000  -2.510  -0.000   0.000
   21    4    3    2        3       0.628   1.883   0.000  -2.510  -0.000   0.000
   23    5    4    3        3       0.628   1.883   0.000  -2.510  -0.000   0.000
   20    3    2    1        3       0.628   1.883   0.000  -2.510  -0.000   0.000
   20    3    4    5        3       0.628   1.883   0.000  -2.510  -0.000   0.000
   42   14   13    7        3       0.628   1.883   0.000  -2.510  -0.000   0.000
   35   11   10   13        3       0.628   1.883   0.000  -2.510  -0.000   0.000
   37   12   10   13        3       0.628   1.883   0.000  -2.510  -0.000   0.000
   39   13   10    9        3       0.628   1.883   0.000  -2.510  -0.000   0.000
   27    6    4    3        3       0.628   1.883   0.000  -2.510  -0.000   0.000
   25    6    4    5        3       0.628   1.883   0.000  -2.510  -0.000   0.000
   39   13   10   12        3       0.628   1.883   0.000  -2.510  -0.000   0.000
   32    9   10   13        3       0.628   1.883   0.000  -2.510  -0.000   0.000
   20    3    4    6        3       0.628   1.883   0.000  -2.510  -0.000   0.000
   31    9    8    7        3       0.628   1.883   0.000  -2.510  -0.000   0.000
   34   11   10    9        3       0.628   1.883   0.000  -2.510  -0.000   0.000
   19    2    3    7        3       0.628   1.883   0.000  -2.510  -0.000   0.000
   38   12   10   13        3       0.628   1.883   0.000  -2.510  -0.000   0.000
   40   14   13   10        3       0.628   1.883   0.000  -2.510  -0.000   0.000
   19    2    3    4        3       0.628   1.883   0.000  -2.510  -0.000   0.000
   29    8    7    3        3       0.628   1.883   0.000  -2.510  -0.000   0.000
   26    6    4    5        3       0.628   1.883   0.000  -2.510  -0.000   0.000
   33   11   10   12        3       0.628   1.883   0.000  -2.510  -0.000   0.000
   28    7    3    4        3       0.628   1.883   0.000  -2.510  -0.000   0.000
   18    2    3    7        3       0.628   1.883   0.000  -2.510  -0.000   0.000
   28    7    3    2        3       0.628   1.883   0.000  -2.510  -0.000   0.000
   42   14   13   10        3       0.628   1.883   0.000  -2.510  -0.000   0.000
   22    5    4    6        3       0.628   1.883   0.000  -2.510  -0.000   0.000
   39   13    7    8        3       0.628   1.883   0.000  -2.510  -0.000   0.000
   17    1    2    3        3       0.628   1.883   0.000  -2.510  -0.000   0.000
   24    5    4    6        3       0.628   1.883   0.000  -2.510  -0.000   0.000
   28    7   13   14        3       0.628   1.883   0.000  -2.510  -0.000   0.000
   16    1    2    3        3       0.628   1.883   0.000  -2.510  -0.000   0.000
   37   12   10    9        3       0.628   1.883   0.000  -2.510  -0.000   0.000
   41   14   13   10        3       0.628   1.883   0.000  -2.510  -0.000   0.000
   24    5    4    3        3       0.628   1.883   0.000  -2.510  -0.000   0.000
   38   12   10    9        3       0.628   1.883   0.000  -2.510  -0.000   0.000
   36   12   10   11        3       0.628   1.883   0.000  -2.510  -0.000   0.000
   31    9   10   13        3       0.628   1.883   0.000  -2.510  -0.000   0.000
   32    9   10   12        3       0.628   1.883   0.000  -2.510  -0.000   0.000
   39   13   10   11        3       0.628   1.883   0.000  -2.510  -0.000   0.000
   18    2    3    4        3       0.628   1.883   0.000  -2.510  -0.000   0.000
   32    9    8    7        3       0.628   1.883   0.000  -2.510  -0.000   0.000
   41   14   13    7        3       0.628   1.883   0.000  -2.510  -0.000   0.000
   23    5    4    6        3       0.628   1.883   0.000  -2.510  -0.000   0.000
   31    9   10   12        3       0.628   1.883   0.000  -2.510  -0.000   0.000
   32    9   10   11        3       0.628   1.883   0.000  -2.510  -0.000   0.000
   28    7    8    9        3       0.628   1.883   0.000  -2.510  -0.000   0.000
   34   11   10   13        3       0.628   1.883   0.000  -2.510  -0.000   0.000
   35   11   10   12        3       0.628   1.883   0.000  -2.510  -0.000   0.000
   40   14   13    7        3       0.628   1.883   0.000  -2.510  -0.000   0.000
   20    3    7   13        3       0.628   1.883   0.000  -2.510  -0.000   0.000
   36   12   10    9        3       0.628   1.883   0.000  -2.510  -0.000   0.000
   33   11   10    9        3       0.628   1.883   0.000  -2.510  -0.000   0.000
   25    6    4    3        3       0.628   1.883   0.000  -2.510  -0.000   0.000
   22    5    4    3        3       0.628   1.883   0.000  -2.510  -0.000   0.000
   15    1    2    3        3       0.628   1.883   0.000  -2.510  -0.000   0.000
   36   12   10   13        3       0.628   1.883   0.000  -2.510  -0.000   0.000
   38   12   10   11        3       0.628   1.883   0.000  -2.510  -0.000   0.000
   33   11   10   13        3       0.628   1.883   0.000  -2.510  -0.000   0.000
   34   11   10   12        3       0.628   1.883   0.000  -2.510  -0.000   0.000
   30    8    9   10        3       0.628   1.883   0.000  -2.510  -0.000   0.000
   20    3    7    8        3       0.628   1.883   0.000  -2.510  -0.000   0.000
   21    4    3    7        3       0.628   1.883   0.000  -2.510  -0.000   0.000
   30    8    7    3        3       0.628   1.883   0.000  -2.510  -0.000   0.000
   35   11   10    9        3       0.628   1.883   0.000  -2.510  -0.000   0.000
   30    8    7   13        3       0.628   1.883   0.000  -2.510  -0.000   0.000
   26    6    4    3        3       0.628   1.883   0.000  -2.510  -0.000   0.000
   37   12   10   11        3       0.628   1.883   0.000  -2.510  -0.000   0.000
   39   13    7    3        3       0.628   1.883   0.000  -2.510  -0.000   0.000
   39   13    7   28        3       0.628   1.883   0.000  -2.510  -0.000   0.000
   19    2    1   17        3       0.628   1.883   0.000  -2.510  -0.000   0.000
   18    2    1   17        3       0.628   1.883   0.000  -2.510  -0.000   0.000
   31    9    8   30        3       0.628   1.883   0.000  -2.510  -0.000   0.000
   22    5    4   21        3       0.628   1.883   0.000  -2.510  -0.000   0.000
   32    9    8   29        3       0.628   1.883   0.000  -2.510  -0.000   0.000
   28    7    3   20        3       0.628   1.883   0.000  -2.510  -0.000   0.000
   20    3    2   18        3       0.628   1.883   0.000  -2.510  -0.000   0.000
   41   14   13   39        3       0.628   1.883   0.000  -2.510  -0.000   0.000
   18    2    1   16        3       0.628   1.883   0.000  -2.510  -0.000   0.000
   40   14   13   39        3       0.628   1.883   0.000  -2.510  -0.000   0.000
   24    5    4   21        3       0.628   1.883   0.000  -2.510  -0.000   0.000
   18    2    1   15        3       0.628   1.883   0.000  -2.510  -0.000   0.000
   19    2    1   16        3       0.628   1.883   0.000  -2.510  -0.000   0.000
   42   14   13   39        3       0.628   1.883   0.000  -2.510  -0.000   0.000
   32    9    8   30        3       0.628   1.883   0.000  -2.510  -0.000   0.000
   31    9    8   29        3       0.628   1.883   0.000  -2.510  -0.000   0.000
   25    6    4   21        3       0.628   1.883   0.000  -2.510  -0.000   0.000
   30    8    7   28        3       0.628   1.883   0.000  -2.510  -0.000   0.000
   23    5    4   21        3       0.628   1.883   0.000  -2.510  -0.000   0.000
   21    4    3   20        3       0.628   1.883   0.000  -2.510  -0.000   0.000
   29    8    7   28        3       0.628   1.883   0.000  -2.510  -0.000   0.000
   26    6    4   21        3       0.628   1.883   0.000  -2.510  -0.000   0.000
   27    6    4   21        3       0.628   1.883   0.000  -2.510  -0.000   0.000
   20    3    2   19        3       0.628   1.883   0.000  -2.510  -0.000   0.000
   19    2    1   15        3       0.628   1.883   0.000  -2.510  -0.000   0.000

[ pairs ]
     1     4    1
     2     5    1
     2     6    1
     1     7    1
     2     8    1
     5     7    1
     4     8    1
     3     9    1
     6     7    1
     3    10    1
     2    13    1
     4    13    1
     3    14    1
     7    11    1
     3    15    1
     8    11    1
     7    12    1
     3    16    1
     8    12    1
     3    17    1
     1    20    1
     8    14    1
     4    18    1
     9    14    1
     4    19    1
     2    21    1
    11    14    1
     7    18    1
     5    20    1
     3    22    1
    12    14    1
     7    19    1
     6    20    1
     3    23    1
     3    24    1
     8    20    1
     7    21    1
     6    22    1
     3    25    1
     6    23    1
     3    26    1
     6    24    1
     5    25    1
     3    27    1
     2    28    1
     5    26    1
     5    27    1
     4    28    1
     3    29    1
    15    18    1
    13    20    1
     3    30    1
    16    18    1
    15    19    1
    17    18    1
    16    19    1
    17    19    1
     9    28    1
    18    20    1
    10    28    1
     7    31    1
    19    20    1
    10    29    1
     7    32    1
    10    30    1
    20    21    1
    14    28    1
    13    29    1
    11    31    1
     9    33    1
     3    39    1
    21    22    1
    13    30    1
    12    31    1
    11    32    1
     9    34    1
    21    23    1
    13    31    1
    12    32    1
     9    35    1
    21    24    1
    13    32    1
    12    33    1
     9    36    1
    21    25    1
    13    33    1
    12    34    1
     9    37    1
    21    26    1
    13    34    1
    12    35    1
    11    36    1
     9    38    1
     8    39    1
     7    40    1
    21    27    1
    20    28    1
    13    35    1
    11    37    1
     9    39    1
     7    41    1
    13    36    1
    11    38    1
     7    42    1
    13    37    1
    11    39    1
    10    40    1
    13    38    1
    12    39    1
    10    41    1
    10    42    1
    28    29    1
    28    30    1
    29    31    1
    30    31    1
    29    32    1
    30    32    1
    28    39    1
    39    40    1
    39    41    1
    39    42    1

