LIGPARGEN GENERATED GRO FILE
   42
    1UNK    C00    1   0.100   0.100   0.000
    1UNK    C01    2  -0.052   0.100   0.000
    1UNK    C02    3  -0.124   0.100   0.138
    1UNK    C03    4  -0.107   0.235   0.218
    1UNK    C04    5  -0.183   0.235   0.352
    1UNK    C05    6   0.039   0.268   0.252
    1UNK    C06    7  -0.276   0.063   0.122
    1UNK    C07    8  -0.355   0.156   0.029
    1UNK    C08    9  -0.483   0.079   0.005
    1UNK    C09   10  -0.439  -0.067  -0.015
    1UNK    C0A   11  -0.408  -0.093  -0.164
    1UNK    C0B   12  -0.553  -0.162   0.026
    1UNK    C0C   13  -0.306  -0.080   0.068
    1UNK    C0D   14  -0.309  -0.182   0.183
    1UNK    H0E   15   0.137   0.055  -0.093
    1UNK    H0F   16   0.141   0.043   0.084
    1UNK    H0G   17   0.140   0.202   0.001
    1UNK    H0H   18  -0.081   0.010  -0.055
    1UNK    H0I   19  -0.087   0.184  -0.061
    1UNK    H0J   20  -0.078   0.021   0.199
    1UNK    H0K   21  -0.146   0.317   0.157
    1UNK    H0M   22  -0.156   0.149   0.413
    1UNK    H0N   23  -0.292   0.234   0.337
    1UNK    H0O   24  -0.162   0.326   0.409
    1UNK    H0P   25   0.094   0.180   0.288
    1UNK    H0Q   26   0.046   0.345   0.330
    1UNK    H0R   27   0.091   0.310   0.166
    1UNK    H0S   28  -0.323   0.068   0.220
    1UNK    H0T   29  -0.304   0.174  -0.066
    1UNK    H0U   30  -0.375   0.253   0.076
    1UNK    H0V   31  -0.538   0.119  -0.082
    1UNK    H0W   32  -0.549   0.089   0.092
    1UNK    H0X   33  -0.496  -0.078  -0.226
    1UNK    H0Y   34  -0.373  -0.195  -0.179
    1UNK    H0Z   35  -0.330  -0.025  -0.201
    1UNK    H10   36  -0.642  -0.144  -0.035
    1UNK    H11   37  -0.582  -0.147   0.131
    1UNK    H12   38  -0.524  -0.267   0.013
    1UNK    H13   39  -0.227  -0.114   0.001
    1UNK    H14   40  -0.386  -0.158   0.257
    1UNK    H15   41  -0.212  -0.183   0.235
    1UNK    H16   42  -0.327  -0.283   0.145
   1.00000   1.00000   1.00000

