LIGPARGEN GENERATED GRO FILE
   43
    1UNK    C00    1   0.100   0.100   0.000
    1UNK    C01    2  -0.052   0.100   0.000
    1UNK    C02    3  -0.108   0.100   0.143
    1UNK    C03    4  -0.264   0.100   0.153
    1UNK    C04    5  -0.319  -0.028   0.089
    1UNK    C05    6  -0.302   0.100   0.302
    1UNK    C06    7  -0.318   0.232   0.093
    1UNK    O07    8  -0.252   0.336   0.104
    1UNK    C08    9  -0.459   0.238   0.034
    1UNK    C09   10  -0.559   0.275   0.141
    1UNK    O0A   11  -0.623   0.190   0.204
    1UNK    C0B   12  -0.474   0.330  -0.091
    1UNK    C0C   13  -0.441   0.479  -0.066
    1UNK    C0D   14  -0.390   0.282  -0.212
    1UNK    C0E   15  -0.428   0.144  -0.265
    1UNK    O0F   16  -0.567   0.143  -0.299
    1UNK    C0G   17  -0.607   0.016  -0.349
    1UNK    H0H   18   0.138   0.100  -0.103
    1UNK    H0I   19   0.139   0.011   0.051
    1UNK    H0J   20   0.139   0.189   0.050
    1UNK    H0K   21  -0.087   0.012  -0.055
    1UNK    H0M   22  -0.087   0.188  -0.055
    1UNK    H0N   23  -0.068   0.187   0.196
    1UNK    H0O   24  -0.069   0.012   0.195
    1UNK    H0P   25  -0.272  -0.117   0.132
    1UNK    H0Q   26  -0.302  -0.030  -0.019
    1UNK    H0R   27  -0.427  -0.039   0.105
    1UNK    H0S   28  -0.250   0.020   0.357
    1UNK    H0T   29  -0.409   0.085   0.317
    1UNK    H0U   30  -0.276   0.195   0.350
    1UNK    H0V   31  -0.488   0.138   0.001
    1UNK    H0W   32  -0.566   0.381   0.168
    1UNK    H0X   33  -0.580   0.328  -0.119
    1UNK    H0Y   34  -0.334   0.496  -0.051
    1UNK    H0Z   35  -0.495   0.520   0.020
    1UNK    H10   36  -0.470   0.539  -0.153
    1UNK    H11   37  -0.284   0.282  -0.187
    1UNK    H12   38  -0.404   0.354  -0.294
    1UNK    H13   39  -0.408   0.066  -0.191
    1UNK    H14   40  -0.369   0.122  -0.355
    1UNK    H15   41  -0.713   0.022  -0.378
    1UNK    H16   42  -0.597  -0.061  -0.272
    1UNK    H17   43  -0.549  -0.011  -0.437
   1.00000   1.00000   1.00000

