
;
; GENERATED BY LigParGen Server
; Jorgensen Lab @ Yale University 
;
[ atomtypes ]
  opls_807  O807    15.9990     0.000    A    2.96000E-01   8.78640E-01
  opls_818  H818     1.0080     0.000    A    2.50000E-01   1.25520E-01
  opls_814  C814    12.0110     0.000    A    3.50000E-01   2.76144E-01
  opls_824  H824     1.0080     0.000    A    2.50000E-01   1.25520E-01
  opls_805  C805    12.0110     0.000    A    3.50000E-01   2.76144E-01
  opls_836  H836     1.0080     0.000    A    2.50000E-01   1.25520E-01
  opls_834  H834     1.0080     0.000    A    2.50000E-01   1.25520E-01
  opls_828  H828     1.0080     0.000    A    2.50000E-01   1.25520E-01
  opls_815  O815    15.9990     0.000    A    2.90000E-01   5.85760E-01
  opls_802  C802    12.0110     0.000    A    3.50000E-01   2.76144E-01
  opls_827  H827     1.0080     0.000    A    2.50000E-01   1.25520E-01
  opls_801  C801    12.0110     0.000    A    3.50000E-01   2.76144E-01
  opls_838  H838     1.0080     0.000    A    2.50000E-01   1.25520E-01
  opls_822  H822     1.0080     0.000    A    2.50000E-01   1.25520E-01
  opls_803  C803    12.0110     0.000    A    3.50000E-01   2.76144E-01
  opls_825  H825     1.0080     0.000    A    2.50000E-01   1.25520E-01
  opls_830  H830     1.0080     0.000    A    2.50000E-01   1.25520E-01
  opls_810  O810    15.9990     0.000    A    2.96000E-01   8.78640E-01
  opls_804  C804    12.0110     0.000    A    3.50000E-01   2.76144E-01
  opls_842  H842     1.0080     0.000    A    2.50000E-01   1.25520E-01
  opls_820  H820     1.0080     0.000    A    2.50000E-01   1.25520E-01
  opls_809  C809    12.0110     0.000    A    3.55000E-01   2.92880E-01
  opls_837  H837     1.0080     0.000    A    2.50000E-01   1.25520E-01
  opls_821  H821     1.0080     0.000    A    2.50000E-01   1.25520E-01
  opls_831  H831     1.0080     0.000    A    2.50000E-01   1.25520E-01
  opls_832  H832     1.0080     0.000    A    2.50000E-01   1.25520E-01
  opls_800  C800    12.0110     0.000    A    3.50000E-01   2.76144E-01
  opls_811  C811    12.0110     0.000    A    3.50000E-01   2.76144E-01
  opls_806  C806    12.0110     0.000    A    3.55000E-01   2.92880E-01
  opls_823  H823     1.0080     0.000    A    2.50000E-01   1.25520E-01
  opls_813  C813    12.0110     0.000    A    3.50000E-01   2.76144E-01
  opls_826  H826     1.0080     0.000    A    2.50000E-01   1.25520E-01
  opls_835  H835     1.0080     0.000    A    2.50000E-01   1.25520E-01
  opls_841  H841     1.0080     0.000    A    2.50000E-01   1.25520E-01
  opls_819  H819     1.0080     0.000    A    2.50000E-01   1.25520E-01
  opls_816  C816    12.0110     0.000    A    3.50000E-01   2.76144E-01
  opls_833  H833     1.0080     0.000    A    2.50000E-01   1.25520E-01
  opls_839  H839     1.0080     0.000    A    2.50000E-01   1.25520E-01
  opls_812  C812    12.0110     0.000    A    3.50000E-01   2.76144E-01
  opls_808  C808    12.0110     0.000    A    3.50000E-01   2.76144E-01
  opls_817  H817     1.0080     0.000    A    2.50000E-01   1.25520E-01
  opls_829  H829     1.0080     0.000    A    2.50000E-01   1.25520E-01
  opls_840  H840     1.0080     0.000    A    2.50000E-01   1.25520E-01
[ moleculetype ]
; Name               nrexcl
UNK                   3
[ atoms ]
;   nr       type  resnr residue  atom   cgnr     charge       mass  
     1   opls_800      1    UNK   C00      1    -0.2386    12.0110 
     2   opls_801      1    UNK   C01      1    -0.1796    12.0110 
     3   opls_802      1    UNK   C02      1    -0.1648    12.0110 
     4   opls_803      1    UNK   C03      1    -0.0851    12.0110 
     5   opls_804      1    UNK   C04      1    -0.2313    12.0110 
     6   opls_805      1    UNK   C05      1    -0.2405    12.0110 
     7   opls_806      1    UNK   C06      1     0.3915    12.0110 
     8   opls_807      1    UNK   O07      1    -0.4432    15.9990 
     9   opls_808      1    UNK   C08      1    -0.2404    12.0110 
    10   opls_809      1    UNK   C09      1     0.3342    12.0110 
    11   opls_810      1    UNK   O0A      1    -0.4405    15.9990 
    12   opls_811      1    UNK   C0B      1    -0.0868    12.0110 
    13   opls_812      1    UNK   C0C      1    -0.2424    12.0110 
    14   opls_813      1    UNK   C0D      1    -0.1774    12.0110 
    15   opls_814      1    UNK   C0E      1     0.0022    12.0110 
    16   opls_815      1    UNK   O0F      1    -0.3806    15.9990 
    17   opls_816      1    UNK   C0G      1    -0.0538    12.0110 
    18   opls_817      1    UNK   H0H      1     0.0826     1.0080 
    19   opls_818      1    UNK   H0I      1     0.0826     1.0080 
    20   opls_819      1    UNK   H0J      1     0.0826     1.0080 
    21   opls_820      1    UNK   H0K      1     0.0884     1.0080 
    22   opls_821      1    UNK   H0M      1     0.0884     1.0080 
    23   opls_822      1    UNK   H0N      1     0.1021     1.0080 
    24   opls_823      1    UNK   H0O      1     0.1021     1.0080 
    25   opls_824      1    UNK   H0P      1     0.0912     1.0080 
    26   opls_825      1    UNK   H0Q      1     0.0912     1.0080 
    27   opls_826      1    UNK   H0R      1     0.0912     1.0080 
    28   opls_827      1    UNK   H0S      1     0.0976     1.0080 
    29   opls_828      1    UNK   H0T      1     0.0976     1.0080 
    30   opls_829      1    UNK   H0U      1     0.0976     1.0080 
    31   opls_830      1    UNK   H0V      1     0.1467     1.0080 
    32   opls_831      1    UNK   H0W      1     0.1268     1.0080 
    33   opls_832      1    UNK   H0X      2     0.1189     1.0080 
    34   opls_833      1    UNK   H0Y      2     0.0912     1.0080 
    35   opls_834      1    UNK   H0Z      2     0.0912     1.0080 
    36   opls_835      1    UNK   H10      2     0.0912     1.0080 
    37   opls_836      1    UNK   H11      2      0.108     1.0080 
    38   opls_837      1    UNK   H12      2      0.108     1.0080 
    39   opls_838      1    UNK   H13      2     0.0755     1.0080 
    40   opls_839      1    UNK   H14      2     0.0755     1.0080 
    41   opls_840      1    UNK   H15      2      0.083     1.0080 
    42   opls_841      1    UNK   H16      2      0.083     1.0080 
    43   opls_842      1    UNK   H17      2      0.083     1.0080 
[ bonds ]
    2     1     1      0.1529 224262.400
    3     2     1      0.1529 224262.400
    4     3     1      0.1529 224262.400
    5     4     1      0.1529 224262.400
    6     4     1      0.1529 224262.400
    7     4     1      0.1522 265265.600
    8     7     1      0.1229 476976.000
    9     7     1      0.1522 265265.600
   10     9     1      0.1522 265265.600
   11    10     1      0.1229 476976.000
   12     9     1      0.1529 224262.400
   13    12     1      0.1529 224262.400
   14    12     1      0.1529 224262.400
   15    14     1      0.1529 224262.400
   16    15     1      0.1410 267776.000
   17    16     1      0.1410 267776.000
   18     1     1      0.1090 284512.000
   19     1     1      0.1090 284512.000
   20     1     1      0.1090 284512.000
   21     2     1      0.1090 284512.000
   22     2     1      0.1090 284512.000
   23     3     1      0.1090 284512.000
   24     3     1      0.1090 284512.000
   25     5     1      0.1090 284512.000
   26     5     1      0.1090 284512.000
   27     5     1      0.1090 284512.000
   28     6     1      0.1090 284512.000
   29     6     1      0.1090 284512.000
   30     6     1      0.1090 284512.000
   31     9     1      0.1090 284512.000
   32    10     1      0.1090 284512.000
   33    12     1      0.1090 284512.000
   34    13     1      0.1090 284512.000
   35    13     1      0.1090 284512.000
   36    13     1      0.1090 284512.000
   37    14     1      0.1090 284512.000
   38    14     1      0.1090 284512.000
   39    15     1      0.1090 284512.000
   40    15     1      0.1090 284512.000
   41    17     1      0.1090 284512.000
   42    17     1      0.1090 284512.000
   43    17     1      0.1090 284512.000

[ angles ]
;  ai    aj    ak funct            c0            c1            c2            c3 
    1     2     3     1    112.700    488.273
    2     3     4     1    112.700    488.273
    3     4     5     1    112.700    488.273
    3     4     6     1    112.700    488.273
    3     4     7     1    111.100    527.184
    4     7     8     1    120.400    669.440
    4     7     9     1    116.000    585.760
    7     9    10     1    111.100    527.184
    9    10    11     1    120.400    669.440
    7     9    12     1    111.100    527.184
    9    12    13     1    112.700    488.273
    9    12    14     1    112.700    488.273
   12    14    15     1    112.700    488.273
   14    15    16     1    109.500    418.400
   15    16    17     1    109.500    502.080
    2     1    18     1    110.700    313.800
    2     1    19     1    110.700    313.800
    2     1    20     1    110.700    313.800
    1     2    21     1    110.700    313.800
    1     2    22     1    110.700    313.800
    2     3    23     1    110.700    313.800
    2     3    24     1    110.700    313.800
    4     5    25     1    110.700    313.800
    4     5    26     1    110.700    313.800
    4     5    27     1    110.700    313.800
    4     6    28     1    110.700    313.800
    4     6    29     1    110.700    313.800
    4     6    30     1    110.700    313.800
    7     9    31     1    109.500    292.880
    9    10    32     1    115.000    292.880
    9    12    33     1    110.700    313.800
   12    13    34     1    110.700    313.800
   12    13    35     1    110.700    313.800
   12    13    36     1    110.700    313.800
   12    14    37     1    110.700    313.800
   12    14    38     1    110.700    313.800
   14    15    39     1    110.700    313.800
   14    15    40     1    110.700    313.800
   16    17    41     1    109.500    292.880
   16    17    42     1    109.500    292.880
   16    17    43     1    109.500    292.880
    5     4     6     1    112.700    488.273
   12     9    31     1    110.700    313.800
   16    15    40     1    109.500    292.880
   37    14    38     1    107.800    276.144
   13    12    33     1    110.700    313.800
   25     5    27     1    107.800    276.144
    3     2    21     1    110.700    313.800
    6     4     7     1    111.100    527.184
   10     9    31     1    109.500    292.880
   34    13    35     1    107.800    276.144
   23     3    24     1    107.800    276.144
   26     5    27     1    107.800    276.144
    8     7     9     1    120.400    669.440
   35    13    36     1    107.800    276.144
   11    10    32     1    123.000    292.880
   41    17    43     1    107.800    276.144
   10     9    12     1    111.100    527.184
   14    12    33     1    110.700    313.800
    4     3    23     1    110.700    313.800
    3     2    22     1    110.700    313.800
   16    15    39     1    109.500    292.880
   15    14    37     1    110.700    313.800
   18     1    19     1    107.800    276.144
   28     6    30     1    107.800    276.144
   25     5    26     1    107.800    276.144
   13    12    14     1    112.700    488.273
    4     3    24     1    110.700    313.800
   34    13    36     1    107.800    276.144
   41    17    42     1    107.800    276.144
   21     2    22     1    107.800    276.144
   18     1    20     1    107.800    276.144
   15    14    38     1    110.700    313.800
   29     6    30     1    107.800    276.144
   39    15    40     1    107.800    276.144
   19     1    20     1    107.800    276.144
   42    17    43     1    107.800    276.144
    5     4     7     1    111.100    527.184
   28     6    29     1    107.800    276.144

[ dihedrals ]
; IMPROPER DIHEDRAL ANGLES 
;  ai    aj    ak    al funct            c0            c1            c2            c3            c4            c5
     9     7     4     8    4        180.000     43.932     2  
    32    10     9    11    4        180.000     43.932     2  

[ dihedrals ]
; PROPER DIHEDRAL ANGLES
;  ai    aj    ak    al funct            c0            c1            c2            c3            c4            c5
   10    9    7    4        3       0.818  -7.906   0.602   6.485  -0.000   0.000
   10    9    7    8        3       0.000   0.000   0.000  -0.000  -0.000   0.000
    7    4    3    2        3      -4.960   6.286   1.310  -2.636  -0.000   0.000
    9    7    4    3        3       0.818  -7.906   0.602   6.485  -0.000   0.000
    9    7    4    5        3       0.818  -7.906   0.602   6.485  -0.000   0.000
    9    7    4    6        3       0.818  -7.906   0.602   6.485  -0.000   0.000
   12    9    7    4        3       0.818  -7.906   0.602   6.485  -0.000   0.000
   12    9   10   11        3       0.000   0.000   0.000  -0.000  -0.000   0.000
   12    9    7    8        3       0.000   0.000   0.000  -0.000  -0.000   0.000
   13   12    9   10        3      -4.960   6.286   1.310  -2.636  -0.000   0.000
   14   12    9   10        3      -4.960   6.286   1.310  -2.636  -0.000   0.000
   14   12    9    7        3      -4.960   6.286   1.310  -2.636  -0.000   0.000
   13   12    9    7        3      -4.960   6.286   1.310  -2.636  -0.000   0.000
    4    3    2    1        3       2.301  -1.464   0.837  -1.674  -0.000   0.000
    6    4    3    2        3       2.301  -1.464   0.837  -1.674  -0.000   0.000
   15   14   12   13        3       2.301  -1.464   0.837  -1.674  -0.000   0.000
   15   14   12    9        3       2.301  -1.464   0.837  -1.674  -0.000   0.000
    5    4    3    2        3       2.301  -1.464   0.837  -1.674  -0.000   0.000
   17   16   15   14        3       1.715   2.845   1.046  -5.607  -0.000   0.000
   32   10    9    7        3       0.000   0.000   0.000  -0.000  -0.000   0.000
   32   10    9   12        3       0.000   0.000   0.000  -0.000  -0.000   0.000
   32   10    9   31        3       0.753   2.259   0.000  -3.012  -0.000   0.000
   31    9    7    4        3       0.575   1.726   0.000  -2.301  -0.000   0.000
   31    9   10   11        3       0.000   0.000   0.000  -0.000  -0.000   0.000
   31    9    7    8        3       0.000   0.000   0.000  -0.000  -0.000   0.000
   33   12    9    7        3      -0.209  -0.628   0.000   0.837  -0.000   0.000
   24    3    4    7        3      -0.209  -0.628   0.000   0.837  -0.000   0.000
   30    6    4    7        3      -0.209  -0.628   0.000   0.837  -0.000   0.000
   27    5    4    7        3      -0.209  -0.628   0.000   0.837  -0.000   0.000
   25    5    4    7        3      -0.209  -0.628   0.000   0.837  -0.000   0.000
   29    6    4    7        3      -0.209  -0.628   0.000   0.837  -0.000   0.000
   23    3    4    7        3      -0.209  -0.628   0.000   0.837  -0.000   0.000
   33   12    9   10        3      -0.209  -0.628   0.000   0.837  -0.000   0.000
   26    5    4    7        3      -0.209  -0.628   0.000   0.837  -0.000   0.000
   28    6    4    7        3      -0.209  -0.628   0.000   0.837  -0.000   0.000
   22    2    3    4        3       0.628   1.883   0.000  -2.510  -0.000   0.000
   36   13   12   14        3       0.628   1.883   0.000  -2.510  -0.000   0.000
   26    5    4    6        3       0.628   1.883   0.000  -2.510  -0.000   0.000
   35   13   12    9        3       0.628   1.883   0.000  -2.510  -0.000   0.000
   35   13   12   14        3       0.628   1.883   0.000  -2.510  -0.000   0.000
   34   13   12   14        3       0.628   1.883   0.000  -2.510  -0.000   0.000
   30    6    4    3        3       0.628   1.883   0.000  -2.510  -0.000   0.000
   26    5    4    3        3       0.628   1.883   0.000  -2.510  -0.000   0.000
   27    5    4    6        3       0.628   1.883   0.000  -2.510  -0.000   0.000
   31    9   12   13        3       0.628   1.883   0.000  -2.510  -0.000   0.000
   20    1    2    3        3       0.628   1.883   0.000  -2.510  -0.000   0.000
   24    3    4    5        3       0.628   1.883   0.000  -2.510  -0.000   0.000
   23    3    4    6        3       0.628   1.883   0.000  -2.510  -0.000   0.000
   24    3    2    1        3       0.628   1.883   0.000  -2.510  -0.000   0.000
   39   15   14   12        3       0.628   1.883   0.000  -2.510  -0.000   0.000
   21    2    3    4        3       0.628   1.883   0.000  -2.510  -0.000   0.000
   29    6    4    3        3       0.628   1.883   0.000  -2.510  -0.000   0.000
   24    3    4    6        3       0.628   1.883   0.000  -2.510  -0.000   0.000
   37   14   12   13        3       0.628   1.883   0.000  -2.510  -0.000   0.000
   29    6    4    5        3       0.628   1.883   0.000  -2.510  -0.000   0.000
   23    3    2    1        3       0.628   1.883   0.000  -2.510  -0.000   0.000
   31    9   12   14        3       0.628   1.883   0.000  -2.510  -0.000   0.000
   30    6    4    5        3       0.628   1.883   0.000  -2.510  -0.000   0.000
   33   12   14   15        3       0.628   1.883   0.000  -2.510  -0.000   0.000
   37   14   12    9        3       0.628   1.883   0.000  -2.510  -0.000   0.000
   19    1    2    3        3       0.628   1.883   0.000  -2.510  -0.000   0.000
   38   14   12    9        3       0.628   1.883   0.000  -2.510  -0.000   0.000
   40   15   14   12        3       0.628   1.883   0.000  -2.510  -0.000   0.000
   25    5    4    6        3       0.628   1.883   0.000  -2.510  -0.000   0.000
   23    3    4    5        3       0.628   1.883   0.000  -2.510  -0.000   0.000
   36   13   12    9        3       0.628   1.883   0.000  -2.510  -0.000   0.000
   27    5    4    3        3       0.628   1.883   0.000  -2.510  -0.000   0.000
   34   13   12    9        3       0.628   1.883   0.000  -2.510  -0.000   0.000
   28    6    4    5        3       0.628   1.883   0.000  -2.510  -0.000   0.000
   38   14   12   13        3       0.628   1.883   0.000  -2.510  -0.000   0.000
   28    6    4    3        3       0.628   1.883   0.000  -2.510  -0.000   0.000
   18    1    2    3        3       0.628   1.883   0.000  -2.510  -0.000   0.000
   25    5    4    3        3       0.628   1.883   0.000  -2.510  -0.000   0.000
   40   15   14   38        3       0.628   1.883   0.000  -2.510  -0.000   0.000
   33   12    9   31        3       0.628   1.883   0.000  -2.510  -0.000   0.000
   40   15   14   37        3       0.628   1.883   0.000  -2.510  -0.000   0.000
   22    2    1   18        3       0.628   1.883   0.000  -2.510  -0.000   0.000
   23    3    2   21        3       0.628   1.883   0.000  -2.510  -0.000   0.000
   21    2    1   19        3       0.628   1.883   0.000  -2.510  -0.000   0.000
   38   14   12   33        3       0.628   1.883   0.000  -2.510  -0.000   0.000
   22    2    1   20        3       0.628   1.883   0.000  -2.510  -0.000   0.000
   21    2    1   18        3       0.628   1.883   0.000  -2.510  -0.000   0.000
   23    3    2   22        3       0.628   1.883   0.000  -2.510  -0.000   0.000
   24    3    2   21        3       0.628   1.883   0.000  -2.510  -0.000   0.000
   36   13   12   33        3       0.628   1.883   0.000  -2.510  -0.000   0.000
   34   13   12   33        3       0.628   1.883   0.000  -2.510  -0.000   0.000
   39   15   14   38        3       0.628   1.883   0.000  -2.510  -0.000   0.000
   24    3    2   22        3       0.628   1.883   0.000  -2.510  -0.000   0.000
   35   13   12   33        3       0.628   1.883   0.000  -2.510  -0.000   0.000
   37   14   12   33        3       0.628   1.883   0.000  -2.510  -0.000   0.000
   22    2    1   19        3       0.628   1.883   0.000  -2.510  -0.000   0.000
   21    2    1   20        3       0.628   1.883   0.000  -2.510  -0.000   0.000
   39   15   14   37        3       0.628   1.883   0.000  -2.510  -0.000   0.000
   37   14   15   16        3       0.979   2.937   0.000  -3.916  -0.000   0.000
   38   14   15   16        3       0.979   2.937   0.000  -3.916  -0.000   0.000
   40   15   16   17        3       1.590   4.770   0.000  -6.360  -0.000   0.000
   42   17   16   15        3       1.590   4.770   0.000  -6.360  -0.000   0.000
   43   17   16   15        3       1.590   4.770   0.000  -6.360  -0.000   0.000
   39   15   16   17        3       1.590   4.770   0.000  -6.360  -0.000   0.000
   41   17   16   15        3       1.590   4.770   0.000  -6.360  -0.000   0.000
   11   10    9    7        3       0.000   0.000   0.000  -0.000  -0.000   0.000
    8    7    4    6        3       0.000   0.000   0.000  -0.000  -0.000   0.000
    8    7    4    5        3       0.000   0.000   0.000  -0.000  -0.000   0.000
    8    7    4    3        3       0.000   0.000   0.000  -0.000  -0.000   0.000
   16   15   14   12        3       2.874   0.582   2.092  -5.548  -0.000   0.000

[ pairs ]
     1     4    1
     2     5    1
     2     6    1
     2     7    1
     3     8    1
     3     9    1
     5     8    1
     6     8    1
     5     9    1
     4    10    1
     6     9    1
     4    12    1
     8    10    1
     7    11    1
     8    12    1
     7    13    1
     7    14    1
     3    18    1
     3    19    1
    11    12    1
    10    13    1
     3    20    1
    10    14    1
     9    15    1
     1    23    1
     4    21    1
     1    24    1
     4    22    1
    13    15    1
    12    16    1
     5    23    1
     3    25    1
     6    23    1
     5    24    1
     3    26    1
     7    23    1
     6    24    1
     3    27    1
    14    17    1
     7    24    1
     6    25    1
     3    28    1
     7    25    1
     6    26    1
     3    29    1
     7    26    1
     6    27    1
     5    28    1
     3    30    1
     7    27    1
     5    29    1
     7    28    1
     5    30    1
     4    31    1
     7    29    1
     7    30    1
    18    21    1
     8    31    1
     7    32    1
    19    21    1
    18    22    1
     7    33    1
    20    21    1
    19    22    1
    20    22    1
    11    31    1
    10    33    1
     9    34    1
    21    23    1
    13    31    1
    12    32    1
     9    35    1
    22    23    1
    21    24    1
    14    31    1
     9    36    1
    22    24    1
     9    37    1
     9    38    1
    15    33    1
    14    34    1
    14    35    1
    14    36    1
    13    37    1
    13    38    1
    12    39    1
    12    40    1
    16    37    1
    16    38    1
    17    39    1
    15    41    1
    17    40    1
    15    42    1
    15    43    1
    31    32    1
    31    33    1
    33    34    1
    33    35    1
    33    36    1
    33    37    1
    33    38    1
    37    39    1
    38    39    1
    37    40    1
    38    40    1

