
;
; GENERATED BY LigParGen Server
; Jorgensen Lab @ Yale University 
;
[ atomtypes ]
  opls_807  O807    15.9990     0.000    A    2.96000E-01   8.78640E-01
  opls_818  H818     1.0080     0.000    A    2.50000E-01   1.25520E-01
  opls_824  H824     1.0080     0.000    A    2.50000E-01   1.25520E-01
  opls_804  C804    12.0110     0.000    A    3.50000E-01   2.76144E-01
  opls_813  H813     1.0080     0.000    A    2.50000E-01   1.25520E-01
  opls_815  H815     1.0080     0.000    A    2.50000E-01   1.25520E-01
  opls_809  C809    12.0110     0.000    A    3.50000E-01   2.76144E-01
  opls_822  H822     1.0080     0.000    A    2.50000E-01   1.25520E-01
  opls_803  C803    12.0110     0.000    A    3.50000E-01   2.76144E-01
  opls_814  H814     1.0080     0.000    A    2.50000E-01   1.25520E-01
  opls_821  H821     1.0080     0.000    A    2.50000E-01   1.25520E-01
  opls_820  H820     1.0080     0.000    A    2.50000E-01   1.25520E-01
  opls_811  H811     1.0080     0.000    A    2.50000E-01   1.25520E-01
  opls_816  H816     1.0080     0.000    A    2.50000E-01   1.25520E-01
  opls_800  C800    12.0110     0.000    A    3.50000E-01   2.76144E-01
  opls_823  H823     1.0080     0.000    A    2.50000E-01   1.25520E-01
  opls_806  C806    12.0110     0.000    A    3.55000E-01   2.92880E-01
  opls_805  O805    15.9990     0.000    A    2.90000E-01   5.85760E-01
  opls_819  H819     1.0080     0.000    A    2.50000E-01   1.25520E-01
  opls_810  C810    12.0110     0.000    A    3.50000E-01   2.76144E-01
  opls_802  O802    15.9990     0.000    A    2.90000E-01   5.85760E-01
  opls_801  C801    12.0110     0.000    A    3.50000E-01   2.76144E-01
  opls_817  H817     1.0080     0.000    A    2.50000E-01   1.25520E-01
  opls_812  H812     1.0080     0.000    A    2.50000E-01   1.25520E-01
  opls_808  O808    15.9990     0.000    A    2.90000E-01   5.85760E-01
[ moleculetype ]
; Name               nrexcl
UNK                   3
[ atoms ]
;   nr       type  resnr residue  atom   cgnr     charge       mass  
     1   opls_800      1    UNK   C00      1    -0.2465    12.0110 
     2   opls_801      1    UNK   C01      1     0.0118    12.0110 
     3   opls_802      1    UNK   O02      1    -0.3797    15.9990 
     4   opls_803      1    UNK   C03      1    -0.0273    12.0110 
     5   opls_804      1    UNK   C04      1     0.0153    12.0110 
     6   opls_805      1    UNK   O05      1    -0.3145    15.9990 
     7   opls_806      1    UNK   C06      1     0.5694    12.0110 
     8   opls_807      1    UNK   O07      1    -0.4922    15.9990 
     9   opls_808      1    UNK   O08      1    -0.3226    15.9990 
    10   opls_809      1    UNK   C09      1      0.015    12.0110 
    11   opls_810      1    UNK   C0A      1    -0.2799    12.0110 
    12   opls_811      1    UNK   H0B      1     0.0965     1.0080 
    13   opls_812      1    UNK   H0C      1     0.0965     1.0080 
    14   opls_813      1    UNK   H0D      1     0.0965     1.0080 
    15   opls_814      1    UNK   H0E      1     0.0782     1.0080 
    16   opls_815      1    UNK   H0F      1     0.0782     1.0080 
    17   opls_816      1    UNK   H0G      1     0.0917     1.0080 
    18   opls_817      1    UNK   H0H      1     0.0917     1.0080 
    19   opls_818      1    UNK   H0I      1     0.1348     1.0080 
    20   opls_819      1    UNK   H0J      1     0.1348     1.0080 
    21   opls_820      1    UNK   H0K      1     0.1258     1.0080 
    22   opls_821      1    UNK   H0M      1     0.1258     1.0080 
    23   opls_822      1    UNK   H0N      1     0.1002     1.0080 
    24   opls_823      1    UNK   H0O      1     0.1002     1.0080 
    25   opls_824      1    UNK   H0P      1     0.1002     1.0080 
[ bonds ]
    2     1     1      0.1529 224262.400
    3     2     1      0.1410 267776.000
    4     3     1      0.1410 267776.000
    5     4     1      0.1529 224262.400
    6     5     1      0.1410 267776.000
    7     6     1      0.1327 179075.200
    8     7     1      0.1229 476976.000
    9     7     1      0.1327 179075.200
   10     9     1      0.1410 267776.000
   11    10     1      0.1529 224262.400
   12     1     1      0.1090 284512.000
   13     1     1      0.1090 284512.000
   14     1     1      0.1090 284512.000
   15     2     1      0.1090 284512.000
   16     2     1      0.1090 284512.000
   17     4     1      0.1090 284512.000
   18     4     1      0.1090 284512.000
   19     5     1      0.1090 284512.000
   20     5     1      0.1090 284512.000
   21    10     1      0.1090 284512.000
   22    10     1      0.1090 284512.000
   23    11     1      0.1090 284512.000
   24    11     1      0.1090 284512.000
   25    11     1      0.1090 284512.000

[ angles ]
;  ai    aj    ak funct            c0            c1            c2            c3 
    1     2     3     1    109.500    418.400
    2     3     4     1    109.500    502.080
    3     4     5     1    109.500    418.400
    4     5     6     1    109.500    418.400
    5     6     7     1    116.900    694.544
    6     7     8     1    123.400    694.544
    6     7     9     1    118.180    584.923
    7     9    10     1    116.900    694.544
    9    10    11     1    109.500    418.400
    2     1    12     1    110.700    313.800
    2     1    13     1    110.700    313.800
    2     1    14     1    110.700    313.800
    1     2    15     1    110.700    313.800
    1     2    16     1    110.700    313.800
    3     4    17     1    109.500    292.880
    3     4    18     1    109.500    292.880
    4     5    19     1    110.700    313.800
    4     5    20     1    110.700    313.800
    9    10    21     1    109.500    292.880
    9    10    22     1    109.500    292.880
   10    11    23     1    110.700    313.800
   10    11    24     1    110.700    313.800
   10    11    25     1    110.700    313.800
   13     1    14     1    107.800    276.144
   15     2    16     1    107.800    276.144
   24    11    25     1    107.800    276.144
    3     2    15     1    109.500    292.880
   11    10    21     1    110.700    313.800
    6     5    19     1    109.500    292.880
    8     7     9     1    123.400    694.544
   17     4    18     1    107.800    276.144
   12     1    14     1    107.800    276.144
    3     2    16     1    109.500    292.880
   19     5    20     1    107.800    276.144
   12     1    13     1    107.800    276.144
    6     5    20     1    109.500    292.880
   11    10    22     1    110.700    313.800
   23    11    24     1    107.800    276.144
   23    11    25     1    107.800    276.144
    5     4    18     1    110.700    313.800
   21    10    22     1    107.800    276.144
    5     4    17     1    110.700    313.800

[ dihedrals ]
; IMPROPER DIHEDRAL ANGLES 
;  ai    aj    ak    al funct            c0            c1            c2            c3            c4            c5
     9     7     6     8    4        180.000     43.932     2  

[ dihedrals ]
; PROPER DIHEDRAL ANGLES
;  ai    aj    ak    al funct            c0            c1            c2            c3            c4            c5
    7    6    5    4        3      -2.197   5.201   0.527  -3.531  -0.000   0.000
   11   10    9    7        3      -2.197   5.201   0.527  -3.531  -0.000   0.000
    5    4    3    2        3       1.715   2.845   1.046  -5.607  -0.000   0.000
   10    9    7    8        3      21.439   0.000  -21.439  -0.000  -0.000   0.000
   10    9    7    6        3      31.206  -9.768  -21.439  -0.000  -0.000   0.000
    4    3    2    1        3       1.715   2.845   1.046  -5.607  -0.000   0.000
   20    5    4   17        3       0.628   1.883   0.000  -2.510  -0.000   0.000
   15    2    1   12        3       0.628   1.883   0.000  -2.510  -0.000   0.000
   20    5    4   18        3       0.628   1.883   0.000  -2.510  -0.000   0.000
   19    5    4   17        3       0.628   1.883   0.000  -2.510  -0.000   0.000
   23   11   10   22        3       0.628   1.883   0.000  -2.510  -0.000   0.000
   16    2    1   13        3       0.628   1.883   0.000  -2.510  -0.000   0.000
   23   11   10   21        3       0.628   1.883   0.000  -2.510  -0.000   0.000
   25   11   10   21        3       0.628   1.883   0.000  -2.510  -0.000   0.000
   15    2    1   13        3       0.628   1.883   0.000  -2.510  -0.000   0.000
   24   11   10   21        3       0.628   1.883   0.000  -2.510  -0.000   0.000
   19    5    4   18        3       0.628   1.883   0.000  -2.510  -0.000   0.000
   25   11   10   22        3       0.628   1.883   0.000  -2.510  -0.000   0.000
   16    2    1   14        3       0.628   1.883   0.000  -2.510  -0.000   0.000
   15    2    1   14        3       0.628   1.883   0.000  -2.510  -0.000   0.000
   24   11   10   22        3       0.628   1.883   0.000  -2.510  -0.000   0.000
   16    2    1   12        3       0.628   1.883   0.000  -2.510  -0.000   0.000
   19    5    4    3        3       0.979   2.937   0.000  -3.916  -0.000   0.000
   24   11   10    9        3       0.979   2.937   0.000  -3.916  -0.000   0.000
   18    4    5    6        3       0.979   2.937   0.000  -3.916  -0.000   0.000
   17    4    5    6        3       0.979   2.937   0.000  -3.916  -0.000   0.000
   14    1    2    3        3       0.979   2.937   0.000  -3.916  -0.000   0.000
   23   11   10    9        3       0.979   2.937   0.000  -3.916  -0.000   0.000
   12    1    2    3        3       0.979   2.937   0.000  -3.916  -0.000   0.000
   13    1    2    3        3       0.979   2.937   0.000  -3.916  -0.000   0.000
   25   11   10    9        3       0.979   2.937   0.000  -3.916  -0.000   0.000
   20    5    4    3        3       0.979   2.937   0.000  -3.916  -0.000   0.000
   22   10    9    7        3       0.414   1.243   0.000  -1.657  -0.000   0.000
   19    5    6    7        3       0.414   1.243   0.000  -1.657  -0.000   0.000
   20    5    6    7        3       0.414   1.243   0.000  -1.657  -0.000   0.000
   21   10    9    7        3       0.414   1.243   0.000  -1.657  -0.000   0.000
   16    2    3    4        3       1.590   4.770   0.000  -6.360  -0.000   0.000
   15    2    3    4        3       1.590   4.770   0.000  -6.360  -0.000   0.000
   17    4    3    2        3       1.590   4.770   0.000  -6.360  -0.000   0.000
   18    4    3    2        3       1.590   4.770   0.000  -6.360  -0.000   0.000
    8    7    6    5        3      21.439   0.000  -21.439  -0.000  -0.000   0.000
    9    7    6    5        3      31.206  -9.768  -21.439  -0.000  -0.000   0.000
    6    5    4    3        3      -1.151   1.151   0.000  -0.000  -0.000   0.000

[ pairs ]
     1     4    1
     2     5    1
     3     6    1
     4     7    1
     5     8    1
     5     9    1
     3    12    1
     6    10    1
     3    13    1
     3    14    1
     8    10    1
     7    11    1
     4    15    1
     2    17    1
     4    16    1
     2    18    1
     3    19    1
     6    17    1
     3    20    1
     6    18    1
     7    19    1
    12    15    1
     7    20    1
    13    15    1
    12    16    1
     7    21    1
    14    15    1
    13    16    1
     7    22    1
    14    16    1
     9    23    1
     9    24    1
     9    25    1
    17    19    1
    18    19    1
    17    20    1
    18    20    1
    21    23    1
    22    23    1
    21    24    1
    22    24    1
    21    25    1
    22    25    1

