LIGPARGEN GENERATED GRO FILE
   25
    1UNK    C00    1   0.100   0.100   0.000
    1UNK    C01    2  -0.052   0.100   0.000
    1UNK    O02    3  -0.097   0.100   0.135
    1UNK    C03    4  -0.239   0.094   0.143
    1UNK    C04    5  -0.282   0.085   0.289
    1UNK    O05    6  -0.425   0.079   0.303
    1UNK    C06    7  -0.480  -0.040   0.266
    1UNK    O07    8  -0.418  -0.139   0.229
    1UNK    O08    9  -0.615  -0.025   0.265
    1UNK    C09   10  -0.685  -0.125   0.191
    1UNK    C0A   11  -0.692  -0.082   0.046
    1UNK    H0B   12   0.139   0.100  -0.102
    1UNK    H0C   13   0.139   0.012   0.052
    1UNK    H0D   14   0.139   0.188   0.053
    1UNK    H0E   15  -0.088   0.011  -0.052
    1UNK    H0F   16  -0.089   0.189  -0.051
    1UNK    H0G   17  -0.275   0.007   0.086
    1UNK    H0H   18  -0.283   0.183   0.097
    1UNK    H0I   19  -0.248   0.175   0.342
    1UNK    H0J   20  -0.234   0.000   0.340
    1UNK    H0K   21  -0.786  -0.132   0.233
    1UNK    H0M   22  -0.639  -0.224   0.202
    1UNK    H0N   23  -0.742   0.015   0.037
    1UNK    H0O   24  -0.746  -0.156  -0.015
    1UNK    H0P   25  -0.591  -0.069   0.004
   1.00000   1.00000   1.00000

