
;
; GENERATED BY LigParGen Server
; Jorgensen Lab @ Yale University 
;
[ atomtypes ]
  opls_818  H818     1.0080     0.000    A    2.50000E-01   1.25520E-01
  opls_804  C804    12.0110     0.000    A    3.50000E-01   2.76144E-01
  opls_814  C814    12.0110     0.000    A    3.50000E-01   2.76144E-01
  opls_824  H824     1.0080     0.000    A    2.50000E-01   1.25520E-01
  opls_810  O810    15.9990     0.000    A    2.90000E-01   5.85760E-01
  opls_836  H836     1.0080     0.000    A    2.50000E-01   1.25520E-01
  opls_834  H834     1.0080     0.000    A    2.50000E-01   1.25520E-01
  opls_828  H828     1.0080     0.000    A    2.50000E-01   1.25520E-01
  opls_815  N815    14.0070     0.000    A    3.30000E-01   7.11280E-01
  opls_802  C802    12.0110     0.000    A    3.50000E-01   2.76144E-01
  opls_827  H827     1.0080     0.000    A    2.50000E-01   1.25520E-01
  opls_809  C809    12.0110     0.000    A    3.50000E-01   2.76144E-01
  opls_838  H838     1.0080     0.000    A    2.50000E-01   1.25520E-01
  opls_822  H822     1.0080     0.000    A    2.50000E-01   1.25520E-01
  opls_803  C803    12.0110     0.000    A    3.50000E-01   2.76144E-01
  opls_825  H825     1.0080     0.000    A    2.50000E-01   1.25520E-01
  opls_830  H830     1.0080     0.000    A    2.50000E-01   1.25520E-01
  opls_821  H821     1.0080     0.000    A    2.50000E-01   1.25520E-01
  opls_842  H842     1.0080     0.000    A    2.50000E-01   1.25520E-01
  opls_820  H820     1.0080     0.000    A    2.50000E-01   1.25520E-01
  opls_837  H837     1.0080     0.000    A    2.50000E-01   1.25520E-01
  opls_829  H829     1.0080     0.000    A    2.50000E-01   1.25520E-01
  opls_831  H831     1.0080     0.000    A    2.50000E-01   1.25520E-01
  opls_812  O812    15.9990     0.000    A    2.96000E-01   8.78640E-01
  opls_832  H832     1.0080     0.000    A    2.50000E-01   1.25520E-01
  opls_800  C800    12.0110     0.000    A    3.50000E-01   2.76144E-01
  opls_805  C805    12.0110     0.000    A    3.50000E-01   2.76144E-01
  opls_806  C806    12.0110     0.000    A    3.50000E-01   2.76144E-01
  opls_811  C811    12.0110     0.000    A    3.55000E-01   2.92880E-01
  opls_823  H823     1.0080     0.000    A    2.50000E-01   1.25520E-01
  opls_813  O813    15.9990     0.000    A    2.90000E-01   5.85760E-01
  opls_826  H826     1.0080     0.000    A    2.50000E-01   1.25520E-01
  opls_835  H835     1.0080     0.000    A    2.50000E-01   1.25520E-01
  opls_841  H841     1.0080     0.000    A    2.50000E-01   1.25520E-01
  opls_819  H819     1.0080     0.000    A    2.50000E-01   1.25520E-01
  opls_816  C816    12.0110     0.000    A    3.50000E-01   2.76144E-01
  opls_833  H833     1.0080     0.000    A    2.50000E-01   1.25520E-01
  opls_839  H839     1.0080     0.000    A    2.50000E-01   1.25520E-01
  opls_817  C817    12.0110     0.000    A    3.50000E-01   2.76144E-01
  opls_801  C801    12.0110     0.000    A    3.50000E-01   2.76144E-01
  opls_808  C808    12.0110     0.000    A    3.50000E-01   2.76144E-01
  opls_807  O807    15.9990     0.000    A    2.90000E-01   5.85760E-01
  opls_840  H840     1.0080     0.000    A    2.50000E-01   1.25520E-01
[ moleculetype ]
; Name               nrexcl
UNK                   3
[ atoms ]
;   nr       type  resnr residue  atom   cgnr     charge       mass  
     1   opls_800      1    UNK   C00      1    -0.2375    12.0110 
     2   opls_801      1    UNK   C01      1    -0.1617    12.0110 
     3   opls_802      1    UNK   C02      1     -0.072    12.0110 
     4   opls_803      1    UNK   C03      1    -0.2291    12.0110 
     5   opls_804      1    UNK   C04      1    -0.1751    12.0110 
     6   opls_805      1    UNK   C05      1      0.102    12.0110 
     7   opls_806      1    UNK   C06      1    -0.0271    12.0110 
     8   opls_807      1    UNK   O07      1    -0.3639    15.9990 
     9   opls_808      1    UNK   C08      1     0.2289    12.0110 
    10   opls_809      1    UNK   C09      1    -0.2522    12.0110 
    11   opls_810      1    UNK   O0A      1    -0.3319    15.9990 
    12   opls_811      1    UNK   C0B      1     0.5731    12.0110 
    13   opls_812      1    UNK   O0C      1    -0.5006    15.9990 
    14   opls_813      1    UNK   O0D      1    -0.3136    15.9990 
    15   opls_814      1    UNK   C0E      1     -0.045    12.0110 
    16   opls_815      1    UNK   N0F      1    -0.6494    14.0070 
    17   opls_816      1    UNK   C0G      1    -0.0178    12.0110 
    18   opls_817      1    UNK   C0H      1     0.0371    12.0110 
    19   opls_818      1    UNK   H0I      1     0.0821     1.0080 
    20   opls_819      1    UNK   H0J      1     0.0821     1.0080 
    21   opls_820      1    UNK   H0K      1     0.0821     1.0080 
    22   opls_821      1    UNK   H0M      1     0.0898     1.0080 
    23   opls_822      1    UNK   H0N      1     0.0898     1.0080 
    24   opls_823      1    UNK   H0O      1     0.0829     1.0080 
    25   opls_824      1    UNK   H0P      1     0.0829     1.0080 
    26   opls_825      1    UNK   H0Q      1     0.0829     1.0080 
    27   opls_826      1    UNK   H0R      1     0.1114     1.0080 
    28   opls_827      1    UNK   H0S      1     0.1114     1.0080 
    29   opls_828      1    UNK   H0T      1     0.1268     1.0080 
    30   opls_829      1    UNK   H0U      1     0.0879     1.0080 
    31   opls_830      1    UNK   H0V      1     0.0879     1.0080 
    32   opls_831      1    UNK   H0W      1     0.1395     1.0080 
    33   opls_832      1    UNK   H0X      2     0.1118     1.0080 
    34   opls_833      1    UNK   H0Y      2     0.1118     1.0080 
    35   opls_834      1    UNK   H0Z      2     0.1118     1.0080 
    36   opls_835      1    UNK   H10      2     0.1089     1.0080 
    37   opls_836      1    UNK   H11      2     0.1089     1.0080 
    38   opls_837      1    UNK   H12      2     0.1089     1.0080 
    39   opls_838      1    UNK   H13      2     0.0809     1.0080 
    40   opls_839      1    UNK   H14      2     0.0809     1.0080 
    41   opls_840      1    UNK   H15      2     0.0809     1.0080 
    42   opls_841      1    UNK   H16      2     0.0957     1.0080 
    43   opls_842      1    UNK   H17      2     0.0957     1.0080 
[ bonds ]
    2     1     1      0.1529 224262.400
    3     2     1      0.1529 224262.400
    4     3     1      0.1529 224262.400
    5     3     1      0.1529 224262.400
    6     5     1      0.1529 224262.400
    7     6     1      0.1529 224262.400
    8     7     1      0.1410 267776.000
    9     8     1      0.1380 267776.000
   10     9     1      0.1529 224262.400
   11     9     1      0.1380 267776.000
   12    11     1      0.1327 179075.200
   13    12     1      0.1229 476976.000
   14    12     1      0.1327 179075.200
   15    14     1      0.1410 267776.000
   16     6     1      0.1448 319657.600
   17    16     1      0.1448 319657.600
   18     3     1      0.1529 224262.400
   19     1     1      0.1090 284512.000
   20     1     1      0.1090 284512.000
   21     1     1      0.1090 284512.000
   22     2     1      0.1090 284512.000
   23     2     1      0.1090 284512.000
   24     4     1      0.1090 284512.000
   25     4     1      0.1090 284512.000
   26     4     1      0.1090 284512.000
   27     5     1      0.1090 284512.000
   28     5     1      0.1090 284512.000
   29     6     1      0.1090 284512.000
   30     7     1      0.1090 284512.000
   31     7     1      0.1090 284512.000
   32     9     1      0.1090 284512.000
   33    10     1      0.1090 284512.000
   34    10     1      0.1090 284512.000
   35    10     1      0.1090 284512.000
   36    15     1      0.1090 284512.000
   37    15     1      0.1090 284512.000
   38    15     1      0.1090 284512.000
   39    17     1      0.1090 284512.000
   40    17     1      0.1090 284512.000
   41    17     1      0.1090 284512.000
   42    18     1      0.1090 284512.000
   43    18     1      0.1090 284512.000
   18    16     1      0.1448 319657.600

[ angles ]
;  ai    aj    ak funct            c0            c1            c2            c3 
    1     2     3     1    112.700    488.273
    2     3     4     1    112.700    488.273
    2     3     5     1    112.700    488.273
    3     5     6     1    112.700    488.273
    5     6     7     1    112.700    488.273
    6     7     8     1    109.500    418.400
    7     8     9     1    109.500    502.080
    8     9    10     1    109.500    418.400
    8     9    11     1    111.550    774.877
    9    11    12     1    116.900    694.544
   11    12    13     1    123.400    694.544
   11    12    14     1    118.180    584.923
   12    14    15     1    116.900    694.544
    5     6    16     1    109.470    470.282
    6    16    17     1    107.200    433.462
    2     3    18     1    112.700    488.273
    2     1    19     1    110.700    313.800
    2     1    20     1    110.700    313.800
    2     1    21     1    110.700    313.800
    1     2    22     1    110.700    313.800
    1     2    23     1    110.700    313.800
    3     4    24     1    110.700    313.800
    3     4    25     1    110.700    313.800
    3     4    26     1    110.700    313.800
    3     5    27     1    110.700    313.800
    3     5    28     1    110.700    313.800
    5     6    29     1    110.700    313.800
    6     7    30     1    110.700    313.800
    6     7    31     1    110.700    313.800
    8     9    32     1    109.500    292.880
    9    10    33     1    110.700    313.800
    9    10    34     1    110.700    313.800
    9    10    35     1    110.700    313.800
   14    15    36     1    109.500    292.880
   14    15    37     1    109.500    292.880
   14    15    38     1    109.500    292.880
   16    17    39     1    109.500    292.880
   16    17    40     1    109.500    292.880
   16    17    41     1    109.500    292.880
    3    18    42     1    110.700    313.800
    3    18    43     1    110.700    313.800
    6    16    18     1    107.200    433.462
   19     1    20     1    107.800    276.144
   13    12    14     1    123.400    694.544
   40    17    41     1    107.800    276.144
   16    18    43     1    109.500    292.880
   24     4    26     1    107.800    276.144
   39    17    41     1    107.800    276.144
   42    18    43     1    107.800    276.144
   17    16    18     1    107.200    433.462
   33    10    35     1    107.800    276.144
    3     2    22     1    110.700    313.800
    3     2    23     1    110.700    313.800
    4     3     5     1    112.700    488.273
   24     4    25     1    107.800    276.144
    6     5    27     1    110.700    313.800
    4     3    18     1    112.700    488.273
   36    15    38     1    107.800    276.144
   36    15    37     1    107.800    276.144
   19     1    21     1    107.800    276.144
   22     2    23     1    107.800    276.144
   39    17    40     1    107.800    276.144
    7     6    29     1    110.700    313.800
    5     3    18     1    112.700    488.273
    8     7    31     1    109.500    292.880
    7     6    16     1    109.470    470.282
    3    18    16     1    109.470    470.282
   25     4    26     1    107.800    276.144
   10     9    11     1    109.500    418.400
   33    10    34     1    107.800    276.144
   16     6    29     1    109.500    292.880
   34    10    35     1    107.800    276.144
   37    15    38     1    107.800    276.144
   16    18    42     1    109.500    292.880
   10     9    32     1    110.700    313.800
    8     7    30     1    109.500    292.880
   20     1    21     1    107.800    276.144
    6     5    28     1    110.700    313.800
   27     5    28     1    107.800    276.144
   11     9    32     1    109.500    292.880
   30     7    31     1    107.800    276.144

[ dihedrals ]
; IMPROPER DIHEDRAL ANGLES 
;  ai    aj    ak    al funct            c0            c1            c2            c3            c4            c5
    14    12    11    13    4        180.000     43.932     2  

[ dihedrals ]
; PROPER DIHEDRAL ANGLES
;  ai    aj    ak    al funct            c0            c1            c2            c3            c4            c5
   12   11    9   10        3       1.715   2.845   1.046  -5.607  -0.000   0.000
   12   11    9    8        3      -6.458   0.810   5.682  -0.033  -0.000   0.000
    9    8    7    6        3       1.715   2.845   1.046  -5.607  -0.000   0.000
   10    9    8    7        3       1.715   2.845   1.046  -5.607  -0.000   0.000
    4    3    2    1        3       2.301  -1.464   0.837  -1.674  -0.000   0.000
    6    5    3    2        3       2.301  -1.464   0.837  -1.674  -0.000   0.000
    7    6    5    3        3       2.301  -1.464   0.837  -1.674  -0.000   0.000
    6    5    3    4        3       2.301  -1.464   0.837  -1.674  -0.000   0.000
    5    3    2    1        3       2.301  -1.464   0.837  -1.674  -0.000   0.000
   18    3    2    1        3       2.301  -1.464   0.837  -1.674  -0.000   0.000
   18    3    5    6        3       2.301  -1.464   0.837  -1.674  -0.000   0.000
   17   16    6    7        3       1.789   3.492   0.536  -5.816  -0.000   0.000
    6   16   18    3        3       1.789   3.492   0.536  -5.816  -0.000   0.000
   18   16    6    7        3       1.789   3.492   0.536  -5.816  -0.000   0.000
   17   16   18    3        3       1.789   3.492   0.536  -5.816  -0.000   0.000
   17   16    6    5        3       1.789   3.492   0.536  -5.816  -0.000   0.000
   18   16    6    5        3       1.789   3.492   0.536  -5.816  -0.000   0.000
   15   14   12   13        3      21.439   0.000  -21.439  -0.000  -0.000   0.000
   15   14   12   11        3      31.206  -9.768  -21.439  -0.000  -0.000   0.000
   32    9   11   12        3       1.590   4.770   0.000  -6.360  -0.000   0.000
   32    9    8    7        3       1.590   4.770   0.000  -6.360  -0.000   0.000
   35   10    9   32        3       0.628   1.883   0.000  -2.510  -0.000   0.000
   34   10    9   32        3       0.628   1.883   0.000  -2.510  -0.000   0.000
   33   10    9   32        3       0.628   1.883   0.000  -2.510  -0.000   0.000
   33   10    9   11        3       0.979   2.937   0.000  -3.916  -0.000   0.000
   34   10    9    8        3       0.979   2.937   0.000  -3.916  -0.000   0.000
   35   10    9   11        3       0.979   2.937   0.000  -3.916  -0.000   0.000
   35   10    9    8        3       0.979   2.937   0.000  -3.916  -0.000   0.000
   33   10    9    8        3       0.979   2.937   0.000  -3.916  -0.000   0.000
   34   10    9   11        3       0.979   2.937   0.000  -3.916  -0.000   0.000
   28    5    6    7        3       0.628   1.883   0.000  -2.510  -0.000   0.000
   22    2    3    5        3       0.628   1.883   0.000  -2.510  -0.000   0.000
   23    2    3    4        3       0.628   1.883   0.000  -2.510  -0.000   0.000
   24    4    3   18        3       0.628   1.883   0.000  -2.510  -0.000   0.000
   22    2    3   18        3       0.628   1.883   0.000  -2.510  -0.000   0.000
   42   18    3    2        3       0.628   1.883   0.000  -2.510  -0.000   0.000
   26    4    3    5        3       0.628   1.883   0.000  -2.510  -0.000   0.000
   24    4    3    5        3       0.628   1.883   0.000  -2.510  -0.000   0.000
   23    2    3    5        3       0.628   1.883   0.000  -2.510  -0.000   0.000
   19    1    2    3        3       0.628   1.883   0.000  -2.510  -0.000   0.000
   21    1    2    3        3       0.628   1.883   0.000  -2.510  -0.000   0.000
   27    5    3    4        3       0.628   1.883   0.000  -2.510  -0.000   0.000
   30    7    6    5        3       0.628   1.883   0.000  -2.510  -0.000   0.000
   27    5    6    7        3       0.628   1.883   0.000  -2.510  -0.000   0.000
   26    4    3    2        3       0.628   1.883   0.000  -2.510  -0.000   0.000
   42   18    3    4        3       0.628   1.883   0.000  -2.510  -0.000   0.000
   28    5    3    2        3       0.628   1.883   0.000  -2.510  -0.000   0.000
   24    4    3    2        3       0.628   1.883   0.000  -2.510  -0.000   0.000
   43   18    3    4        3       0.628   1.883   0.000  -2.510  -0.000   0.000
   25    4    3    2        3       0.628   1.883   0.000  -2.510  -0.000   0.000
   22    2    3    4        3       0.628   1.883   0.000  -2.510  -0.000   0.000
   43   18    3    5        3       0.628   1.883   0.000  -2.510  -0.000   0.000
   29    6    5    3        3       0.628   1.883   0.000  -2.510  -0.000   0.000
   20    1    2    3        3       0.628   1.883   0.000  -2.510  -0.000   0.000
   42   18    3    5        3       0.628   1.883   0.000  -2.510  -0.000   0.000
   25    4    3   18        3       0.628   1.883   0.000  -2.510  -0.000   0.000
   27    5    3   18        3       0.628   1.883   0.000  -2.510  -0.000   0.000
   28    5    3   18        3       0.628   1.883   0.000  -2.510  -0.000   0.000
   25    4    3    5        3       0.628   1.883   0.000  -2.510  -0.000   0.000
   23    2    3   18        3       0.628   1.883   0.000  -2.510  -0.000   0.000
   43   18    3    2        3       0.628   1.883   0.000  -2.510  -0.000   0.000
   26    4    3   18        3       0.628   1.883   0.000  -2.510  -0.000   0.000
   28    5    3    4        3       0.628   1.883   0.000  -2.510  -0.000   0.000
   27    5    3    2        3       0.628   1.883   0.000  -2.510  -0.000   0.000
   31    7    6    5        3       0.628   1.883   0.000  -2.510  -0.000   0.000
   29    6    5   27        3       0.628   1.883   0.000  -2.510  -0.000   0.000
   23    2    1   20        3       0.628   1.883   0.000  -2.510  -0.000   0.000
   22    2    1   21        3       0.628   1.883   0.000  -2.510  -0.000   0.000
   29    6    5   28        3       0.628   1.883   0.000  -2.510  -0.000   0.000
   31    7    6   29        3       0.628   1.883   0.000  -2.510  -0.000   0.000
   22    2    1   19        3       0.628   1.883   0.000  -2.510  -0.000   0.000
   30    7    6   29        3       0.628   1.883   0.000  -2.510  -0.000   0.000
   23    2    1   19        3       0.628   1.883   0.000  -2.510  -0.000   0.000
   22    2    1   20        3       0.628   1.883   0.000  -2.510  -0.000   0.000
   23    2    1   21        3       0.628   1.883   0.000  -2.510  -0.000   0.000
   30    7    6   16        3      -4.096   5.088   2.966  -3.958  -0.000   0.000
   31    7    6   16        3      -4.096   5.088   2.966  -3.958  -0.000   0.000
   27    5    6   16        3      -4.096   5.088   2.966  -3.958  -0.000   0.000
   28    5    6   16        3      -4.096   5.088   2.966  -3.958  -0.000   0.000
   29    6    7    8        3       0.979   2.937   0.000  -3.916  -0.000   0.000
   29    6   16   18        3       1.172   3.515   0.000  -4.686  -0.000   0.000
   42   18   16   17        3       1.172   3.515   0.000  -4.686  -0.000   0.000
   40   17   16    6        3       1.172   3.515   0.000  -4.686  -0.000   0.000
   41   17   16   18        3       1.172   3.515   0.000  -4.686  -0.000   0.000
   29    6   16   17        3       1.172   3.515   0.000  -4.686  -0.000   0.000
   43   18   16    6        3       1.172   3.515   0.000  -4.686  -0.000   0.000
   41   17   16    6        3       1.172   3.515   0.000  -4.686  -0.000   0.000
   39   17   16    6        3       1.172   3.515   0.000  -4.686  -0.000   0.000
   42   18   16    6        3       1.172   3.515   0.000  -4.686  -0.000   0.000
   39   17   16   18        3       1.172   3.515   0.000  -4.686  -0.000   0.000
   43   18   16   17        3       1.172   3.515   0.000  -4.686  -0.000   0.000
   40   17   16   18        3       1.172   3.515   0.000  -4.686  -0.000   0.000
   37   15   14   12        3       0.414   1.243   0.000  -1.657  -0.000   0.000
   38   15   14   12        3       0.414   1.243   0.000  -1.657  -0.000   0.000
   36   15   14   12        3       0.414   1.243   0.000  -1.657  -0.000   0.000
   31    7    8    9        3       1.590   4.770   0.000  -6.360  -0.000   0.000
   30    7    8    9        3       1.590   4.770   0.000  -6.360  -0.000   0.000
   16    6    5    3        3       3.335  -1.552   2.820  -4.602  -0.000   0.000
   16   18    3    4        3       3.335  -1.552   2.820  -4.602  -0.000   0.000
   16   18    3    2        3       3.335  -1.552   2.820  -4.602  -0.000   0.000
   16   18    3    5        3       3.335  -1.552   2.820  -4.602  -0.000   0.000
   16    6    7    8        3      16.736  -16.736   0.000  -0.000  -0.000   0.000
   13   12   11    9        3      21.439   0.000  -21.439  -0.000  -0.000   0.000
   14   12   11    9        3      31.206  -9.768  -21.439  -0.000  -0.000   0.000
   11    9    8    7        3      -6.458   0.810   5.682  -0.033  -0.000   0.000
    8    7    6    5        3       2.874   0.582   2.092  -5.548  -0.000   0.000

[ pairs ]
     1     4    1
     1     5    1
     2     6    1
     4     6    1
     3     7    1
     5     8    1
     6     9    1
     7    10    1
     7    11    1
     2    16    1
     1    18    1
     8    12    1
     4    16    1
     3    17    1
    10    12    1
     9    13    1
     5    17    1
     3    19    1
     9    14    1
     3    20    1
     8    16    1
     7    17    1
     3    21    1
     7    18    1
    11    15    1
     4    22    1
     2    24    1
     5    22    1
     4    23    1
     2    25    1
    13    15    1
     5    23    1
     2    26    1
     5    24    1
     2    27    1
     5    25    1
     2    28    1
     5    26    1
     4    27    1
     4    28    1
     3    29    1
     7    27    1
     7    28    1
     5    30    1
     5    31    1
     8    29    1
     9    30    1
     7    32    1
    18    22    1
     9    31    1
    19    22    1
    18    23    1
     8    33    1
    20    22    1
    19    23    1
    18    24    1
     8    34    1
    21    22    1
    20    23    1
    18    25    1
    16    27    1
     8    35    1
    21    23    1
    18    26    1
    16    28    1
    12    32    1
    11    33    1
     2    42    1
    18    27    1
    11    34    1
     6    39    1
     2    43    1
    18    28    1
    17    29    1
    16    30    1
    11    35    1
     6    40    1
     4    42    1
    18    29    1
    16    31    1
     6    41    1
     5    42    1
     4    43    1
    12    36    1
     6    42    1
     5    43    1
    12    37    1
     6    43    1
    12    38    1
    27    29    1
    28    29    1
    18    39    1
    18    40    1
    29    30    1
    18    41    1
    17    42    1
    29    31    1
    17    43    1
    32    33    1
    32    34    1
    32    35    1

