LIGPARGEN GENERATED GRO FILE
   43
    1UNK    C00    1   0.100   0.100   0.000
    1UNK    C01    2  -0.053   0.100   0.000
    1UNK    C02    3  -0.117   0.100   0.141
    1UNK    C03    4  -0.075  -0.028   0.216
    1UNK    C04    5  -0.083   0.227   0.220
    1UNK    C05    6  -0.203   0.252   0.312
    1UNK    C06    7  -0.185   0.196   0.455
    1UNK    O07    8  -0.070   0.253   0.519
    1UNK    C08    9  -0.047   0.190   0.646
    1UNK    C09   10   0.076   0.256   0.707
    1UNK    O0A   11  -0.156   0.213   0.735
    1UNK    C0B   12  -0.216   0.101   0.782
    1UNK    O0C   13  -0.183  -0.014   0.759
    1UNK    O0D   14  -0.320   0.139   0.860
    1UNK    C0E   15  -0.393   0.030   0.916
    1UNK    N0F   16  -0.317   0.201   0.233
    1UNK    C0G   17  -0.433   0.155   0.307
    1UNK    C0H   18  -0.271   0.107   0.131
    1UNK    H0I   19   0.137   0.105  -0.103
    1UNK    H0J   20   0.140   0.009   0.045
    1UNK    H0K   21   0.140   0.186   0.054
    1UNK    H0M   22  -0.087   0.012  -0.056
    1UNK    H0N   23  -0.087   0.188  -0.056
    1UNK    H0O   24   0.030  -0.023   0.247
    1UNK    H0P   25  -0.088  -0.116   0.153
    1UNK    H0Q   26  -0.135  -0.045   0.306
    1UNK    H0R   27  -0.074   0.312   0.151
    1UNK    H0S   28   0.012   0.219   0.274
    1UNK    H0T   29  -0.214   0.360   0.323
    1UNK    H0U   30  -0.176   0.087   0.454
    1UNK    H0V   31  -0.273   0.222   0.514
    1UNK    H0W   32  -0.024   0.084   0.629
    1UNK    H0X   33   0.063   0.364   0.715
    1UNK    H0Y   34   0.165   0.238   0.646
    1UNK    H0Z   35   0.094   0.218   0.809
    1UNK    H10   36  -0.483   0.070   0.964
    1UNK    H11   37  -0.333  -0.020   0.992
    1UNK    H12   38  -0.425  -0.040   0.838
    1UNK    H13   39  -0.469   0.232   0.375
    1UNK    H14   40  -0.411   0.064   0.365
    1UNK    H15   41  -0.515   0.133   0.238
    1UNK    H16   42  -0.302   0.146   0.033
    1UNK    H17   43  -0.315   0.007   0.141
   1.00000   1.00000   1.00000

