
;
; GENERATED BY LigParGen Server
; Jorgensen Lab @ Yale University 
;
[ atomtypes ]
  opls_807  O807    15.9990     0.000    A    2.96000E-01   8.78640E-01
  opls_818  H818     1.0080     0.000    A    2.50000E-01   1.25520E-01
  opls_814  C814    12.0110     0.000    A    3.50000E-01   2.76144E-01
  opls_824  H824     1.0080     0.000    A    2.50000E-01   1.25520E-01
  opls_805  C805    12.0110     0.000    A    3.50000E-01   2.76144E-01
  opls_828  H828     1.0080     0.000    A    2.50000E-01   1.25520E-01
  opls_812  C812    12.0110     0.000    A    3.50000E-01   2.76144E-01
  opls_803  O803    15.9990     0.000    A    2.96000E-01   8.78640E-01
  opls_827  H827     1.0080     0.000    A    2.50000E-01   1.25520E-01
  opls_809  C809    12.0110     0.000    A    3.50000E-01   2.76144E-01
  opls_811  O811    15.9990     0.000    A    2.96000E-01   8.78640E-01
  opls_822  H822     1.0080     0.000    A    2.50000E-01   1.25520E-01
  opls_825  H825     1.0080     0.000    A    2.50000E-01   1.25520E-01
  opls_830  H830     1.0080     0.000    A    2.50000E-01   1.25520E-01
  opls_821  H821     1.0080     0.000    A    2.50000E-01   1.25520E-01
  opls_820  H820     1.0080     0.000    A    2.50000E-01   1.25520E-01
  opls_829  H829     1.0080     0.000    A    2.50000E-01   1.25520E-01
  opls_831  H831     1.0080     0.000    A    2.50000E-01   1.25520E-01
  opls_810  C810    12.0110     0.000    A    3.55000E-01   2.92880E-01
  opls_832  H832     1.0080     0.000    A    2.50000E-01   1.25520E-01
  opls_800  C800    12.0110     0.000    A    3.50000E-01   2.76144E-01
  opls_823  H823     1.0080     0.000    A    2.50000E-01   1.25520E-01
  opls_806  C806    12.0110     0.000    A    3.55000E-01   2.92880E-01
  opls_802  C802    12.0110     0.000    A    3.55000E-01   2.92880E-01
  opls_813  C813    12.0110     0.000    A    3.50000E-01   2.76144E-01
  opls_808  O808    15.9990     0.000    A    2.90000E-01   5.85760E-01
  opls_817  F817    18.9984     0.000    A    2.90000E-01   2.51040E-01
  opls_826  H826     1.0080     0.000    A    2.50000E-01   1.25520E-01
  opls_819  H819     1.0080     0.000    A    2.50000E-01   1.25520E-01
  opls_804  C804    12.0110     0.000    A    3.50000E-01   2.76144E-01
  opls_801  C801    12.0110     0.000    A    3.50000E-01   2.76144E-01
  opls_816  F816    18.9984     0.000    A    2.90000E-01   2.51040E-01
  opls_815  F815    18.9984     0.000    A    2.90000E-01   2.51040E-01
[ moleculetype ]
; Name               nrexcl
UNK                   3
[ atoms ]
;   nr       type  resnr residue  atom   cgnr     charge       mass  
     1   opls_800      1    UNK   C00      1    -0.2318    12.0110 
     2   opls_801      1    UNK   C01      1    -0.2284    12.0110 
     3   opls_802      1    UNK   C02      1     0.3892    12.0110 
     4   opls_803      1    UNK   O03      1    -0.4308    15.9990 
     5   opls_804      1    UNK   C04      1    -0.2124    12.0110 
     6   opls_805      1    UNK   C05      1    -0.1806    12.0110 
     7   opls_806      1    UNK   C06      1     0.4613    12.0110 
     8   opls_807      1    UNK   O07      1    -0.4474    15.9990 
     9   opls_808      1    UNK   O08      1      -0.35    15.9990 
    10   opls_809      1    UNK   C09      1    -0.0569    12.0110 
    11   opls_810      1    UNK   C0A      1     0.3794    12.0110 
    12   opls_811      1    UNK   O0B      1    -0.3978    15.9990 
    13   opls_812      1    UNK   C0C      1    -0.2519    12.0110 
    14   opls_813      1    UNK   C0D      1    -0.2359    12.0110 
    15   opls_814      1    UNK   C0E      1     0.4637    12.0110 
    16   opls_815      1    UNK   F0F      1    -0.1611    18.9984 
    17   opls_816      1    UNK   F0G      1    -0.1611    18.9984 
    18   opls_817      1    UNK   F0H      1    -0.1611    18.9984 
    19   opls_818      1    UNK   H0I      1     0.0948     1.0080 
    20   opls_819      1    UNK   H0J      1     0.0948     1.0080 
    21   opls_820      1    UNK   H0K      1     0.0948     1.0080 
    22   opls_821      1    UNK   H0M      1     0.1295     1.0080 
    23   opls_822      1    UNK   H0N      1     0.1295     1.0080 
    24   opls_823      1    UNK   H0O      1     0.1669     1.0080 
    25   opls_824      1    UNK   H0P      1     0.1432     1.0080 
    26   opls_825      1    UNK   H0Q      1     0.1432     1.0080 
    27   opls_826      1    UNK   H0R      1     0.1051     1.0080 
    28   opls_827      1    UNK   H0S      1     0.1051     1.0080 
    29   opls_828      1    UNK   H0T      1     0.1051     1.0080 
    30   opls_829      1    UNK   H0U      1     0.1599     1.0080 
    31   opls_830      1    UNK   H0V      1      0.114     1.0080 
    32   opls_831      1    UNK   H0W      1      0.114     1.0080 
    33   opls_832      1    UNK   H0X      2      0.114     1.0080 
[ bonds ]
    2     1     1      0.1529 224262.400
    3     2     1      0.1522 265265.600
    4     3     1      0.1229 476976.000
    5     3     1      0.1522 265265.600
    6     5     1      0.1529 224262.400
    7     6     1      0.1522 265265.600
    8     7     1      0.1229 476976.000
    9     7     1      0.1327 179075.200
   10     9     1      0.1410 267776.000
   11     5     1      0.1522 265265.600
   12    11     1      0.1229 476976.000
   13    11     1      0.1522 265265.600
   14    13     1      0.1529 224262.400
   15    13     1      0.1529 224262.400
   16    15     1      0.1360 307105.600
   17    15     1      0.1360 307105.600
   18    15     1      0.1360 307105.600
   19     1     1      0.1090 284512.000
   20     1     1      0.1090 284512.000
   21     1     1      0.1090 284512.000
   22     2     1      0.1090 284512.000
   23     2     1      0.1090 284512.000
   24     5     1      0.1090 284512.000
   25     6     1      0.1090 284512.000
   26     6     1      0.1090 284512.000
   27    10     1      0.1090 284512.000
   28    10     1      0.1090 284512.000
   29    10     1      0.1090 284512.000
   30    13     1      0.1090 284512.000
   31    14     1      0.1090 284512.000
   32    14     1      0.1090 284512.000
   33    14     1      0.1090 284512.000

[ angles ]
;  ai    aj    ak funct            c0            c1            c2            c3 
    1     2     3     1    111.100    527.184
    2     3     4     1    120.400    669.440
    2     3     5     1    116.000    585.760
    3     5     6     1    111.100    527.184
    5     6     7     1    111.100    527.184
    6     7     8     1    120.400    669.440
    6     7     9     1    111.400    677.808
    7     9    10     1    116.900    694.544
    3     5    11     1    111.100    527.184
    5    11    12     1    120.400    669.440
    5    11    13     1    116.000    585.760
   11    13    14     1    111.100    527.184
   11    13    15     1    111.100    527.184
   13    15    16     1    109.500    418.400
   13    15    17     1    109.500    418.400
   13    15    18     1    109.500    418.400
    2     1    19     1    110.700    313.800
    2     1    20     1    110.700    313.800
    2     1    21     1    110.700    313.800
    1     2    22     1    110.700    313.800
    1     2    23     1    110.700    313.800
    3     5    24     1    109.500    292.880
    5     6    25     1    110.700    313.800
    5     6    26     1    110.700    313.800
    9    10    27     1    109.500    292.880
    9    10    28     1    109.500    292.880
    9    10    29     1    109.500    292.880
   11    13    30     1    109.500    292.880
   13    14    31     1    110.700    313.800
   13    14    32     1    110.700    313.800
   13    14    33     1    110.700    313.800
   19     1    20     1    107.800    276.144
   27    10    28     1    107.800    276.144
    6     5    24     1    110.700    313.800
   14    13    30     1    110.700    313.800
   16    15    18     1    109.100    644.336
   31    14    32     1    107.800    276.144
   28    10    29     1    107.800    276.144
    7     6    25     1    109.500    292.880
    8     7     9     1    123.400    694.544
    6     5    11     1    111.100    527.184
   20     1    21     1    107.800    276.144
   14    13    15     1    112.700    488.273
    3     2    22     1    109.500    292.880
    3     2    23     1    109.500    292.880
    4     3     5     1    120.400    669.440
    7     6    26     1    109.500    292.880
   11     5    24     1    109.500    292.880
   22     2    23     1    107.800    276.144
   15    13    30     1    110.700    313.800
   27    10    29     1    107.800    276.144
   31    14    33     1    107.800    276.144
   16    15    17     1    109.100    644.336
   25     6    26     1    107.800    276.144
   19     1    21     1    107.800    276.144
   12    11    13     1    120.400    669.440
   32    14    33     1    107.800    276.144
   17    15    18     1    109.100    644.336

[ dihedrals ]
; IMPROPER DIHEDRAL ANGLES 
;  ai    aj    ak    al funct            c0            c1            c2            c3            c4            c5
    13    11     5    12    4        180.000     43.932     2  
     5     3     2     4    4        180.000     43.932     2  
     9     7     6     8    4        180.000     43.932     2  

[ dihedrals ]
; PROPER DIHEDRAL ANGLES
;  ai    aj    ak    al funct            c0            c1            c2            c3            c4            c5
   11    5    3    2        3       0.818  -7.906   0.602   6.485  -0.000   0.000
   11    5    3    4        3       0.000   0.000   0.000  -0.000  -0.000   0.000
   11    5    6    7        3       0.941   7.427   0.000  -8.368  -0.000   0.000
    7    6    5    3        3       0.941   7.427   0.000  -8.368  -0.000   0.000
   15   13   11    5        3       0.818  -7.906   0.602   6.485  -0.000   0.000
   15   13   11   12        3       0.000   0.000   0.000  -0.000  -0.000   0.000
   13   11    5    3        3       0.818  -7.906   0.602   6.485  -0.000   0.000
    5    3    2    1        3       0.818  -7.906   0.602   6.485  -0.000   0.000
   13   11    5    6        3       0.818  -7.906   0.602   6.485  -0.000   0.000
   14   13   11    5        3       0.818  -7.906   0.602   6.485  -0.000   0.000
    6    5    3    2        3       0.818  -7.906   0.602   6.485  -0.000   0.000
    6    5    3    4        3       0.000   0.000   0.000  -0.000  -0.000   0.000
   14   13   11   12        3       0.000   0.000   0.000  -0.000  -0.000   0.000
   10    9    7    6        3      31.206  -9.768  -21.439  -0.000  -0.000   0.000
   10    9    7    8        3      21.439   0.000  -21.439  -0.000  -0.000   0.000
   16   15   13   11        3       0.000   0.000   0.000  -0.000  -0.000   0.000
   17   15   13   11        3       0.000   0.000   0.000  -0.000  -0.000   0.000
   18   15   13   11        3       0.000   0.000   0.000  -0.000  -0.000   0.000
   18   15   13   14        3       0.000   0.000   0.000  -0.000  -0.000   0.000
   17   15   13   14        3       0.000   0.000   0.000  -0.000  -0.000   0.000
   16   15   13   14        3       0.000   0.000   0.000  -0.000  -0.000   0.000
   24    5   11   13        3       0.575   1.726   0.000  -2.301  -0.000   0.000
   23    2    3    5        3       0.575   1.726   0.000  -2.301  -0.000   0.000
   24    5    3    2        3       0.575   1.726   0.000  -2.301  -0.000   0.000
   30   13   11    5        3       0.575   1.726   0.000  -2.301  -0.000   0.000
   22    2    3    5        3       0.575   1.726   0.000  -2.301  -0.000   0.000
   23    2    3    4        3       0.000   0.000   0.000  -0.000  -0.000   0.000
   24    5   11   12        3       0.000   0.000   0.000  -0.000  -0.000   0.000
   30   13   11   12        3       0.000   0.000   0.000  -0.000  -0.000   0.000
   24    5    3    4        3       0.000   0.000   0.000  -0.000  -0.000   0.000
   22    2    3    4        3       0.000   0.000   0.000  -0.000  -0.000   0.000
   25    6    7    8        3       0.000   0.000   0.000  -0.000  -0.000   0.000
   26    6    7    8        3       0.000   0.000   0.000  -0.000  -0.000   0.000
   25    6    7    9        3       0.276   0.828   0.000  -1.105  -0.000   0.000
   26    6    7    9        3       0.276   0.828   0.000  -1.105  -0.000   0.000
   30   13   15   16        3       0.753   2.259   0.000  -3.012  -0.000   0.000
   30   13   15   17        3       0.753   2.259   0.000  -3.012  -0.000   0.000
   30   13   15   18        3       0.753   2.259   0.000  -3.012  -0.000   0.000
   25    6    5    3        3      -0.209  -0.628   0.000   0.837  -0.000   0.000
   25    6    5   11        3      -0.209  -0.628   0.000   0.837  -0.000   0.000
   26    6    5   11        3      -0.209  -0.628   0.000   0.837  -0.000   0.000
   33   14   13   11        3      -0.209  -0.628   0.000   0.837  -0.000   0.000
   19    1    2    3        3      -0.209  -0.628   0.000   0.837  -0.000   0.000
   32   14   13   11        3      -0.209  -0.628   0.000   0.837  -0.000   0.000
   31   14   13   11        3      -0.209  -0.628   0.000   0.837  -0.000   0.000
   21    1    2    3        3      -0.209  -0.628   0.000   0.837  -0.000   0.000
   26    6    5    3        3      -0.209  -0.628   0.000   0.837  -0.000   0.000
   24    5    6    7        3      -0.209  -0.628   0.000   0.837  -0.000   0.000
   20    1    2    3        3      -0.209  -0.628   0.000   0.837  -0.000   0.000
   31   14   13   15        3       0.628   1.883   0.000  -2.510  -0.000   0.000
   32   14   13   15        3       0.628   1.883   0.000  -2.510  -0.000   0.000
   33   14   13   15        3       0.628   1.883   0.000  -2.510  -0.000   0.000
   23    2    1   20        3       0.628   1.883   0.000  -2.510  -0.000   0.000
   23    2    1   19        3       0.628   1.883   0.000  -2.510  -0.000   0.000
   23    2    1   21        3       0.628   1.883   0.000  -2.510  -0.000   0.000
   31   14   13   30        3       0.628   1.883   0.000  -2.510  -0.000   0.000
   32   14   13   30        3       0.628   1.883   0.000  -2.510  -0.000   0.000
   33   14   13   30        3       0.628   1.883   0.000  -2.510  -0.000   0.000
   22    2    1   19        3       0.628   1.883   0.000  -2.510  -0.000   0.000
   25    6    5   24        3       0.628   1.883   0.000  -2.510  -0.000   0.000
   22    2    1   21        3       0.628   1.883   0.000  -2.510  -0.000   0.000
   22    2    1   20        3       0.628   1.883   0.000  -2.510  -0.000   0.000
   26    6    5   24        3       0.628   1.883   0.000  -2.510  -0.000   0.000
   28   10    9    7        3       0.414   1.243   0.000  -1.657  -0.000   0.000
   29   10    9    7        3       0.414   1.243   0.000  -1.657  -0.000   0.000
   27   10    9    7        3       0.414   1.243   0.000  -1.657  -0.000   0.000
   12   11    5    3        3       0.000   0.000   0.000  -0.000  -0.000   0.000
   12   11    5    6        3       0.000   0.000   0.000  -0.000  -0.000   0.000
    8    7    6    5        3       0.000   0.000   0.000  -0.000  -0.000   0.000
    4    3    2    1        3       0.000   0.000   0.000  -0.000  -0.000   0.000
    9    7    6    5        3      -1.157  -3.471   0.000   4.628  -0.000   0.000

[ pairs ]
     1     4    1
     1     5    1
     2     6    1
     4     6    1
     3     7    1
     5     8    1
     2    11    1
     5     9    1
     4    11    1
     3    12    1
     6    10    1
     3    13    1
     8    10    1
     7    11    1
     6    12    1
     6    13    1
     5    14    1
     5    15    1
     3    19    1
     3    20    1
     3    21    1
    12    14    1
     4    22    1
     2    24    1
    12    15    1
    11    16    1
     5    22    1
     4    23    1
    11    17    1
     5    23    1
     4    24    1
     3    25    1
    11    18    1
     3    26    1
    14    16    1
    14    17    1
     7    24    1
    14    18    1
     8    25    1
     9    25    1
     8    26    1
     7    27    1
     9    26    1
     7    28    1
     5    30    1
    12    24    1
    11    25    1
     7    29    1
    13    24    1
    11    26    1
    19    22    1
    20    22    1
    19    23    1
    12    30    1
    11    31    1
    21    22    1
    20    23    1
    11    32    1
    21    23    1
    11    33    1
    16    30    1
    15    31    1
    17    30    1
    15    32    1
    18    30    1
    15    33    1
    24    25    1
    24    26    1
    30    31    1
    30    32    1
    30    33    1

