LIGPARGEN GENERATED GRO FILE
   33
    1UNK    C00    1   0.100   0.100   0.000
    1UNK    C01    2  -0.052   0.100   0.000
    1UNK    C02    3  -0.109   0.100   0.141
    1UNK    O03    4  -0.047   0.148   0.236
    1UNK    C04    5  -0.248   0.038   0.159
    1UNK    C05    6  -0.292   0.046   0.306
    1UNK    C06    7  -0.199  -0.030   0.398
    1UNK    O07    8  -0.139  -0.131   0.367
    1UNK    O08    9  -0.201   0.029   0.521
    1UNK    C09   10  -0.112  -0.028   0.618
    1UNK    C0A   11  -0.353   0.110   0.075
    1UNK    O0B   12  -0.342   0.230   0.049
    1UNK    C0C   13  -0.471   0.029   0.024
    1UNK    C0D   14  -0.599   0.113   0.019
    1UNK    C0E   15  -0.436  -0.028  -0.112
    1UNK    F0F   16  -0.304  -0.018  -0.140
    1UNK    F0G   17  -0.465  -0.161  -0.113
    1UNK    F0H   18  -0.504   0.029  -0.213
    1UNK    H0I   19   0.138   0.100  -0.103
    1UNK    H0J   20   0.139   0.011   0.051
    1UNK    H0K   21   0.140   0.188   0.051
    1UNK    H0M   22  -0.087   0.011  -0.053
    1UNK    H0N   23  -0.089   0.189  -0.052
    1UNK    H0O   24  -0.241  -0.066   0.126
    1UNK    H0P   25  -0.392   0.002   0.319
    1UNK    H0Q   26  -0.297   0.150   0.338
    1UNK    H0R   27  -0.147   0.002   0.717
    1UNK    H0S   28  -0.011   0.012   0.603
    1UNK    H0T   29  -0.112  -0.138   0.614
    1UNK    H0U   30  -0.489  -0.053   0.095
    1UNK    H0V   31  -0.582   0.211  -0.028
    1UNK    H0W   32  -0.637   0.132   0.120
    1UNK    H0X   33  -0.678   0.062  -0.037
   1.00000   1.00000   1.00000

