LIGPARGEN GENERATED GRO FILE
   32
    1UNK    C00    1   0.100   0.100   0.000
    1UNK    C01    2  -0.052   0.100   0.000
    1UNK    C02    3  -0.107   0.100   0.142
    1UNK    C03    4  -0.260   0.100   0.145
    1UNK    C04    5  -0.311   0.100   0.286
    1UNK    C05    6  -0.459   0.095   0.320
    1UNK    C06    7  -0.564   0.089   0.214
    1UNK    C07    8  -0.371  -0.026   0.344
    1UNK    C08    9  -0.336  -0.068   0.484
    1UNK    C09   10  -0.247  -0.191   0.491
    1UNK    C0A   11  -0.208  -0.238   0.628
    1UNK    O0B   12  -0.207  -0.250   0.390
    1UNK    H0C   13   0.138   0.100  -0.103
    1UNK    H0D   14   0.139   0.011   0.051
    1UNK    H0E   15   0.139   0.189   0.051
    1UNK    H0F   16  -0.088   0.012  -0.054
    1UNK    H0G   17  -0.088   0.189  -0.054
    1UNK    H0H   18  -0.070   0.188   0.196
    1UNK    H0I   19  -0.070   0.012   0.197
    1UNK    H0J   20  -0.298   0.013   0.089
    1UNK    H0K   21  -0.297   0.190   0.093
    1UNK    H0M   22  -0.252   0.165   0.350
    1UNK    H0N   23  -0.492   0.154   0.404
    1UNK    H0O   24  -0.537   0.023   0.131
    1UNK    H0P   25  -0.583   0.189   0.174
    1UNK    H0Q   26  -0.657   0.050   0.257
    1UNK    H0R   27  -0.388  -0.111   0.279
    1UNK    H0S   28  -0.429  -0.092   0.538
    1UNK    H0T   29  -0.285   0.013   0.537
    1UNK    H0U   30  -0.270  -0.192   0.704
    1UNK    H0V   31  -0.103  -0.212   0.647
    1UNK    H0W   32  -0.221  -0.347   0.634
   1.00000   1.00000   1.00000

