LIGPARGEN GENERATED GRO FILE
   41
    1UNK    C00    1   0.100   0.100   0.000
    1UNK    C01    2  -0.052   0.100   0.000
    1UNK    C02    3  -0.107   0.100   0.143
    1UNK    C03    4  -0.261   0.100   0.150
    1UNK    C04    5  -0.312  -0.022   0.082
    1UNK    N05    6  -0.352  -0.118   0.030
    1UNK    C06    7  -0.316   0.108   0.296
    1UNK    C07    8  -0.266   0.234   0.369
    1UNK    C08    9  -0.471   0.102   0.296
    1UNK    C09   10  -0.536   0.109   0.435
    1UNK    C0A   11  -0.690   0.102   0.432
    1UNK    C0B   12  -0.747  -0.023   0.361
    1UNK    C0C   13  -0.714  -0.155   0.428
    1UNK    C0D   14  -0.747   0.115   0.574
    1UNK    C0E   15  -0.710   0.246   0.638
    1UNK    O0F   16  -0.646   0.255   0.742
    1UNK    H0G   17   0.138   0.100  -0.103
    1UNK    H0H   18   0.139   0.011   0.051
    1UNK    H0I   19   0.139   0.189   0.051
    1UNK    H0J   20  -0.087   0.012  -0.055
    1UNK    H0K   21  -0.088   0.189  -0.054
    1UNK    H0M   22  -0.068   0.189   0.193
    1UNK    H0N   23  -0.068   0.013   0.198
    1UNK    H0O   24  -0.298   0.187   0.094
    1UNK    H0P   25  -0.279   0.021   0.352
    1UNK    H0Q   26  -0.302   0.325   0.319
    1UNK    H0R   27  -0.157   0.238   0.374
    1UNK    H0S   28  -0.300   0.236   0.473
    1UNK    H0T   29  -0.501   0.007   0.250
    1UNK    H0U   30  -0.511   0.183   0.234
    1UNK    H0V   31  -0.508   0.204   0.481
    1UNK    H0W   32  -0.495   0.029   0.499
    1UNK    H0X   33  -0.725   0.190   0.374
    1UNK    H0Y   34  -0.711  -0.025   0.257
    1UNK    H0Z   35  -0.856  -0.014   0.354
    1UNK    H10   36  -0.611  -0.160   0.464
    1UNK    H11   37  -0.728  -0.238   0.356
    1UNK    H12   38  -0.781  -0.174   0.512
    1UNK    H13   39  -0.711   0.034   0.639
    1UNK    H14   40  -0.857   0.110   0.572
    1UNK    H15   41  -0.745   0.337   0.584
   1.00000   1.00000   1.00000

