LIGPARGEN GENERATED GRO FILE
   24
    1UNK    C00    1   0.100   0.100   0.000
    1UNK    C01    2  -0.052   0.100   0.000
    1UNK    C02    3  -0.114   0.100   0.141
    1UNK    C03    4  -0.074   0.224   0.222
    1UNK    C04    5  -0.266   0.096   0.129
    1UNK    O05    6  -0.335   0.197   0.118
    1UNK    C06    7  -0.332  -0.039   0.124
    1UNK    C07    8  -0.313  -0.121   0.241
    1UNK    N08    9  -0.298  -0.187   0.336
    1UNK    C09   10  -0.468  -0.049   0.055
    1UNK    C0A   11  -0.347  -0.110  -0.010
    1UNK    H0B   12   0.137   0.093  -0.103
    1UNK    H0C   13   0.139   0.014   0.056
    1UNK    H0D   14   0.140   0.192   0.044
    1UNK    H0E   15  -0.086   0.011  -0.055
    1UNK    H0F   16  -0.088   0.187  -0.057
    1UNK    H0G   17  -0.080   0.011   0.195
    1UNK    H0H   18  -0.098   0.316   0.168
    1UNK    H0I   19   0.034   0.224   0.243
    1UNK    H0J   20  -0.127   0.226   0.318
    1UNK    H0K   21  -0.509   0.040   0.010
    1UNK    H0M   22  -0.543  -0.116   0.097
    1UNK    H0N   23  -0.310  -0.063  -0.100
    1UNK    H0O   24  -0.342  -0.219  -0.013
   1.00000   1.00000   1.00000

