LIGPARGEN GENERATED GRO FILE
   45
    1UNK    C00    1   0.100   0.100   0.000
    1UNK    C01    2  -0.052   0.100   0.000
    1UNK    C02    3  -0.108   0.100   0.142
    1UNK    C03    4  -0.261   0.100   0.141
    1UNK    C04    5  -0.318   0.100   0.283
    1UNK    C05    6  -0.471   0.099   0.280
    1UNK    C06    7  -0.529   0.099   0.421
    1UNK    C07    8  -0.680   0.099   0.418
    1UNK    O08    9  -0.750   0.085   0.319
    1UNK    C09   10  -0.746   0.108   0.554
    1UNK    O0A   11  -0.755   0.218   0.607
    1UNK    C0B   12  -0.785  -0.024   0.618
    1UNK    C0C   13  -0.708  -0.038   0.749
    1UNK    C0D   14  -0.939  -0.041   0.634
    1UNK    C0E   15  -1.002   0.065   0.725
    1UNK    C0F   16  -1.008  -0.047   0.496
    1UNK    C0G   17  -1.158  -0.072   0.502
    1UNK    H0H   18   0.138   0.100  -0.103
    1UNK    H0I   19   0.139   0.011   0.051
    1UNK    H0J   20   0.139   0.189   0.051
    1UNK    H0K   21  -0.088   0.012  -0.054
    1UNK    H0M   22  -0.088   0.188  -0.054
    1UNK    H0N   23  -0.072   0.188   0.196
    1UNK    H0O   24  -0.071   0.012   0.196
    1UNK    H0P   25  -0.297   0.012   0.087
    1UNK    H0Q   26  -0.297   0.188   0.087
    1UNK    H0R   27  -0.282   0.188   0.337
    1UNK    H0S   28  -0.282   0.011   0.337
    1UNK    H0T   29  -0.506   0.011   0.226
    1UNK    H0U   30  -0.507   0.187   0.225
    1UNK    H0V   31  -0.496   0.189   0.475
    1UNK    H0W   32  -0.496   0.010   0.476
    1UNK    H0X   33  -0.749  -0.104   0.552
    1UNK    H0Y   34  -0.734   0.040   0.821
    1UNK    H0Z   35  -0.600  -0.030   0.732
    1UNK    H10   36  -0.728  -0.135   0.796
    1UNK    H11   37  -0.955  -0.138   0.683
    1UNK    H12   38  -1.001   0.164   0.679
    1UNK    H13   39  -0.951   0.071   0.822
    1UNK    H14   40  -1.107   0.040   0.747
    1UNK    H15   41  -0.962  -0.127   0.437
    1UNK    H16   42  -0.991   0.047   0.441
    1UNK    H17   43  -1.180  -0.162   0.560
    1UNK    H18   44  -1.198  -0.085   0.401
    1UNK    H19   45  -1.211   0.013   0.547
   1.00000   1.00000   1.00000

