LIGPARGEN GENERATED GRO FILE
   38
    1UNK    C00    1   0.100   0.100   0.000
    1UNK    O01    2  -0.042   0.100   0.000
    1UNK    C02    3  -0.108   0.100   0.130
    1UNK    C03    4  -0.074   0.231   0.203
    1UNK    C04    5  -0.125   0.269   0.344
    1UNK    C05    6  -0.088   0.185   0.471
    1UNK    C06    7  -0.197   0.082   0.507
    1UNK    C07    8   0.046   0.112   0.459
    1UNK    C08    9  -0.085   0.285   0.590
    1UNK    C09   10  -0.009   0.409   0.549
    1UNK    S0A   11  -0.052   0.436   0.379
    1UNK    O0B   12   0.073   0.452   0.306
    1UNK    O0C   13  -0.157   0.535   0.372
    1UNK    S0D   14  -0.291   0.081   0.110
    1UNK    O0E   15  -0.353   0.072   0.240
    1UNK    O0F   16  -0.341   0.173   0.010
    1UNK    O0G   17  -0.290  -0.070   0.047
    1UNK    C0H   18  -0.415  -0.124   0.007
    1UNK    H0I   19   0.134   0.105  -0.104
    1UNK    H0J   20   0.139   0.008   0.045
    1UNK    H0K   21   0.142   0.188   0.050
    1UNK    H0M   22  -0.075   0.012   0.186
    1UNK    H0N   23  -0.102   0.312   0.135
    1UNK    H0O   24   0.035   0.235   0.209
    1UNK    H0P   25  -0.233   0.287   0.341
    1UNK    H0Q   26  -0.201  -0.001   0.436
    1UNK    H0R   27  -0.296   0.129   0.512
    1UNK    H0S   28  -0.178   0.039   0.607
    1UNK    H0T   29   0.046   0.042   0.374
    1UNK    H0U   30   0.067   0.052   0.549
    1UNK    H0V   31   0.130   0.181   0.445
    1UNK    H0W   32  -0.041   0.241   0.680
    1UNK    H0X   33  -0.188   0.315   0.617
    1UNK    H0Y   34   0.099   0.395   0.556
    1UNK    H0Z   35  -0.038   0.497   0.607
    1UNK    H10   36  -0.400  -0.228  -0.026
    1UNK    H11   37  -0.457  -0.068  -0.077
    1UNK    H12   38  -0.485  -0.125   0.091
   1.00000   1.00000   1.00000

