
;
; GENERATED BY LigParGen Server
; Jorgensen Lab @ Yale University 
;
[ atomtypes ]
  opls_818  H818     1.0080     0.000    A    2.50000E-01   1.25520E-01
  opls_824  H824     1.0080     0.000    A    2.50000E-01   1.25520E-01
  opls_836  H836     1.0080     0.000    A    2.50000E-01   1.25520E-01
  opls_810  S810    32.0600     0.000    A    3.55000E-01   1.04600E+00
  opls_828  H828     1.0080     0.000    A    2.50000E-01   1.25520E-01
  opls_801  O801    15.9990     0.000    A    2.90000E-01   5.85760E-01
  opls_802  C802    12.0110     0.000    A    3.50000E-01   2.76144E-01
  opls_827  H827     1.0080     0.000    A    2.50000E-01   1.25520E-01
  opls_809  C809    12.0110     0.000    A    3.50000E-01   2.76144E-01
  opls_822  H822     1.0080     0.000    A    2.50000E-01   1.25520E-01
  opls_803  C803    12.0110     0.000    A    3.50000E-01   2.76144E-01
  opls_825  H825     1.0080     0.000    A    2.50000E-01   1.25520E-01
  opls_830  H830     1.0080     0.000    A    2.50000E-01   1.25520E-01
  opls_805  C805    12.0110     0.000    A    3.50000E-01   2.76144E-01
  opls_812  O812    15.9990     0.000    A    2.96000E-01   7.11280E-01
  opls_820  H820     1.0080     0.000    A    2.50000E-01   1.25520E-01
  opls_837  H837     1.0080     0.000    A    2.50000E-01   1.25520E-01
  opls_821  H821     1.0080     0.000    A    2.50000E-01   1.25520E-01
  opls_834  H834     1.0080     0.000    A    2.50000E-01   1.25520E-01
  opls_831  H831     1.0080     0.000    A    2.50000E-01   1.25520E-01
  opls_832  H832     1.0080     0.000    A    2.50000E-01   1.25520E-01
  opls_800  C800    12.0110     0.000    A    3.50000E-01   2.76144E-01
  opls_807  C807    12.0110     0.000    A    3.50000E-01   2.76144E-01
  opls_806  C806    12.0110     0.000    A    3.50000E-01   2.76144E-01
  opls_823  H823     1.0080     0.000    A    2.50000E-01   1.25520E-01
  opls_813  S813    32.0600     0.000    A    3.55000E-01   1.04600E+00
  opls_816  O816    15.9990     0.000    A    2.90000E-01   5.85760E-01
  opls_826  H826     1.0080     0.000    A    2.50000E-01   1.25520E-01
  opls_835  H835     1.0080     0.000    A    2.50000E-01   1.25520E-01
  opls_819  H819     1.0080     0.000    A    2.50000E-01   1.25520E-01
  opls_804  C804    12.0110     0.000    A    3.50000E-01   2.76144E-01
  opls_833  H833     1.0080     0.000    A    2.50000E-01   1.25520E-01
  opls_817  C817    12.0110     0.000    A    3.50000E-01   2.76144E-01
  opls_808  C808    12.0110     0.000    A    3.50000E-01   2.76144E-01
  opls_815  O815    15.9990     0.000    A    2.96000E-01   7.11280E-01
  opls_814  O814    15.9990     0.000    A    2.96000E-01   7.11280E-01
  opls_829  H829     1.0080     0.000    A    2.50000E-01   1.25520E-01
  opls_811  O811    15.9990     0.000    A    2.96000E-01   7.11280E-01
[ moleculetype ]
; Name               nrexcl
UNK                   3
[ atoms ]
;   nr       type  resnr residue  atom   cgnr     charge       mass  
     1   opls_800      1    UNK   C00      1    -0.0492    12.0110 
     2   opls_801      1    UNK   O01      1    -0.3402    15.9990 
     3   opls_802      1    UNK   C02      1    -0.1528    12.0110 
     4   opls_803      1    UNK   C03      1    -0.1824    12.0110 
     5   opls_804      1    UNK   C04      1    -0.3618    12.0110 
     6   opls_805      1    UNK   C05      1    -0.0306    12.0110 
     7   opls_806      1    UNK   C06      1     -0.219    12.0110 
     8   opls_807      1    UNK   C07      1    -0.2338    12.0110 
     9   opls_808      1    UNK   C08      1    -0.1658    12.0110 
    10   opls_809      1    UNK   C09      1    -0.5142    12.0110 
    11   opls_810      1    UNK   S0A      1     1.2671    32.0600 
    12   opls_811      1    UNK   O0B      1    -0.5684    15.9990 
    13   opls_812      1    UNK   O0C      1    -0.5684    15.9990 
    14   opls_813      1    UNK   S0D      1     1.3551    32.0600 
    15   opls_814      1    UNK   O0E      1    -0.5509    15.9990 
    16   opls_815      1    UNK   O0F      1    -0.5509    15.9990 
    17   opls_816      1    UNK   O0G      1    -0.5393    15.9990 
    18   opls_817      1    UNK   C0H      1     0.0247    12.0110 
    19   opls_818      1    UNK   H0I      1      0.094     1.0080 
    20   opls_819      1    UNK   H0J      1      0.094     1.0080 
    21   opls_820      1    UNK   H0K      1      0.094     1.0080 
    22   opls_821      1    UNK   H0M      1     0.1467     1.0080 
    23   opls_822      1    UNK   H0N      1     0.1334     1.0080 
    24   opls_823      1    UNK   H0O      1     0.1334     1.0080 
    25   opls_824      1    UNK   H0P      1     0.1798     1.0080 
    26   opls_825      1    UNK   H0Q      1     0.0961     1.0080 
    27   opls_826      1    UNK   H0R      1     0.0961     1.0080 
    28   opls_827      1    UNK   H0S      1     0.0961     1.0080 
    29   opls_828      1    UNK   H0T      1     0.0915     1.0080 
    30   opls_829      1    UNK   H0U      1     0.0915     1.0080 
    31   opls_830      1    UNK   H0V      1     0.0915     1.0080 
    32   opls_831      1    UNK   H0W      1     0.1221     1.0080 
    33   opls_832      1    UNK   H0X      2     0.1221     1.0080 
    34   opls_833      1    UNK   H0Y      2       0.18     1.0080 
    35   opls_834      1    UNK   H0Z      2       0.18     1.0080 
    36   opls_835      1    UNK   H10      2     0.1128     1.0080 
    37   opls_836      1    UNK   H11      2     0.1128     1.0080 
    38   opls_837      1    UNK   H12      2     0.1128     1.0080 
[ bonds ]
    2     1     1      0.1410 267776.000
    3     2     1      0.1410 267776.000
    4     3     1      0.1529 224262.400
    5     4     1      0.1529 224262.400
    6     5     1      0.1529 224262.400
    7     6     1      0.1529 224262.400
    8     6     1      0.1529 224262.400
    9     6     1      0.1529 224262.400
   10     9     1      0.1529 224262.400
   11     5     1      0.1770 284512.000
   12    11     1      0.1440 585760.000
   13    11     1      0.1440 585760.000
   14     3     1      0.1770 284512.000
   15    14     1      0.1440 585760.000
   16    14     1      0.1440 585760.000
   17    14     1      0.1660 245994.096
   18    17     1      0.1410 267776.000
   19     1     1      0.1090 284512.000
   20     1     1      0.1090 284512.000
   21     1     1      0.1090 284512.000
   22     3     1      0.1090 284512.000
   23     4     1      0.1090 284512.000
   24     4     1      0.1090 284512.000
   25     5     1      0.1090 284512.000
   26     7     1      0.1090 284512.000
   27     7     1      0.1090 284512.000
   28     7     1      0.1090 284512.000
   29     8     1      0.1090 284512.000
   30     8     1      0.1090 284512.000
   31     8     1      0.1090 284512.000
   32     9     1      0.1090 284512.000
   33     9     1      0.1090 284512.000
   34    10     1      0.1090 284512.000
   35    10     1      0.1090 284512.000
   36    18     1      0.1090 284512.000
   37    18     1      0.1090 284512.000
   38    18     1      0.1090 284512.000
   11    10     1      0.1770 284512.000

[ angles ]
;  ai    aj    ak funct            c0            c1            c2            c3 
    1     2     3     1    109.500    502.080
    2     3     4     1    109.500    418.400
    3     4     5     1    112.700    488.273
    4     5     6     1    112.700    488.273
    5     6     7     1    112.700    488.273
    5     6     8     1    112.700    488.273
    5     6     9     1    112.700    488.273
    6     9    10     1    112.700    488.273
    4     5    11     1    108.600    418.400
    5    11    12     1    108.900    619.232
    5    11    13     1    108.900    619.232
    2     3    14     1    110.580    432.207
    3    14    15     1    108.900    619.232
    3    14    16     1    108.900    619.232
    3    14    17     1    104.360    658.311
   14    17    18     1    114.540    581.660
    2     1    19     1    109.500    292.880
    2     1    20     1    109.500    292.880
    2     1    21     1    109.500    292.880
    2     3    22     1    109.500    292.880
    3     4    23     1    110.700    313.800
    3     4    24     1    110.700    313.800
    4     5    25     1    110.700    313.800
    6     7    26     1    110.700    313.800
    6     7    27     1    110.700    313.800
    6     7    28     1    110.700    313.800
    6     8    29     1    110.700    313.800
    6     8    30     1    110.700    313.800
    6     8    31     1    110.700    313.800
    6     9    32     1    110.700    313.800
    6     9    33     1    110.700    313.800
    9    10    34     1    110.700    313.800
    9    10    35     1    110.700    313.800
   17    18    36     1    109.500    292.880
   17    18    37     1    109.500    292.880
   17    18    38     1    109.500    292.880
   19     1    20     1    107.800    276.144
   36    18    37     1    107.800    276.144
   37    18    38     1    107.800    276.144
   11     5    25     1    109.500    292.880
   27     7    28     1    107.800    276.144
   29     8    30     1    107.800    276.144
    5     4    24     1    110.700    313.800
   11    10    34     1    109.500    292.880
    4     3    22     1    110.700    313.800
    6     5    11     1    108.600    418.400
   16    14    17     1    104.360    658.311
   14     3    22     1    109.500    292.880
   19     1    21     1    107.800    276.144
    5     4    23     1    110.700    313.800
   15    14    16     1    119.000    870.272
   11    10    35     1    109.500    292.880
    5    11    10     1    102.000    518.816
   29     8    31     1    107.800    276.144
   10    11    12     1    108.900    619.232
   32     9    33     1    107.800    276.144
    7     6     8     1    112.700    488.273
   15    14    17     1    104.360    658.311
   26     7    27     1    107.800    276.144
   30     8    31     1    107.800    276.144
   12    11    13     1    119.000    870.272
   26     7    28     1    107.800    276.144
   10     9    33     1    110.700    313.800
    9    10    11     1    108.600    418.400
    4     3    14     1    108.600    418.400
    7     6     9     1    112.700    488.273
    6     5    25     1    110.700    313.800
    8     6     9     1    112.700    488.273
   23     4    24     1    107.800    276.144
   10    11    13     1    108.900    619.232
   10     9    32     1    110.700    313.800
   20     1    21     1    107.800    276.144
   36    18    38     1    107.800    276.144
   34    10    35     1    107.800    276.144

[ dihedrals ]
; IMPROPER DIHEDRAL ANGLES 
;  ai    aj    ak    al funct            c0            c1            c2            c3            c4            c5

[ dihedrals ]
; PROPER DIHEDRAL ANGLES
;  ai    aj    ak    al funct            c0            c1            c2            c3            c4            c5
    8    6    5    4        3       2.301  -1.464   0.837  -1.674  -0.000   0.000
    6    5    4    3        3       2.301  -1.464   0.837  -1.674  -0.000   0.000
    7    6    5    4        3       2.301  -1.464   0.837  -1.674  -0.000   0.000
   10    9    6    5        3       2.301  -1.464   0.837  -1.674  -0.000   0.000
   10    9    6    7        3       2.301  -1.464   0.837  -1.674  -0.000   0.000
   10    9    6    8        3       2.301  -1.464   0.837  -1.674  -0.000   0.000
    9    6    5    4        3       2.301  -1.464   0.837  -1.674  -0.000   0.000
    5    4    3    2        3       2.874   0.582   2.092  -5.548  -0.000   0.000
    4    3    2    1        3       1.715   2.845   1.046  -5.607  -0.000   0.000
    9   10   11    5        3       0.000   0.000   0.000  -0.000  -0.000   0.000
   18   17   14    3        3       1.715   2.845   1.046  -5.607  -0.000   0.000
   18   17   14   16        3       0.000   0.000   0.000  -0.000  -0.000   0.000
   18   17   14   15        3       0.000   0.000   0.000  -0.000  -0.000   0.000
   10   11    5    4        3       0.000   0.000   0.000  -0.000  -0.000   0.000
   10   11    5    6        3       0.000   0.000   0.000  -0.000  -0.000   0.000
   30    8    6    5        3       0.628   1.883   0.000  -2.510  -0.000   0.000
   33    9    6    5        3       0.628   1.883   0.000  -2.510  -0.000   0.000
   25    5    6    8        3       0.628   1.883   0.000  -2.510  -0.000   0.000
   31    8    6    5        3       0.628   1.883   0.000  -2.510  -0.000   0.000
   23    4    5    6        3       0.628   1.883   0.000  -2.510  -0.000   0.000
   32    9    6    8        3       0.628   1.883   0.000  -2.510  -0.000   0.000
   30    8    6    9        3       0.628   1.883   0.000  -2.510  -0.000   0.000
   28    7    6    5        3       0.628   1.883   0.000  -2.510  -0.000   0.000
   33    9    6    7        3       0.628   1.883   0.000  -2.510  -0.000   0.000
   33    9    6    8        3       0.628   1.883   0.000  -2.510  -0.000   0.000
   34   10    9    6        3       0.628   1.883   0.000  -2.510  -0.000   0.000
   31    8    6    7        3       0.628   1.883   0.000  -2.510  -0.000   0.000
   26    7    6    8        3       0.628   1.883   0.000  -2.510  -0.000   0.000
   29    8    6    9        3       0.628   1.883   0.000  -2.510  -0.000   0.000
   28    7    6    9        3       0.628   1.883   0.000  -2.510  -0.000   0.000
   35   10    9    6        3       0.628   1.883   0.000  -2.510  -0.000   0.000
   22    3    4    5        3       0.628   1.883   0.000  -2.510  -0.000   0.000
   31    8    6    9        3       0.628   1.883   0.000  -2.510  -0.000   0.000
   27    7    6    8        3       0.628   1.883   0.000  -2.510  -0.000   0.000
   26    7    6    9        3       0.628   1.883   0.000  -2.510  -0.000   0.000
   24    4    5    6        3       0.628   1.883   0.000  -2.510  -0.000   0.000
   27    7    6    5        3       0.628   1.883   0.000  -2.510  -0.000   0.000
   25    5    6    7        3       0.628   1.883   0.000  -2.510  -0.000   0.000
   29    8    6    7        3       0.628   1.883   0.000  -2.510  -0.000   0.000
   32    9    6    7        3       0.628   1.883   0.000  -2.510  -0.000   0.000
   32    9    6    5        3       0.628   1.883   0.000  -2.510  -0.000   0.000
   25    5    6    9        3       0.628   1.883   0.000  -2.510  -0.000   0.000
   28    7    6    8        3       0.628   1.883   0.000  -2.510  -0.000   0.000
   30    8    6    7        3       0.628   1.883   0.000  -2.510  -0.000   0.000
   26    7    6    5        3       0.628   1.883   0.000  -2.510  -0.000   0.000
   25    5    4    3        3       0.628   1.883   0.000  -2.510  -0.000   0.000
   27    7    6    9        3       0.628   1.883   0.000  -2.510  -0.000   0.000
   29    8    6    5        3       0.628   1.883   0.000  -2.510  -0.000   0.000
   25    5    4   24        3       0.628   1.883   0.000  -2.510  -0.000   0.000
   34   10    9   33        3       0.628   1.883   0.000  -2.510  -0.000   0.000
   25    5    4   23        3       0.628   1.883   0.000  -2.510  -0.000   0.000
   24    4    3   22        3       0.628   1.883   0.000  -2.510  -0.000   0.000
   23    4    3   22        3       0.628   1.883   0.000  -2.510  -0.000   0.000
   35   10    9   32        3       0.628   1.883   0.000  -2.510  -0.000   0.000
   35   10    9   33        3       0.628   1.883   0.000  -2.510  -0.000   0.000
   34   10    9   32        3       0.628   1.883   0.000  -2.510  -0.000   0.000
   23    4    3    2        3       0.979   2.937   0.000  -3.916  -0.000   0.000
   24    4    3    2        3       0.979   2.937   0.000  -3.916  -0.000   0.000
   23    4    5   11        3       0.946   2.837   0.000  -3.782  -0.000   0.000
   24    4    5   11        3       0.946   2.837   0.000  -3.782  -0.000   0.000
   32    9   10   11        3       0.946   2.837   0.000  -3.782  -0.000   0.000
   24    4    3   14        3       0.946   2.837   0.000  -3.782  -0.000   0.000
   33    9   10   11        3       0.946   2.837   0.000  -3.782  -0.000   0.000
   23    4    3   14        3       0.946   2.837   0.000  -3.782  -0.000   0.000
   19    1    2    3        3       1.590   4.770   0.000  -6.360  -0.000   0.000
   21    1    2    3        3       1.590   4.770   0.000  -6.360  -0.000   0.000
   22    3    2    1        3       1.590   4.770   0.000  -6.360  -0.000   0.000
   20    1    2    3        3       1.590   4.770   0.000  -6.360  -0.000   0.000
   36   18   17   14        3       1.590   4.770   0.000  -6.360  -0.000   0.000
   38   18   17   14        3       1.590   4.770   0.000  -6.360  -0.000   0.000
   37   18   17   14        3       1.590   4.770   0.000  -6.360  -0.000   0.000
   35   10   11    5        3       0.732   2.197   0.000  -2.929  -0.000   0.000
   25    5   11   10        3       0.732   2.197   0.000  -2.929  -0.000   0.000
   34   10   11    5        3       0.732   2.197   0.000  -2.929  -0.000   0.000
   22    3   14   17        3       0.732   2.197   0.000  -2.929  -0.000   0.000
   34   10   11   12        3       0.732   2.197   0.000  -2.929  -0.000   0.000
   25    5   11   12        3       0.732   2.197   0.000  -2.929  -0.000   0.000
   22    3   14   16        3       0.732   2.197   0.000  -2.929  -0.000   0.000
   34   10   11   13        3       0.732   2.197   0.000  -2.929  -0.000   0.000
   22    3   14   15        3       0.732   2.197   0.000  -2.929  -0.000   0.000
   35   10   11   12        3       0.732   2.197   0.000  -2.929  -0.000   0.000
   35   10   11   13        3       0.732   2.197   0.000  -2.929  -0.000   0.000
   25    5   11   13        3       0.732   2.197   0.000  -2.929  -0.000   0.000
   17   14    3    4        3       0.000   0.000   0.000  -0.000  -0.000   0.000
   17   14    3    2        3       0.000   0.000   0.000  -0.000  -0.000   0.000
   16   14    3    4        3       0.000   0.000   0.000  -0.000  -0.000   0.000
   13   11    5    4        3       0.000   0.000   0.000  -0.000  -0.000   0.000
   13   11   10    9        3       0.000   0.000   0.000  -0.000  -0.000   0.000
   13   11    5    6        3       0.000   0.000   0.000  -0.000  -0.000   0.000
   12   11    5    6        3       0.000   0.000   0.000  -0.000  -0.000   0.000
   12   11    5    4        3       0.000   0.000   0.000  -0.000  -0.000   0.000
   15   14    3    4        3       0.000   0.000   0.000  -0.000  -0.000   0.000
   12   11   10    9        3       0.000   0.000   0.000  -0.000  -0.000   0.000
   15   14    3    2        3       0.000   0.000   0.000  -0.000  -0.000   0.000
   16   14    3    2        3       0.000   0.000   0.000  -0.000  -0.000   0.000
   11    5    6    8        3       2.784   0.278   0.828  -3.891  -0.000   0.000
   11    5    4    3        3       2.784   0.278   0.828  -3.891  -0.000   0.000
   14    3    4    5        3       2.784   0.278   0.828  -3.891  -0.000   0.000
   11    5    6    7        3       2.784   0.278   0.828  -3.891  -0.000   0.000
   11   10    9    6        3       2.784   0.278   0.828  -3.891  -0.000   0.000
   11    5    6    9        3       2.784   0.278   0.828  -3.891  -0.000   0.000
   14    3    2    1        3      -5.358  13.617   8.443  -16.703  -0.000   0.000

[ pairs ]
     1     4    1
     2     5    1
     3     6    1
     4     7    1
     4     8    1
     4     9    1
     4    10    1
     3    11    1
     1    14    1
     4    12    1
     7    10    1
     4    13    1
     2    15    1
     8    10    1
     7    11    1
     6    12    1
     2    16    1
     8    11    1
     6    13    1
     5    14    1
     4    15    1
     2    17    1
     4    16    1
     9    12    1
     4    17    1
     3    18    1
     9    13    1
     3    19    1
     3    20    1
     1    22    1
     3    21    1
     2    23    1
     2    24    1
     5    22    1
     3    25    1
     6    23    1
     6    24    1
     5    26    1
     7    25    1
     5    27    1
    15    18    1
     8    25    1
     5    28    1
    16    18    1
    11    23    1
     9    25    1
     8    26    1
     5    29    1
    11    24    1
    10    25    1
     9    26    1
     8    27    1
     5    30    1
     9    27    1
     8    28    1
     7    29    1
     5    31    1
    15    22    1
    14    23    1
    12    25    1
     9    28    1
     7    30    1
     5    32    1
    16    22    1
    14    24    1
    13    25    1
     9    29    1
     7    31    1
     5    33    1
    17    22    1
     9    30    1
     7    32    1
     5    34    1
     9    31    1
     8    32    1
     7    33    1
     6    34    1
     5    35    1
     8    33    1
     6    35    1
    11    32    1
    11    33    1
    22    23    1
    22    24    1
    12    34    1
    13    34    1
    12    35    1
    23    25    1
    13    35    1
    24    25    1
    14    36    1
    14    37    1
    14    38    1
    32    34    1
    33    34    1
    32    35    1
    33    35    1

