LIGPARGEN GENERATED GRO FILE
   44
    1UNK    C00    1   0.100   0.100   0.000
    1UNK    O01    2  -0.042   0.100   0.000
    1UNK    C02    3  -0.096   0.100   0.132
    1UNK    C03    4  -0.251   0.107   0.128
    1UNK    C04    5  -0.315  -0.008   0.041
    1UNK    C05    6  -0.279  -0.149   0.094
    1UNK    C06    7  -0.332  -0.267   0.012
    1UNK    N07    8  -0.474  -0.292   0.038
    1UNK    C08    9  -0.499  -0.436   0.051
    1UNK    C09   10  -0.568  -0.222  -0.054
    1UNK    C0A   11  -0.705  -0.209   0.018
    1UNK    C0B   12  -0.592  -0.299  -0.186
    1UNK    C0C   13  -0.521  -0.079  -0.093
    1UNK    C0D   14  -0.467   0.008   0.019
    1UNK    C0E   15  -0.306   0.120   0.268
    1UNK    O0F   16  -0.415   0.209   0.255
    1UNK    C0G   17  -0.390   0.285   0.145
    1UNK    O0H   18  -0.454   0.385   0.115
    1UNK    O0I   19  -0.287   0.234   0.072
    1UNK    H0J   20   0.135   0.130  -0.100
    1UNK    H0K   21   0.137  -0.001   0.021
    1UNK    H0M   22   0.140   0.171   0.073
    1UNK    H0N   23  -0.058   0.189   0.184
    1UNK    H0O   24  -0.062   0.011   0.186
    1UNK    H0P   25  -0.270   0.001  -0.059
    1UNK    H0Q   26  -0.314  -0.160   0.197
    1UNK    H0R   27  -0.170  -0.159   0.097
    1UNK    H0S   28  -0.273  -0.354   0.045
    1UNK    H0T   29  -0.309  -0.256  -0.095
    1UNK    H0U   30  -0.441  -0.476   0.135
    1UNK    H0V   31  -0.471  -0.491  -0.039
    1UNK    H0W   32  -0.603  -0.458   0.075
    1UNK    H0X   33  -0.752  -0.306   0.037
    1UNK    H0Y   34  -0.776  -0.152  -0.043
    1UNK    H0Z   35  -0.695  -0.158   0.114
    1UNK    H10   36  -0.641  -0.395  -0.171
    1UNK    H11   37  -0.497  -0.317  -0.240
    1UNK    H12   38  -0.657  -0.241  -0.254
    1UNK    H13   39  -0.607  -0.026  -0.138
    1UNK    H14   40  -0.447  -0.084  -0.174
    1UNK    H15   41  -0.521  -0.009   0.113
    1UNK    H16   42  -0.488   0.111  -0.011
    1UNK    H17   43  -0.234   0.166   0.338
    1UNK    H18   44  -0.339   0.025   0.312
   1.00000   1.00000   1.00000

