LIGPARGEN GENERATED GRO FILE
   48
    1UNK    C00    1   0.100   0.100   0.000
    1UNK    C01    2  -0.052   0.100   0.000
    1UNK    C02    3  -0.108   0.100   0.142
    1UNK    C03    4  -0.261   0.100   0.141
    1UNK    C04    5  -0.317   0.100   0.283
    1UNK    C05    6  -0.470   0.101   0.282
    1UNK    C06    7  -0.524   0.101   0.425
    1UNK    C07    8  -0.677   0.102   0.430
    1UNK    C08    9  -0.721   0.109   0.577
    1UNK    C09   10  -0.873   0.095   0.595
    1UNK    C0A   11  -0.920   0.087   0.743
    1UNK    C0B   12  -0.872   0.212   0.824
    1UNK    C0C   13  -0.918   0.346   0.767
    1UNK    O0D   14  -1.065   0.085   0.735
    1UNK    C0E   15  -1.135   0.092   0.859
    1UNK    C0F   16  -0.863  -0.046   0.807
    1UNK    F0G   17  -0.806  -0.128   0.717
    1UNK    F0H   18  -0.769  -0.019   0.901
    1UNK    F0I   19  -0.959  -0.119   0.869
    1UNK    H0J   20   0.138   0.100  -0.103
    1UNK    H0K   21   0.139   0.011   0.051
    1UNK    H0M   22   0.139   0.189   0.051
    1UNK    H0N   23  -0.088   0.012  -0.054
    1UNK    H0O   24  -0.088   0.188  -0.054
    1UNK    H0P   25  -0.071   0.188   0.196
    1UNK    H0Q   26  -0.072   0.012   0.196
    1UNK    H0R   27  -0.297   0.012   0.087
    1UNK    H0S   28  -0.297   0.189   0.087
    1UNK    H0T   29  -0.281   0.189   0.336
    1UNK    H0U   30  -0.281   0.012   0.337
    1UNK    H0V   31  -0.507   0.012   0.228
    1UNK    H0W   32  -0.507   0.189   0.228
    1UNK    H0X   33  -0.485   0.189   0.477
    1UNK    H0Y   34  -0.486   0.013   0.478
    1UNK    H0Z   35  -0.716   0.011   0.383
    1UNK    H10   36  -0.717   0.188   0.376
    1UNK    H11   37  -0.687   0.204   0.618
    1UNK    H12   38  -0.669   0.030   0.633
    1UNK    H13   39  -0.909   0.007   0.541
    1UNK    H14   40  -0.923   0.179   0.545
    1UNK    H15   41  -0.763   0.213   0.831
    1UNK    H16   42  -0.908   0.205   0.927
    1UNK    H17   43  -0.872   0.366   0.670
    1UNK    H18   44  -0.887   0.427   0.835
    1UNK    H19   45  -1.026   0.351   0.756
    1UNK    H1A   46  -1.232   0.043   0.846
    1UNK    H1B   47  -1.153   0.196   0.886
    1UNK    H1C   48  -1.083   0.042   0.942
   1.00000   1.00000   1.00000

