LIGPARGEN GENERATED GRO FILE
   38
    1UNK    C00    1   0.100   0.100   0.000
    1UNK    C01    2  -0.052   0.100   0.000
    1UNK    C02    3  -0.111   0.100   0.142
    1UNK    C03    4  -0.068   0.222   0.223
    1UNK    C04    5  -0.152   0.277   0.338
    1UNK    C05    6  -0.277   0.356   0.293
    1UNK    C06    7  -0.396   0.287   0.361
    1UNK    C07    8  -0.345   0.143   0.378
    1UNK    C08    9  -0.204   0.169   0.432
    1UNK    C09   10  -0.200   0.215   0.578
    1UNK    C0A   11  -0.360   0.075   0.238
    1UNK    C0B   12  -0.470  -0.032   0.245
    1UNK    C0C   13  -0.243   0.025   0.159
    1UNK    C0D   14  -0.116  -0.038   0.208
    1UNK    H0E   15   0.138   0.075  -0.100
    1UNK    H0F   16   0.140   0.027   0.071
    1UNK    H0G   17   0.139   0.199   0.027
    1UNK    H0H   18  -0.087   0.011  -0.055
    1UNK    H0I   19  -0.090   0.187  -0.055
    1UNK    H0J   20  -0.051   0.305   0.153
    1UNK    H0K   21   0.032   0.198   0.264
    1UNK    H0M   22  -0.087   0.348   0.392
    1UNK    H0N   23  -0.289   0.355   0.184
    1UNK    H0O   24  -0.272   0.461   0.324
    1UNK    H0P   25  -0.488   0.295   0.303
    1UNK    H0Q   26  -0.417   0.333   0.459
    1UNK    H0R   27  -0.405   0.090   0.453
    1UNK    H0S   28  -0.141   0.080   0.432
    1UNK    H0T   29  -0.260   0.304   0.598
    1UNK    H0U   30  -0.097   0.239   0.608
    1UNK    H0V   31  -0.236   0.135   0.644
    1UNK    H0W   32  -0.403   0.149   0.170
    1UNK    H0X   33  -0.440  -0.116   0.308
    1UNK    H0Y   34  -0.494  -0.071   0.145
    1UNK    H0Z   35  -0.563   0.011   0.286
    1UNK    H10   36  -0.282  -0.020   0.068
    1UNK    H11   37  -0.077  -0.123   0.152
    1UNK    H12   38  -0.096  -0.052   0.313
   1.00000   1.00000   1.00000

