
;
; GENERATED BY LigParGen Server
; Jorgensen Lab @ Yale University 
;
[ atomtypes ]
  opls_818  H818     1.0080     0.000    A    2.50000E-01   1.25520E-01
  opls_824  H824     1.0080     0.000    A    2.50000E-01   1.25520E-01
  opls_809  O809    15.9990     0.000    A    2.90000E-01   5.85760E-01
  opls_833  H833     1.0080     0.000    A    2.50000E-01   1.25520E-01
  opls_828  H828     1.0080     0.000    A    2.50000E-01   1.25520E-01
  opls_810  C810    12.0110     0.000    A    3.50000E-01   2.76144E-01
  opls_813  H813     1.0080     0.000    A    2.50000E-01   1.25520E-01
  opls_832  H832     1.0080     0.000    A    2.50000E-01   1.25520E-01
  opls_802  C802    12.0110     0.000    A    3.50000E-01   2.76144E-01
  opls_815  H815     1.0080     0.000    A    2.50000E-01   1.25520E-01
  opls_801  C801    12.0110     0.000    A    3.50000E-01   2.76144E-01
  opls_806  C806    12.0110     0.000    A    3.50000E-01   2.76144E-01
  opls_822  H822     1.0080     0.000    A    2.50000E-01   1.25520E-01
  opls_803  C803    12.0110     0.000    A    3.50000E-01   2.76144E-01
  opls_825  H825     1.0080     0.000    A    2.50000E-01   1.25520E-01
  opls_814  H814     1.0080     0.000    A    2.50000E-01   1.25520E-01
  opls_821  H821     1.0080     0.000    A    2.50000E-01   1.25520E-01
  opls_820  H820     1.0080     0.000    A    2.50000E-01   1.25520E-01
  opls_829  H829     1.0080     0.000    A    2.50000E-01   1.25520E-01
  opls_834  H834     1.0080     0.000    A    2.50000E-01   1.25520E-01
  opls_831  H831     1.0080     0.000    A    2.50000E-01   1.25520E-01
  opls_816  H816     1.0080     0.000    A    2.50000E-01   1.25520E-01
  opls_800  C800    12.0110     0.000    A    3.50000E-01   2.76144E-01
  opls_808  O808    15.9990     0.000    A    2.96000E-01   8.78640E-01
  opls_811  C811    12.0110     0.000    A    3.50000E-01   2.76144E-01
  opls_823  H823     1.0080     0.000    A    2.50000E-01   1.25520E-01
  opls_805  C805    12.0110     0.000    A    3.50000E-01   2.76144E-01
  opls_826  H826     1.0080     0.000    A    2.50000E-01   1.25520E-01
  opls_819  H819     1.0080     0.000    A    2.50000E-01   1.25520E-01
  opls_804  C804    12.0110     0.000    A    3.50000E-01   2.76144E-01
  opls_827  H827     1.0080     0.000    A    2.50000E-01   1.25520E-01
  opls_812  C812    12.0110     0.000    A    3.50000E-01   2.76144E-01
  opls_807  C807    12.0110     0.000    A    3.55000E-01   2.92880E-01
  opls_817  H817     1.0080     0.000    A    2.50000E-01   1.25520E-01
  opls_830  H830     1.0080     0.000    A    2.50000E-01   1.25520E-01
[ moleculetype ]
; Name               nrexcl
UNK                   3
[ atoms ]
;   nr       type  resnr residue  atom   cgnr     charge       mass  
     1   opls_800      1    UNK   C00      1    -0.2372    12.0110 
     2   opls_801      1    UNK   C01      1    -0.1728    12.0110 
     3   opls_802      1    UNK   C02      1    -0.0961    12.0110 
     4   opls_803      1    UNK   C03      1    -0.1769    12.0110 
     5   opls_804      1    UNK   C04      1    -0.2415    12.0110 
     6   opls_805      1    UNK   C05      1    -0.1154    12.0110 
     7   opls_806      1    UNK   C06      1    -0.2375    12.0110 
     8   opls_807      1    UNK   C07      1     0.4459    12.0110 
     9   opls_808      1    UNK   O08      1    -0.4538    15.9990 
    10   opls_809      1    UNK   O09      1    -0.3618    15.9990 
    11   opls_810      1    UNK   C0A      1     0.0649    12.0110 
    12   opls_811      1    UNK   C0B      1    -0.2702    12.0110 
    13   opls_812      1    UNK   C0C      1    -0.2462    12.0110 
    14   opls_813      1    UNK   H0D      1     0.0832     1.0080 
    15   opls_814      1    UNK   H0E      1     0.0832     1.0080 
    16   opls_815      1    UNK   H0F      1     0.0832     1.0080 
    17   opls_816      1    UNK   H0G      1     0.0888     1.0080 
    18   opls_817      1    UNK   H0H      1     0.0888     1.0080 
    19   opls_818      1    UNK   H0I      1     0.1131     1.0080 
    20   opls_819      1    UNK   H0J      1     0.0924     1.0080 
    21   opls_820      1    UNK   H0K      1     0.0924     1.0080 
    22   opls_821      1    UNK   H0M      1     0.0836     1.0080 
    23   opls_822      1    UNK   H0N      1     0.0836     1.0080 
    24   opls_823      1    UNK   H0O      1     0.0836     1.0080 
    25   opls_824      1    UNK   H0P      1     0.1332     1.0080 
    26   opls_825      1    UNK   H0Q      1     0.0952     1.0080 
    27   opls_826      1    UNK   H0R      1     0.0952     1.0080 
    28   opls_827      1    UNK   H0S      1     0.0952     1.0080 
    29   opls_828      1    UNK   H0T      1     0.1202     1.0080 
    30   opls_829      1    UNK   H0U      1     0.0981     1.0080 
    31   opls_830      1    UNK   H0V      1     0.0981     1.0080 
    32   opls_831      1    UNK   H0W      1     0.0981     1.0080 
    33   opls_832      1    UNK   H0X      2     0.0963     1.0080 
    34   opls_833      1    UNK   H0Y      2     0.0963     1.0080 
    35   opls_834      1    UNK   H0Z      2     0.0963     1.0080 
[ bonds ]
    2     1     1      0.1529 224262.400
    3     2     1      0.1529 224262.400
    4     3     1      0.1529 224262.400
    5     4     1      0.1529 224262.400
    6     3     1      0.1529 224262.400
    7     6     1      0.1529 224262.400
    8     6     1      0.1522 265265.600
    9     8     1      0.1229 476976.000
   10     8     1      0.1327 179075.200
   11    10     1      0.1410 267776.000
   12    11     1      0.1529 224262.400
   13    11     1      0.1529 224262.400
   14     1     1      0.1090 284512.000
   15     1     1      0.1090 284512.000
   16     1     1      0.1090 284512.000
   17     2     1      0.1090 284512.000
   18     2     1      0.1090 284512.000
   19     3     1      0.1090 284512.000
   20     4     1      0.1090 284512.000
   21     4     1      0.1090 284512.000
   22     5     1      0.1090 284512.000
   23     5     1      0.1090 284512.000
   24     5     1      0.1090 284512.000
   25     6     1      0.1090 284512.000
   26     7     1      0.1090 284512.000
   27     7     1      0.1090 284512.000
   28     7     1      0.1090 284512.000
   29    11     1      0.1090 284512.000
   30    12     1      0.1090 284512.000
   31    12     1      0.1090 284512.000
   32    12     1      0.1090 284512.000
   33    13     1      0.1090 284512.000
   34    13     1      0.1090 284512.000
   35    13     1      0.1090 284512.000

[ angles ]
;  ai    aj    ak funct            c0            c1            c2            c3 
    1     2     3     1    112.700    488.273
    2     3     4     1    112.700    488.273
    3     4     5     1    112.700    488.273
    2     3     6     1    112.700    488.273
    3     6     7     1    112.700    488.273
    3     6     8     1    111.100    527.184
    6     8     9     1    120.400    669.440
    6     8    10     1    111.400    677.808
    8    10    11     1    116.900    694.544
   10    11    12     1    109.500    418.400
   10    11    13     1    109.500    418.400
    2     1    14     1    110.700    313.800
    2     1    15     1    110.700    313.800
    2     1    16     1    110.700    313.800
    1     2    17     1    110.700    313.800
    1     2    18     1    110.700    313.800
    2     3    19     1    110.700    313.800
    3     4    20     1    110.700    313.800
    3     4    21     1    110.700    313.800
    4     5    22     1    110.700    313.800
    4     5    23     1    110.700    313.800
    4     5    24     1    110.700    313.800
    3     6    25     1    110.700    313.800
    6     7    26     1    110.700    313.800
    6     7    27     1    110.700    313.800
    6     7    28     1    110.700    313.800
   10    11    29     1    109.500    292.880
   11    12    30     1    110.700    313.800
   11    12    31     1    110.700    313.800
   11    12    32     1    110.700    313.800
   11    13    33     1    110.700    313.800
   11    13    34     1    110.700    313.800
   11    13    35     1    110.700    313.800
   33    13    34     1    107.800    276.144
   31    12    32     1    107.800    276.144
   22     5    23     1    107.800    276.144
    3     2    18     1    110.700    313.800
   27     7    28     1    107.800    276.144
    3     2    17     1    110.700    313.800
   22     5    24     1    107.800    276.144
   23     5    24     1    107.800    276.144
    4     3    19     1    110.700    313.800
   34    13    35     1    107.800    276.144
    7     6    25     1    110.700    313.800
   30    12    32     1    107.800    276.144
   33    13    35     1    107.800    276.144
   13    11    29     1    110.700    313.800
   15     1    16     1    107.800    276.144
   14     1    15     1    107.800    276.144
    7     6     8     1    111.100    527.184
    4     3     6     1    112.700    488.273
   17     2    18     1    107.800    276.144
   26     7    27     1    107.800    276.144
   20     4    21     1    107.800    276.144
    8     6    25     1    109.500    292.880
    5     4    20     1    110.700    313.800
   12    11    13     1    112.700    488.273
   26     7    28     1    107.800    276.144
   14     1    16     1    107.800    276.144
    5     4    21     1    110.700    313.800
   30    12    31     1    107.800    276.144
    6     3    19     1    110.700    313.800
    9     8    10     1    123.400    694.544
   12    11    29     1    110.700    313.800

[ dihedrals ]
; IMPROPER DIHEDRAL ANGLES 
;  ai    aj    ak    al funct            c0            c1            c2            c3            c4            c5
    10     8     6     9    4        180.000     43.932     2  

[ dihedrals ]
; PROPER DIHEDRAL ANGLES
;  ai    aj    ak    al funct            c0            c1            c2            c3            c4            c5
    8    6    3    4        3      -4.960   6.286   1.310  -2.636  -0.000   0.000
    8    6    3    2        3      -4.960   6.286   1.310  -2.636  -0.000   0.000
    4    3    2    1        3       2.301  -1.464   0.837  -1.674  -0.000   0.000
    5    4    3    2        3       2.301  -1.464   0.837  -1.674  -0.000   0.000
    7    6    3    2        3       2.301  -1.464   0.837  -1.674  -0.000   0.000
    7    6    3    4        3       2.301  -1.464   0.837  -1.674  -0.000   0.000
    6    3    4    5        3       2.301  -1.464   0.837  -1.674  -0.000   0.000
    6    3    2    1        3       2.301  -1.464   0.837  -1.674  -0.000   0.000
   13   11   10    8        3      -2.197   5.201   0.527  -3.531  -0.000   0.000
   12   11   10    8        3      -2.197   5.201   0.527  -3.531  -0.000   0.000
   11   10    8    6        3      31.206  -9.768  -21.439  -0.000  -0.000   0.000
   11   10    8    9        3      21.439   0.000  -21.439  -0.000  -0.000   0.000
   25    6    8    9        3       0.000   0.000   0.000  -0.000  -0.000   0.000
   25    6    8   10        3       0.276   0.828   0.000  -1.105  -0.000   0.000
   26    7    6    8        3      -0.209  -0.628   0.000   0.837  -0.000   0.000
   19    3    6    8        3      -0.209  -0.628   0.000   0.837  -0.000   0.000
   28    7    6    8        3      -0.209  -0.628   0.000   0.837  -0.000   0.000
   27    7    6    8        3      -0.209  -0.628   0.000   0.837  -0.000   0.000
   23    5    4    3        3       0.628   1.883   0.000  -2.510  -0.000   0.000
   24    5    4    3        3       0.628   1.883   0.000  -2.510  -0.000   0.000
   35   13   11   12        3       0.628   1.883   0.000  -2.510  -0.000   0.000
   21    4    3    2        3       0.628   1.883   0.000  -2.510  -0.000   0.000
   17    2    3    4        3       0.628   1.883   0.000  -2.510  -0.000   0.000
   20    4    3    2        3       0.628   1.883   0.000  -2.510  -0.000   0.000
   17    2    3    6        3       0.628   1.883   0.000  -2.510  -0.000   0.000
   28    7    6    3        3       0.628   1.883   0.000  -2.510  -0.000   0.000
   31   12   11   13        3       0.628   1.883   0.000  -2.510  -0.000   0.000
   21    4    3    6        3       0.628   1.883   0.000  -2.510  -0.000   0.000
   18    2    3    4        3       0.628   1.883   0.000  -2.510  -0.000   0.000
   19    3    4    5        3       0.628   1.883   0.000  -2.510  -0.000   0.000
   18    2    3    6        3       0.628   1.883   0.000  -2.510  -0.000   0.000
   20    4    3    6        3       0.628   1.883   0.000  -2.510  -0.000   0.000
   34   13   11   12        3       0.628   1.883   0.000  -2.510  -0.000   0.000
   27    7    6    3        3       0.628   1.883   0.000  -2.510  -0.000   0.000
   22    5    4    3        3       0.628   1.883   0.000  -2.510  -0.000   0.000
   26    7    6    3        3       0.628   1.883   0.000  -2.510  -0.000   0.000
   15    1    2    3        3       0.628   1.883   0.000  -2.510  -0.000   0.000
   25    6    3    2        3       0.628   1.883   0.000  -2.510  -0.000   0.000
   25    6    3    4        3       0.628   1.883   0.000  -2.510  -0.000   0.000
   16    1    2    3        3       0.628   1.883   0.000  -2.510  -0.000   0.000
   14    1    2    3        3       0.628   1.883   0.000  -2.510  -0.000   0.000
   33   13   11   12        3       0.628   1.883   0.000  -2.510  -0.000   0.000
   30   12   11   13        3       0.628   1.883   0.000  -2.510  -0.000   0.000
   19    3    6    7        3       0.628   1.883   0.000  -2.510  -0.000   0.000
   32   12   11   13        3       0.628   1.883   0.000  -2.510  -0.000   0.000
   19    3    2    1        3       0.628   1.883   0.000  -2.510  -0.000   0.000
   17    2    1   15        3       0.628   1.883   0.000  -2.510  -0.000   0.000
   33   13   11   29        3       0.628   1.883   0.000  -2.510  -0.000   0.000
   30   12   11   29        3       0.628   1.883   0.000  -2.510  -0.000   0.000
   18    2    1   16        3       0.628   1.883   0.000  -2.510  -0.000   0.000
   17    2    1   16        3       0.628   1.883   0.000  -2.510  -0.000   0.000
   22    5    4   20        3       0.628   1.883   0.000  -2.510  -0.000   0.000
   17    2    1   14        3       0.628   1.883   0.000  -2.510  -0.000   0.000
   31   12   11   29        3       0.628   1.883   0.000  -2.510  -0.000   0.000
   18    2    1   14        3       0.628   1.883   0.000  -2.510  -0.000   0.000
   18    2    1   15        3       0.628   1.883   0.000  -2.510  -0.000   0.000
   23    5    4   21        3       0.628   1.883   0.000  -2.510  -0.000   0.000
   34   13   11   29        3       0.628   1.883   0.000  -2.510  -0.000   0.000
   19    3    2   18        3       0.628   1.883   0.000  -2.510  -0.000   0.000
   19    3    2   17        3       0.628   1.883   0.000  -2.510  -0.000   0.000
   35   13   11   29        3       0.628   1.883   0.000  -2.510  -0.000   0.000
   24    5    4   21        3       0.628   1.883   0.000  -2.510  -0.000   0.000
   20    4    3   19        3       0.628   1.883   0.000  -2.510  -0.000   0.000
   22    5    4   21        3       0.628   1.883   0.000  -2.510  -0.000   0.000
   32   12   11   29        3       0.628   1.883   0.000  -2.510  -0.000   0.000
   23    5    4   20        3       0.628   1.883   0.000  -2.510  -0.000   0.000
   21    4    3   19        3       0.628   1.883   0.000  -2.510  -0.000   0.000
   28    7    6   25        3       0.628   1.883   0.000  -2.510  -0.000   0.000
   24    5    4   20        3       0.628   1.883   0.000  -2.510  -0.000   0.000
   27    7    6   25        3       0.628   1.883   0.000  -2.510  -0.000   0.000
   25    6    3   19        3       0.628   1.883   0.000  -2.510  -0.000   0.000
   26    7    6   25        3       0.628   1.883   0.000  -2.510  -0.000   0.000
   32   12   11   10        3       0.979   2.937   0.000  -3.916  -0.000   0.000
   35   13   11   10        3       0.979   2.937   0.000  -3.916  -0.000   0.000
   34   13   11   10        3       0.979   2.937   0.000  -3.916  -0.000   0.000
   33   13   11   10        3       0.979   2.937   0.000  -3.916  -0.000   0.000
   30   12   11   10        3       0.979   2.937   0.000  -3.916  -0.000   0.000
   31   12   11   10        3       0.979   2.937   0.000  -3.916  -0.000   0.000
   29   11   10    8        3       0.414   1.243   0.000  -1.657  -0.000   0.000
    9    8    6    3        3       0.000   0.000   0.000  -0.000  -0.000   0.000
    9    8    6    7        3       0.000   0.000   0.000  -0.000  -0.000   0.000
   10    8    6    7        3      -1.157  -3.471   0.000   4.628  -0.000   0.000
   10    8    6    3        3      -1.157  -3.471   0.000   4.628  -0.000   0.000

[ pairs ]
     1     4    1
     2     5    1
     1     6    1
     2     7    1
     2     8    1
     5     6    1
     4     7    1
     4     8    1
     3     9    1
     3    10    1
     7     9    1
     7    10    1
     6    11    1
     3    14    1
     3    15    1
     3    16    1
     9    11    1
     8    12    1
     1    19    1
     8    13    1
     4    17    1
     4    18    1
     2    20    1
     6    17    1
     2    21    1
     6    18    1
     5    19    1
     3    22    1
     7    19    1
     6    20    1
     3    23    1
     8    19    1
     6    21    1
     3    24    1
     2    25    1
     4    25    1
     3    26    1
     3    27    1
    14    17    1
     3    28    1
    15    17    1
    14    18    1
    16    17    1
    15    18    1
    16    18    1
     9    25    1
     8    26    1
    10    25    1
     8    27    1
    17    19    1
     8    28    1
    18    19    1
     8    29    1
    19    20    1
    19    21    1
    10    30    1
    10    31    1
    20    22    1
    10    32    1
    21    22    1
    20    23    1
    13    30    1
    10    33    1
    21    23    1
    20    24    1
    19    25    1
    13    31    1
    10    34    1
    21    24    1
    13    32    1
    12    33    1
    10    35    1
    12    34    1
    12    35    1
    25    26    1
    25    27    1
    25    28    1
    29    30    1
    29    31    1
    29    32    1
    29    33    1
    29    34    1
    29    35    1

