LIGPARGEN GENERATED GRO FILE
   35
    1UNK    C00    1   0.100   0.100   0.000
    1UNK    C01    2  -0.052   0.100   0.000
    1UNK    C02    3  -0.116   0.100   0.141
    1UNK    C03    4  -0.064   0.215   0.230
    1UNK    C04    5  -0.100   0.356   0.183
    1UNK    C05    6  -0.272   0.098   0.132
    1UNK    C06    7  -0.328  -0.020   0.052
    1UNK    C07    8  -0.334   0.089   0.271
    1UNK    O08    9  -0.313  -0.002   0.350
    1UNK    O09   10  -0.415   0.196   0.294
    1UNK    C0A   11  -0.480   0.199   0.422
    1UNK    C0B   12  -0.384   0.252   0.528
    1UNK    C0C   13  -0.601   0.291   0.409
    1UNK    H0D   14   0.137   0.079  -0.101
    1UNK    H0E   15   0.139   0.023   0.067
    1UNK    H0F   16   0.140   0.197   0.030
    1UNK    H0G   17  -0.084   0.010  -0.054
    1UNK    H0H   18  -0.088   0.185  -0.058
    1UNK    H0I   19  -0.085   0.007   0.190
    1UNK    H0J   20   0.045   0.208   0.238
    1UNK    H0K   21  -0.100   0.203   0.333
    1UNK    H0M   22  -0.077   0.371   0.078
    1UNK    H0N   23  -0.043   0.430   0.241
    1UNK    H0O   24  -0.206   0.376   0.199
    1UNK    H0P   25  -0.306   0.191   0.084
    1UNK    H0Q   26  -0.292  -0.115   0.093
    1UNK    H0R   27  -0.300  -0.014  -0.053
    1UNK    H0S   28  -0.437  -0.021   0.057
    1UNK    H0T   29  -0.516   0.099   0.449
    1UNK    H0U   30  -0.346   0.351   0.500
    1UNK    H0V   31  -0.297   0.186   0.538
    1UNK    H0W   32  -0.433   0.259   0.625
    1UNK    H0X   33  -0.571   0.392   0.379
    1UNK    H0Y   34  -0.656   0.298   0.504
    1UNK    H0Z   35  -0.670   0.254   0.332
   1.00000   1.00000   1.00000

