; ClO4 -- ion parameters for the ht2000 campaign
; assembled by build_ion_ff.py; charges UNSCALED (ECC scaling applied at run-build time)

[ atomtypes ]
;  name       at.nr   mass    charge  ptype  sigma(nm)   epsilon(kJ/mol)
  an_Clc           17   35.4500    1.1760  A  3.50000e-01 4.92830e-01
  an_Oc             8   15.9900   -0.5440  A  2.90000e-01 8.78640e-01

[ moleculetype ]
; name  nrexcl
an   3

[ atoms ]
;  nr    type  resnr  residue  atom  cgnr    charge      mass
    1  an_Clc        1  clo   Cl1      1    1.176000  35.45
    2  an_Oc         1  clo   O1       1   -0.544000  15.99
    3  an_Oc         1  clo   O2       1   -0.544000  15.99
    4  an_Oc         1  clo   O3       1   -0.544000  15.99
    5  an_Oc         1  clo   O4       1   -0.544000  15.99

[ bonds ]
;   ai   aj funct  c0(nm)  c1(kJ mol-1 nm-2) ro(Ang.) kr(kcal mol-1 Ang.-2)
1    2    1    0.1506    633959.68    ;    1.506    757.6    Clc-Oc
1    3    1    0.1506    633959.68    ;    1.506    757.6    Clc-Oc
1    4    1    0.1506    633959.68    ;    1.506    757.6    Clc-Oc
1    5    1    0.1506    633959.68    ;    1.506    757.6    Clc-Oc

[ angles ]
;   ai   aj   ak funct c0(deg)  c1(kJ mol-1 rad-2) c0(deg) c1(kcal mol-1 rad-2)
2    1    3    1    109.5    1739.707    ;    109.5    207.9    Oc-Clc-Oc
2    1    4    1    109.5    1739.707    ;    109.5    207.9    Oc-Clc-Oc
2    1    5    1    109.5    1739.707    ;    109.5    207.9    Oc-Clc-Oc
3    1    4    1    109.5    1739.707    ;    109.5    207.9    Oc-Clc-Oc
3    1    5    1    109.5    1739.707    ;    109.5    207.9    Oc-Clc-Oc
4    1    5    1    109.5    1739.707    ;    109.5    207.9    Oc-Clc-Oc
