; HCOO -- ion parameters for the ht2000 campaign
; assembled by build_ion_ff.py; charges UNSCALED (ECC scaling applied at run-build time)

[ atomtypes ]
;  name       at.nr   mass    charge  ptype  sigma(nm)   epsilon(kJ/mol)
  an_C              6   12.0110    0.9092  A  3.75000e-01 4.39320e-01
  an_H              1    1.0080   -0.2212  A  2.42000e-01 6.27600e-02
  an_O              8   15.9990   -0.8440  A  2.96000e-01 8.78640e-01

[ moleculetype ]
; name  nrexcl
an   3

[ atoms ]
;  nr    type  resnr  residue  atom  cgnr    charge      mass
    1  an_C          1  hco   C        1    0.909200  12.011
    2  an_H          1  hco   H        1   -0.221200  1.008
    3  an_O          1  hco   O        1   -0.844000  15.999
    4  an_O          1  hco   O        1   -0.844000  15.999

[ bonds ]
;   ai   aj funct  c0 (nm)  c1(kJ mol-1 nm-2) ro(Ang.)  kr(kcal mol-1 Ang.-2)
1    2    1    0.1180    314636.8    ;    1.18     376    C-H
1    3    1    0.1234    543920.0    ;    1.234    650    C-O
1    4    1    0.1234    543920.0    ;    1.234    650    C-O

[ angles ]
;   ai   aj   ak funct  c0(deg)  c1(kJ mol-1 rad-2)  c0(deg)  c1(kcal mol-1 rad-2)
2    1    3    1    114.7    1400.803    ;    114.7    167.4   H-C-O
2    1    4    1    114.7    1400.803    ;    114.7    167.4   H-C-O
3    1    4    1    130.5    1004.160    ;    130.5    120     O-C-O

[ dihedrals ]
;    ai    aj    ak    al    funct    c0    c1    c2    c3 (kJ/mol)    ;    V1    V2    V3    V4  (kcal/mol)
3    1    2    4    5    0.0    0.0    0.0    0.0    ;    0    0    0    0    O-C-H-O  improper
