; OAc -- ion parameters for the ht2000 campaign
; assembled by build_ion_ff.py; charges UNSCALED (ECC scaling applied at run-build time)

[ atomtypes ]
;  name       at.nr   mass    charge  ptype  sigma(nm)   epsilon(kJ/mol)
  an_CZ             6   12.0110    0.7000  A  3.75000e-01 4.39320e-01
  an_C              6   12.0110   -0.2800  A  3.50000e-01 2.76140e-01
  an_H              1    1.0080    0.0600  A  2.50000e-01 1.25520e-01
  an_O              8   15.9990   -0.8000  A  2.96000e-01 8.78640e-01

[ moleculetype ]
; name  nrexcl
an   3

[ atoms ]
;  nr    type  resnr  residue  atom  cgnr    charge      mass
    1  an_CZ         1  oac   CZ       1    0.700000  12.01
    2  an_C          1  oac   C        1   -0.280000  12.01
    3  an_H          1  oac   H        1    0.060000  1.008
    4  an_H          1  oac   H        1    0.060000  1.008
    5  an_H          1  oac   H        1    0.060000  1.008
    6  an_O          1  oac   O        1   -0.800000  15.999
    7  an_O          1  oac   O        1   -0.800000  15.999

[ bonds ]
;   ai   aj funct  c0(nm   c1(kJ mol-1 nm-2) ro(Ang.)  kr(kcal mol-1 Ang.-2)
1    6    1    0.1250    548940.8    ;    1.25    656    C-O
1    7    1    0.1250    548940.8    ;    1.25    656    C-O
1    2    1    0.1522    265265.6    ;    1.522   317    C-CT
3    2    1    0.1090    284512.0    ;    1.09    340    H-CT
4    2    1    0.1090    284512.0    ;    1.09    340    H-CT
5    2    1    0.1090    284512.0    ;    1.09    340    H-CT

[ angles ]
;   ai   aj   ak funct  c0(deg)  c1(kJ mol-1 rad-2) c0(deg) c1(kcal mol-1 rad-2)
6    1    7    1    126.0    669.440    ;    126      80    O-C-O
6    1    2    1    117.0    585.760    ;    117      70    O-C-CT
7    1    2    1    117.0    585.760    ;    117      70    O-C-CT
1    2    3    1    109.5    292.880    ;    109.5    35    C-CT-H
1    2    4    1    109.5    292.880    ;    109.5    35    C-CT-H
1    2    5    1    109.5    292.880    ;    109.5    35    C-CT-H
3    2    4    1    107.8    276.144    ;    107.8    33    H-CT-H
4    2    5    1    107.8    276.144    ;    107.8    33    H-CT-H
5    2    3    1    107.8    276.144    ;    107.8    33    H-CT-H

[ dihedrals ]
;   ai   aj   ak   al funct    c0       c1      c2    c3(kJ/mol) ;   V1   V2   V3   V4  (kcal/mol)
2    1    6    7    5    0.000   87.864    0.000    0.000    ;    0   21    0    0    CT-C-O-O  improper
3    2    1    6    5    0.000    0.000    0.000    0.000    ;    0    0    0    0    H-CT-C-O
3    2    1    7    5    0.000    0.000    0.000    0.000    ;    0    0    0    0    H-CT-C-O
4    2    1    6    5    0.000    0.000    0.000    0.000    ;    0    0    0    0    H-CT-C-O
4    2    1    7    5    0.000    0.000    0.000    0.000    ;    0    0    0    0    H-CT-C-O
5    2    1    6    5    0.000    0.000    0.000    0.000    ;    0    0    0    0    H-CT-C-O
5    2    1    7    5    0.000    0.000    0.000    0.000    ;    0    0    0    0    H-CT-C-O
3    2    1    4    5    0.000    0.000    0.000    0.000    ;    0    0    0    0    H-CT-C-H  improper
4    2    1    5    5    0.000    0.000    0.000    0.000    ;    0    0    0    0    H-CT-C-H  improper
5    2    1    3    5    0.000    0.000    0.000    0.000    ;    0    0    0    0    H-CT-C-H  improper

[ pairs ]
; generated from the bond graph (3-bond separation);
; the OPLS-2009IL distribution omits this section
    3     6     1
    3     7     1
    4     6     1
    4     7     1
    5     6     1
    5     7     1
