; PROP -- ion parameters for the ht2000 campaign
; assembled by build_ion_ff.py; charges UNSCALED (ECC scaling applied at run-build time)

[ atomtypes ]
;  name       at.nr   mass    charge  ptype  sigma(nm)   epsilon(kJ/mol)
  an_C              6   12.0110    0.7000  A  3.75000e-01 4.39320e-01
  an_O2             8   15.9990   -0.8000  A  2.96000e-01 8.78640e-01
  an_CC             6   12.0110   -0.2200  A  3.50000e-01 2.76144e-01
  an_CD             6   12.0110   -0.1800  A  3.50000e-01 2.76144e-01
  an_HC             1    1.0080    0.0600  A  2.50000e-01 1.25520e-01

[ moleculetype ]
; name  nrexcl
an   3

[ atoms ]
;  nr    type  resnr  residue  atom  cgnr    charge      mass
    1  an_C          1  pro   C1       1    0.700000  12.011
    2  an_O2         1  pro   OC1      1   -0.800000  15.999
    3  an_O2         1  pro   OC2      1   -0.800000  15.999
    4  an_CC         1  pro   CC       1   -0.220000  12.011
    5  an_CD         1  pro   CD       1   -0.180000  12.011
    6  an_HC         1  pro   HCC      1    0.060000  1.008
    7  an_HC         1  pro   HCD      1    0.060000  1.008
    8  an_HC         1  pro   HD1      1    0.060000  1.008
    9  an_HC         1  pro   HD2      1    0.060000  1.008
   10  an_HC         1  pro   HD3      1    0.060000  1.008

[ bonds ]
;   ai   aj funct  c0 (nm)  c1(kJ mol-1 nm-2) ro(Ang.) kr(kcal mol-1 Ang.-2)
1    2    1    0.1250    548940.8    ;    1.25    656    C-O2
1    3    1    0.1250    548940.8    ;    1.25    656    C-O2
1    4    1    0.1522    265265.6    ;    1.522   317    C-CC
4    6    1    0.1090    284512.0    ;    1.09    340    CC-HC
4    7    1    0.1090    284512.0    ;    1.09    340    CC-HC
4    5    1    0.1529    224262.4    ;    1.529   268    CC-CD
5    8    1    0.1090    284512.0    ;    1.09    340    CD-HC
5    9    1    0.1090    284512.0    ;    1.09    340    CD-HC
5    10   1    0.1090    284512.0    ;    1.09    340    CD-HC

[ angles ]
;   ai   aj   ak funct  c0(deg) c1(kJ mol-1 rad-2) c0(deg) c1(kcal mol-1 rad-2)
1    4    5    1    111.1    527.184    ;    111.1    63    C-CC-CD
1    4    6    1    109.5    292.880    ;    109.5    35    C-CC-HC
1    4    7    1    109.5    292.880    ;    109.5    35    C-CC-HC
2    1    3    1    126.0    669.440    ;    126      80    O2-C-O2
2    1    4    1    117.0    585.760    ;    117      70    O2-C-CC
3    1    4    1    117.0    585.760    ;    117      70    O2-C-CC
4    5    8    1    110.7    313.800    ;    110.7    37.5  CC-CD-HC
4    5    9    1    110.7    313.800    ;    110.7    37.5  CC-CD-HC
4    5    10   1    110.7    313.800    ;    110.7    37.5  CC-CD-HC
5    4    7    1    110.7    313.800    ;    110.7    37.5  CD-CC-HC
5    4    6    1    110.7    313.800    ;    110.7    37.5  CD-CC-HC
6    4    7    1    107.8    276.144    ;    107.8    33    HC-CC-HC
8    5    9    1    107.8    276.144    ;    107.8    33    HC-CD-HC
8    5    10   1    107.8    276.144    ;    107.8    33    HC-CD-HC
9    5    10   1    107.8    276.144    ;    107.8    33    HC-CD-HC

[ dihedrals ]
;   ai   aj   ak   al funct   c0         c1        c2   c3(kJ/mol)   ;   V1   V2   V3     V4 (kcal/mol)
1    4    5    6    5    0.0000    0.0000   -0.4184    0.0000    ;    0    0  -0.1     0    C-CC-CD-HC
1    4    5    7    5    0.0000    0.0000   -0.4184    0.0000    ;    0    0  -0.1     0    C-CC-CD-HC
1    4    5    8    5    0.0000    0.0000   -0.4184    0.0000    ;    0    0  -0.1     0    C-CC-CD-HC
1    4    5    9    5    0.0000    0.0000   -0.4184    0.0000    ;    0    0  -0.1     0    C-CC-CD-HC
1    4    5    10   5    0.0000    0.0000   -0.4184    0.0000    ;    0    0  -0.1     0    C-CC-CD-HC
2    1    3    4    5    0.0000    87.864    0.0000    0.0000    ;    0    21   0      0    O2-C-CC-O2  improper
2    1    4    5    5    0.0000    0.0000    0.0000    0.0000    ;    0    0    0      0    O2-C-CC-CD
2    1    4    6    5    0.0000    0.0000    0.0000    0.0000    ;    0    0    0      0    O2-C-CC-HC
2    1    4    7    5    0.0000    0.0000    0.0000    0.0000    ;    0    0    0      0    O2-C-CC-HC
3    1    4    5    5    0.0000    0.0000    0.0000    0.0000    ;    0    0    0      0    O2-C-CC-CD
3    1    4    6    5    0.0000    0.0000    0.0000    0.0000    ;    0    0    0      0    O2-C-CC-HC
3    1    4    7    5    0.0000    0.0000    0.0000    0.0000    ;    0    0    0      0    O2-C-CC-HC
6    4    5    7    5    0.0000    0.0000    1.2552    0.0000    ;    0    0    0.3    0    HC-CC-CD-HC
6    4    5    8    5    0.0000    0.0000    1.2552    0.0000    ;    0    0    0.3    0    HC-CC-CD-HC
6    4    5    9    5    0.0000    0.0000    1.2552    0.0000    ;    0    0    0.3    0    HC-CC-CD-HC
6    4    5    10   5    0.0000    0.0000    1.2552    0.0000    ;    0    0    0.3    0    HC-CC-CD-HC
7    4    5    6    5    0.0000    0.0000    1.2552    0.0000    ;    0    0    0.3    0    HC-CC-CD-HC
7    4    5    8    5    0.0000    0.0000    1.2552    0.0000    ;    0    0    0.3    0    HC-CC-CD-HC
7    4    5    9    5    0.0000    0.0000    1.2552    0.0000    ;    0    0    0.3    0    HC-CC-CD-HC
7    4    5    10   5    0.0000    0.0000    1.2552    0.0000    ;    0    0    0.3    0    HC-CC-CD-HC

[ pairs ]
; generated from the bond graph (3-bond separation);
; the OPLS-2009IL distribution omits this section
    1     8     1
    1     9     1
    1    10     1
    2     5     1
    2     6     1
    2     7     1
    3     5     1
    3     6     1
    3     7     1
    6     8     1
    6     9     1
    6    10     1
    7     8     1
    7     9     1
    7    10     1
