; Beti -- ion parameters for the ht1000 campaign
; assembled by build_ion_ff.py; charges UNSCALED (ECC scaling applied at run-build time)

[ atomtypes ]
;  name       at.nr   mass    charge  ptype  sigma(nm)   epsilon(kJ/mol)
  an_C1F            6   12.0110    0.1900  A  3.50000e-01 2.76140e-01
  an_CEF            6   12.0110    0.3600  A  3.50000e-01 2.76140e-01
  an_F1             9   18.9980   -0.1600  A  3.11800e-01 2.55400e-01
  an_SBT           16   32.0660    1.0200  A  3.55000e-01 1.04600e+00
  an_NBT            7   14.0000   -0.6600  A  3.25000e-01 7.11280e-01
  an_OBT            8   15.9990   -0.5300  A  3.15000e-01 8.37360e-01
  an_F              9   18.9980   -0.1200  A  2.95000e-01 2.21750e-01

[ moleculetype ]
; name  nrexcl
an   3

[ atoms ]
;  nr    type  resnr  residue  atom  cgnr    charge      mass
    1  an_C1F        1  bet   C1       1    0.190000  
    2  an_CEF        1  bet   C2       2    0.360000  
    3  an_F1         1  bet   F1       3   -0.160000  
    4  an_F1         1  bet   F2       4   -0.160000  
    5  an_SBT        1  bet   S1       5    1.020000  
    6  an_NBT        1  bet   N        6   -0.660000  
    7  an_OBT        1  bet   O1       7   -0.530000  
    8  an_OBT        1  bet   O2       8   -0.530000  
    9  an_SBT        1  bet   S2       9    1.020000  
   10  an_OBT        1  bet   O3      10   -0.530000  
   11  an_OBT        1  bet   O4      11   -0.530000  
   12  an_C1F        1  bet   C3      12    0.190000  
   13  an_CEF        1  bet   C4      13    0.360000  
   14  an_F1         1  bet   F3      14   -0.160000  
   15  an_F1         1  bet   F4      15   -0.160000  
   16  an_F          1  bet   F5      16   -0.120000  
   17  an_F          1  bet   F6      17   -0.120000  
   18  an_F          1  bet   F7      18   -0.120000  
   19  an_F          1  bet   F8      19   -0.120000  
   20  an_F          1  bet   F9      20   -0.120000  
   21  an_F          1  bet   F10     21   -0.120000  

[ bonds ]
;  ai    aj   func    b0        kb
    2     1      1    0.15290   224260.0
    3     1      1    0.13230   369800.0
    4     1      1    0.13230   369800.0
    5     1      1    0.18180   195000.0
    6     5      1    0.15700   313700.0
    7     5      1    0.14370   533100.0
    8     5      1    0.14370   533100.0
    9     6      1    0.15700   313700.0
   10     9      1    0.14370   533100.0
   11     9      1    0.14370   533100.0
   12     9      1    0.18180   195000.0
   13    12      1    0.15290   224260.0
   14    12      1    0.13230   369800.0
   15    12      1    0.13230   369800.0
   16    13      1    0.13320   307110.0
   17    13      1    0.13320   307110.0
   18    13      1    0.13320   307110.0
   19     2      1    0.13320   307110.0
   20     2      1    0.13320   307110.0
   21     2      1    0.13320   307110.0

[ constraints ]
;  ai    aj   func    b0

[ pairs ]
;   ai   aj   func
    1     9      1
    2     6      1
    2     7      1
    2     8      1
    3     6      1
    3     7      1
    3     8      1
    3    19      1
    3    20      1
    3    21      1
    4     6      1
    4     7      1
    4     8      1
    4    19      1
    4    20      1
    4    21      1
    5    10      1
    5    11      1
    5    12      1
    5    19      1
    5    20      1
    5    21      1
    6    13      1
    6    14      1
    6    15      1
    7     9      1
    8     9      1
    9    16      1
    9    17      1
    9    18      1
   10    13      1
   10    14      1
   10    15      1
   11    13      1
   11    14      1
   11    15      1
   14    16      1
   14    17      1
   14    18      1
   15    16      1
   15    17      1
   15    18      1

[ angles ]
;  ai    aj    ak   func    th0        cth
    2     1     3      1    109.500    418.400
    2     1     4      1    109.500    418.400
    2     1     5      1    115.900    418.400
    3     1     4      1    107.100    781.000
    3     1     5      1    111.700    694.000
    4     1     5      1    111.700    694.000
    1     2    19      1    109.500    418.400
    1     2    20      1    109.500    418.400
    1     2    21      1    109.500    418.400
   19     2    20      1    109.100    644.300
   19     2    21      1    109.100    644.300
   20     2    21      1    109.100    644.300
    1     5     6      1    103.500    764.000
    1     5     7      1    102.600    870.000
    1     5     8      1    102.600    870.000
    6     5     7      1    113.600    789.000
    6     5     8      1    113.600    789.000
    7     5     8      1    118.500    969.000
    5     6     9      1    125.600    671.000
    6     9    10      1    113.600    789.000
    6     9    11      1    113.600    789.000
    6     9    12      1    103.500    764.000
   10     9    11      1    118.500    969.000
   10     9    12      1    102.600    870.000
   11     9    12      1    102.600    870.000
    9    12    13      1    115.900    418.400
    9    12    14      1    111.700    694.000
    9    12    15      1    111.700    694.000
   13    12    14      1    109.500    418.400
   13    12    15      1    109.500    418.400
   14    12    15      1    107.100    781.000
   12    13    16      1    109.500    418.400
   12    13    17      1    109.500    418.400
   12    13    18      1    109.500    418.400
   16    13    17      1    109.100    644.300
   16    13    18      1    109.100    644.300
   17    13    18      1    109.100    644.300

[ dihedrals ]
;  ai    aj    ak    al   func    coefficients
   19     2     1     3      5  -10.46000   0.00000   1.04600   0.00000
   19     2     1     4      5  -10.46000   0.00000   1.04600   0.00000
   19     2     1     5      5    0.00000   0.00000   1.45300   0.00000
   20     2     1     3      5  -10.46000   0.00000   1.04600   0.00000
   20     2     1     4      5  -10.46000   0.00000   1.04600   0.00000
   20     2     1     5      5    0.00000   0.00000   1.45300   0.00000
   21     2     1     3      5  -10.46000   0.00000   1.04600   0.00000
   21     2     1     4      5  -10.46000   0.00000   1.04600   0.00000
   21     2     1     5      5    0.00000   0.00000   1.45300   0.00000
    6     5     1     2      5   -3.09400   0.00000   0.00000   0.00000
    6     5     1     3      5    0.00000   0.00000   1.32200   0.00000
    6     5     1     4      5    0.00000   0.00000   1.32200   0.00000
    7     5     1     2      5    0.00000   0.00000  -0.74000   0.00000
    7     5     1     3      5    0.00000   0.00000   1.45100   0.00000
    7     5     1     4      5    0.00000   0.00000   1.45100   0.00000
    8     5     1     2      5    0.00000   0.00000  -0.74000   0.00000
    8     5     1     3      5    0.00000   0.00000   1.45100   0.00000
    8     5     1     4      5    0.00000   0.00000   1.45100   0.00000
    9     6     5     1      5   32.77300 -10.42000  -3.19500   0.00000
    9     6     5     7      5    0.00000   0.00000  -0.01500   0.00000
    9     6     5     8      5    0.00000   0.00000  -0.01500   0.00000
   10     9     6     5      5    0.00000   0.00000  -0.01500   0.00000
   11     9     6     5      5    0.00000   0.00000  -0.01500   0.00000
   12     9     6     5      5   32.77300 -10.42000  -3.19500   0.00000
   13    12     9     6      5   -3.09400   0.00000   0.00000   0.00000
   13    12     9    10      5    0.00000   0.00000  -0.74000   0.00000
   13    12     9    11      5    0.00000   0.00000  -0.74000   0.00000
   14    12     9     6      5    0.00000   0.00000   1.32200   0.00000
   14    12     9    10      5    0.00000   0.00000   1.45100   0.00000
   14    12     9    11      5    0.00000   0.00000   1.45100   0.00000
   15    12     9     6      5    0.00000   0.00000   1.32200   0.00000
   15    12     9    10      5    0.00000   0.00000   1.45100   0.00000
   15    12     9    11      5    0.00000   0.00000   1.45100   0.00000
   16    13    12     9      5    0.00000   0.00000   1.45300   0.00000
   16    13    12    14      5  -10.46000   0.00000   1.04600   0.00000
   16    13    12    15      5  -10.46000   0.00000   1.04600   0.00000
   17    13    12     9      5    0.00000   0.00000   1.45300   0.00000
   17    13    12    14      5  -10.46000   0.00000   1.04600   0.00000
   17    13    12    15      5  -10.46000   0.00000   1.04600   0.00000
   18    13    12     9      5    0.00000   0.00000   1.45300   0.00000
   18    13    12    14      5  -10.46000   0.00000   1.04600   0.00000
   18    13    12    15      5  -10.46000   0.00000   1.04600   0.00000
