; BF4 -- ion parameters for the ht1000 campaign
; assembled by build_ion_ff.py; charges UNSCALED (ECC scaling applied at run-build time)

[ atomtypes ]
;  name       at.nr   mass    charge  ptype  sigma(nm)   epsilon(kJ/mol)
  an_B              5   10.8110    0.8276  A  3.58140e-01 3.97480e-01
  an_F              9   18.9980   -0.4569  A  3.11810e-01 2.51040e-01

[ moleculetype ]
; name  nrexcl
an   3

[ atoms ]
;  nr    type  resnr  residue  atom  cgnr    charge      mass
    1  an_B          1  bf4   B        1    0.827600  10.811
    2  an_F          1  bf4   F        1   -0.456900  18.998
    3  an_F          1  bf4   F        1   -0.456900  18.998
    4  an_F          1  bf4   F        1   -0.456900  18.998
    5  an_F          1  bf4   F        1   -0.456900  18.998

[ bonds ]
;   ai   aj funct  c0(nm)   c1(kJ mol-1 nm-2) ro(Ang.) kr(kcal mol-1 Ang.-2)
1    2    1    0.1394    323500    ;    1.394    386.59   B-F
1    3    1    0.1394    323500    ;    1.394    386.59   B-F
1    4    1    0.1394    323500    ;    1.394    386.59   B-F
1    5    1    0.1394    323500    ;    1.394    386.59   B-F

[ angles ]
;   ai   aj   ak funct  c0(deg) c1(kJ mol-1 rad-2) c0(deg) c1(kcal mol-1 rad-2)
3    1    2    1    109.47    669.5    ;    109.47    80    F-B-F
4    1    2    1    109.47    669.5    ;    109.47    80    F-B-F
4    1    3    1    109.47    669.5    ;    109.47    80    F-B-F
5    1    2    1    109.47    669.5    ;    109.47    80    F-B-F
5    1    3    1    109.47    669.5    ;    109.47    80    F-B-F
5    1    4    1    109.47    669.5    ;    109.47    80    F-B-F
