; BNZ -- ion parameters for the ht1000 campaign
; assembled by build_ion_ff.py; charges UNSCALED (ECC scaling applied at run-build time)

[ atomtypes ]
;  name       at.nr   mass    charge  ptype  sigma(nm)   epsilon(kJ/mol)
  an_CF             6   12.0110   -0.1000  A  3.55000e-01 2.92880e-01
  an_CY             6   12.0110   -0.1150  A  3.55000e-01 2.92880e-01
  an_C              6   12.0110    0.7000  A  3.75000e-01 4.39320e-01
  an_HY             1    1.0080    0.1150  A  2.42000e-01 1.25520e-01
  an_O2             8   15.9990   -0.8000  A  2.96000e-01 8.78640e-01

[ moleculetype ]
; name  nrexcl
an   3

[ atoms ]
;  nr    type  resnr  residue  atom  cgnr    charge      mass
    1  an_CF         1  bnz   C1       1   -0.100000  12.011
    2  an_CY         1  bnz   C2       1   -0.115000  12.011
    3  an_CY         1  bnz   C3       1   -0.115000  12.011
    4  an_CY         1  bnz   C4       1   -0.115000  12.011
    5  an_CY         1  bnz   C5       1   -0.115000  12.011
    6  an_CY         1  bnz   C6       1   -0.115000  12.011
    7  an_C          1  bnz   C7       1    0.700000  12.011
    8  an_HY         1  bnz   H2       1    0.115000  1.008
    9  an_HY         1  bnz   H3       1    0.115000  1.008
   10  an_HY         1  bnz   H4       1    0.115000  1.008
   11  an_HY         1  bnz   H5       1    0.115000  1.008
   12  an_HY         1  bnz   H6       1    0.115000  1.008
   13  an_O2         1  bnz   O7A      1   -0.800000  15.999
   14  an_O2         1  bnz   O7B      1   -0.800000  15.999

[ bonds ]
;   ai   aj  funct  c0(nm)  c1(kJ mol-1 nm-2) ro(Ang.) kr(kcal mol-1 Ang.-2)
1    2    1    0.140    392459.2    ;    1.4     469    CF-CY
1    3    1    0.140    392459.2    ;    1.4     469    CF-CY
1    7    1    0.149    334720.0    ;    1.49    400    C-CF
2    4    1    0.140    392459.2    ;    1.4     469    CY-CY
2    8    1    0.108    307105.6    ;    1.08    367    CY-HY
3    5    1    0.140    392459.2    ;    1.4     469    CY-CY
3    9    1    0.108    307105.6    ;    1.08    367    CY-HY
4    6    1    0.140    392459.2    ;    1.4     469    CY-CY
4    10   1    0.108    307105.6    ;    1.08    367    CY-HY
5    6    1    0.140    392459.2    ;    1.4     469    CY-CY
5    11   1    0.108    307105.6    ;    1.08    367    CY-HY
6    12   1    0.108    307105.6    ;    1.08    367    CY-HY
7    13   1    0.125    548940.8    ;    1.25    656    C-O2
7    14   1    0.125    548940.8    ;    1.25    656    C-O2

[ angles ]
;   ai   aj   ak funct  c0(deg) c1(kJ mol-1 rad-2) c0(deg) c1(kcal mol-1 rad-2)
1    2    4    1    117    527.184    ;    117    63    CF-CY-CY
1    2    8    1    120    292.880    ;    120    35    CF-CY-HY
1    3    5    1    120    527.184    ;    120    63    CF-CY-CY
1    3    9    1    120    292.880    ;    120    35    CF-CY-HY
1    7    13   1    117    585.760    ;    117    70    CF-C-O2
1    7    14   1    117    585.760    ;    117    70    CF-C-O2
2    1    3    1    120    527.184    ;    120    63    CY-CF-CY
2    1    7    1    120    711.280    ;    120    85    C-CF-CY
2    4    6    1    120    527.184    ;    120    63    CY-CY-CY
2    4    10   1    120    292.880    ;    120    35    CY-CY-HY
3    1    7    1    120    711.280    ;    120    85    C-CF-CY
3    5    6    1    120    527.184    ;    120    63    CY-CY-CY
3    5    11   1    120    292.880    ;    120    35    CY-CY-HY
4    2    8    1    120    292.880    ;    120    35    CY-CY-HY
4    6    5    1    120    527.184    ;    120    63    CY-CY-CY
4    6    12   1    120    292.880    ;    120    35    CY-CY-HY
5    6    12   1    120    292.880    ;    120    35    CY-CY-HY
5    3    9    1    120    292.880    ;    120    35    CY-CY-HY
6    5    11   1    120    292.880    ;    120    35    CY-CY-HY
6    4    10   1    120    292.880    ;    120    35    CY-CY-HY
13   7    14   1    126    669.440    ;    126    80    O2-C-O2

[ dihedrals ]
;   ai   aj   ak   al  funct  c0       c1        c2    c3(kJ/mol) ;    V1    V2    V3    V4  (kcal/mol)
1    2    4    6    5    0.000    30.334    0.000    0.000    ;    0    7.25    0    0    CF-CY-CY-CY
1    2    4    10   5    0.000    30.334    0.000    0.000    ;    0    7.25    0    0    CF-CY-CY-HY
1    3    5    6    5    0.000    30.334    0.000    0.000    ;    0    7.25    0    0    CF-CY-CY-CY
1    3    5    11   5    0.000    30.334    0.000    0.000    ;    0    7.25    0    0    CF-CY-CY-HY
1    7    13   14   5    0.000    87.864    0.000    0.000    ;    0    21      0    0    CF-C-O2-O2  improper
1    7    14   13   5    0.000    87.864    0.000    0.000    ;    0    21      0    0    CF-C-O2-O2  improper
2    1    3    5    5    0.000    30.334    0.000    0.000    ;    0    7.25    0    0    CY-CF-CY-CY
2    1    3    9    5    0.000    30.334    0.000    0.000    ;    0    7.25    0    0    CY-CF-CY-HY
2    1    7    13   5    0.000    8.786     0.000    0.000    ;    0    2.1     0    0    CY-CF-C-O2
2    1    7    14   5    0.000    8.786     0.000    0.000    ;    0    2.1     0    0    CY-CF-C-O2
2    4    6    5    5    0.000    30.334    0.000    0.000    ;    0    7.25    0    0    CY-CY-CY-CY
2    4    6    12   5    0.000    30.334    0.000    0.000    ;    0    7.25    0    0    CY-CY-CY-HY
3    1    2    4    5    0.000    30.334    0.000    0.000    ;    0    7.25    0    0    CY-CF-CY-CY
3    1    2    8    5    0.000    30.334    0.000    0.000    ;    0    7.25    0    0    CY-CF-CY-HY
3    1    7    13   5    0.000    8.786     0.000    0.000    ;    0    2.1     0    0    CY-CF-C-O2
3    1    7    14   5    0.000    8.786     0.000    0.000    ;    0    2.1     0    0    CY-CF-C-O2
3    5    6    4    5    0.000    30.334    0.000    0.000    ;    0    7.25    0    0    CY-CY-CY-CY
3    5    6    12   5    0.000    30.334    0.000    0.000    ;    0    7.25    0    0    CY-CY-CY-HY
4    2    1    7    5    0.000    30.334    0.000    0.000    ;    0    7.25    0    0    CY-CF-CY-C
4    6    5    11   5    0.000    30.334    0.000    0.000    ;    0    7.25    0    0    CY-CY-CY-HY
5    6    4    10   5    0.000    30.334    0.000    0.000    ;    0    7.25    0    0    CY-CY-CY-HY
5    3    1    7    5    0.000    30.334    0.000    0.000    ;    0    7.25    0    0    CY-CF-CY-C
6    5    3    9    5    0.000    30.334    0.000    0.000    ;    0    7.25    0    0    CY-CY-CY-HY
6    4    2    8    5    0.000    30.334    0.000    0.000    ;    0    7.25    0    0    CY-CY-CY-HY

[ pairs ]
; generated from the bond graph (3-bond separation);
; the OPLS-2009IL distribution omits this section
    1     6     1
    1    10     1
    1    11     1
    2     5     1
    2     9     1
    2    12     1
    2    13     1
    2    14     1
    3     4     1
    3     8     1
    3    12     1
    3    13     1
    3    14     1
    4     7     1
    4    11     1
    5     7     1
    5    10     1
    6     8     1
    6     9     1
    7     8     1
    7     9     1
    8    10     1
    9    11     1
   10    12     1
   11    12     1
