; FSI -- ion parameters for the ht1000 campaign
; assembled by build_ion_ff.py; charges UNSCALED (ECC scaling applied at run-build time)

[ atomtypes ]
;  name       at.nr   mass    charge  ptype  sigma(nm)   epsilon(kJ/mol)
  an_FSI            9   18.9980   -0.1300  A  3.11800e-01 2.55400e-01
  an_NBT            7   14.0000   -0.6600  A  3.25000e-01 7.11280e-01
  an_OBT            8   15.9990   -0.5300  A  3.15000e-01 8.37360e-01
  an_SBT           16   32.0660    1.0200  A  3.55000e-01 1.04600e+00

[ moleculetype ]
; name  nrexcl
an   3

[ atoms ]
;  nr    type  resnr  residue  atom  cgnr    charge      mass
    1  an_FSI     1  fsi   F1       1   -0.130000  
    2  an_SBT     1  fsi   S1       2    1.020000  
    3  an_NBT     1  fsi   N        3   -0.660000  
    4  an_OBT     1  fsi   O1       4   -0.530000  
    5  an_OBT     1  fsi   O2       5   -0.530000  
    6  an_SBT     1  fsi   S2       6    1.020000  
    7  an_OBT     1  fsi   O3       7   -0.530000  
    8  an_OBT     1  fsi   O4       8   -0.530000  
    9  an_FSI     1  fsi   F2       9   -0.130000  

[ bonds ]
;  ai    aj   func    b0        kb
    2     1      1    0.15750   187900.0
    3     2      1    0.15700   313700.0
    4     2      1    0.14370   533100.0
    5     2      1    0.14370   533100.0
    6     3      1    0.15700   313700.0
    7     6      1    0.14370   533100.0
    8     6      1    0.14370   533100.0
    9     6      1    0.15750   187900.0

[ constraints ]
;  ai    aj   func    b0

[ pairs ]
;   ai   aj   func
    1     6      1
    2     7      1
    2     8      1
    2     9      1
    4     6      1
    5     6      1

[ angles ]
;  ai    aj    ak   func    th0        cth
    1     2     3      1    103.000    902.000
    1     2     4      1    104.100   1077.000
    1     2     5      1    104.100   1077.000
    3     2     4      1    113.600    789.000
    3     2     5      1    113.600    789.000
    4     2     5      1    118.500    969.000
    2     3     6      1    125.600    671.000
    3     6     7      1    113.600    789.000
    3     6     8      1    113.600    789.000
    3     6     9      1    103.000    902.000
    7     6     8      1    118.500    969.000
    7     6     9      1    104.100   1077.000
    8     6     9      1    104.100   1077.000

[ dihedrals ]
;  ai    aj    ak    al   func    coefficients
    6     3     2     1      5   11.44500 -15.18600  -3.21200   0.00000
    6     3     2     4      5    0.00000   0.00000  -0.01500   0.00000
    6     3     2     5      5    0.00000   0.00000  -0.01500   0.00000
    7     6     3     2      5    0.00000   0.00000  -0.01500   0.00000
    8     6     3     2      5    0.00000   0.00000  -0.01500   0.00000
    9     6     3     2      5   11.44500 -15.18600  -3.21200   0.00000
