; MS -- ion parameters for the ht1000 campaign
; assembled by build_ion_ff.py; charges UNSCALED (ECC scaling applied at run-build time)

[ atomtypes ]
;  name       at.nr   mass    charge  ptype  sigma(nm)   epsilon(kJ/mol)
  an_C              6   12.0110    0.1905  A  3.50000e-01 2.76144e-01
  an_HC             1    1.0080   -0.0101  A  2.50000e-01 1.25520e-01
  an_S             16   32.0600    1.2501  A  3.55000e-01 1.04600e+00
  an_O              8   15.9990   -0.6584  A  3.15000e-01 8.36800e-01
  an_OS             8   15.9990   -0.4351  A  3.00000e-01 7.11280e-01

[ moleculetype ]
; name  nrexcl
an   3

[ atoms ]
;  nr    type  resnr  residue  atom  cgnr    charge      mass
    1  an_OS         1  ms    O1       1   -0.435100  15.999
    2  an_S          1  ms    S1       1    1.250100  32.06
    3  an_C          1  ms    C1       1    0.190500  12.011
    4  an_O          1  ms    O1A      1   -0.658400  15.999
    5  an_O          1  ms    O1B      1   -0.658400  15.999
    6  an_O          1  ms    O1C      1   -0.658400  15.999
    7  an_HC         1  ms    H1A      1   -0.010100  1.008
    8  an_HC         1  ms    H1B      1   -0.010100  1.008
    9  an_HC         1  ms    H1C      1   -0.010100  1.008

[ bonds ]
;   ai   aj funct c0(nm)  c1(kJ mol-1 nm-2)  ro(Ang.) kr(kcal mol-1 Ang.-2)
1    2    1    0.158    251040    ;    1.58    300    S-OS
1    3    1    0.142    251040    ;    1.42    300    C-OS
2    4    1    0.146    376560    ;    1.46    450    S-O
2    5    1    0.146    376560    ;    1.46    450    S-O
2    6    1    0.146    376560    ;    1.46    450    S-O
3    7    1    0.109    284512    ;    1.09    340    C-HC
3    8    1    0.109    284512    ;    1.09    340    C-HC
3    9    1    0.109    284512    ;    1.09    340    C-HC

[ angles ]
;   ai   aj   ak funct c0(deg)  c1(kJ mol-1 rad-2) c0(deg) c1(kcal mol-1 rad-2)
1    2    4    1    102.6    426.768    ;    102.6    51    OS-S-O
1    2    5    1    102.6    426.768    ;    102.6    51    OS-S-O
1    2    6    1    102.6    426.768    ;    102.6    51    OS-S-O
1    3    7    1    109.5    292.880    ;    109.5    35    OS-C-HC
1    3    8    1    109.5    292.880    ;    109.5    35    OS-C-HC
1    3    9    1    109.5    292.880    ;    109.5    35    OS-C-HC
2    1    3    1    112.6    519.653    ;    112.6    62.1  S-OS-C
4    2    5    1    115.4    426.768    ;    115.4    51    O-S-O
4    2    6    1    115.4    426.768    ;    115.4    51    O-S-O
5    2    6    1    115.4    426.768    ;    115.4    51    O-S-O
7    3    8    1    107.8    276.144    ;    107.8    33    HC-C-HC
7    3    9    1    107.8    276.144    ;    107.8    33    HC-C-HC
8    3    9    1    107.8    276.144    ;    107.8    33    HC-C-HC

[ dihedrals ]
;   ai   aj   ak  al funct     c0        c1        c2    c3(kJ/mol)  ;    V1   V2   V3      V4  (kcal/mol)
2    1    3    7    5    0.0000    0.0000    2.3347    0.0000    ;    0    0    0.558    0    S-OS-C-HC
2    1    3    8    5    0.0000    0.0000    2.3347    0.0000    ;    0    0    0.558    0    S-OS-C-HC
2    1    3    9    5    0.0000    0.0000    2.3347    0.0000    ;    0    0    0.558    0    S-OS-C-HC
3    1    2    4    5    0.0000    0.0000    0.0000    0.0000    ;    0    0    0        0    C-OS-S-O
3    1    2    5    5    0.0000    0.0000    0.0000    0.0000    ;    0    0    0        0    C-OS-S-O
3    1    2    6    5    0.0000    0.0000    0.0000    0.0000    ;    0    0    0        0    C-OS-S-O
4    2    1    5    5    0.0000    0.0000    0.0000    0.0000    ;    0    0    0        0    O-S-OS-O  improper
4    2    1    6    5    0.0000    0.0000    0.0000    0.0000    ;    0    0    0        0    O-S-OS-O  improper
5    2    1    6    5    0.0000    0.0000    0.0000    0.0000    ;    0    0    0        0    O-S-OS-O  improper
7    3    1    8    5    0.0000    87.864    0.0000    0.0000    ;    0    21   0        0    HC-C-OS-HC  improper
7    3    1    9    5    0.0000    87.864    0.0000    0.0000    ;    0    21   0        0    HC-C-OS-HC  improper
8    3    1    9    5    0.0000    87.864    0.0000    0.0000    ;    0    21   0        0    HC-C-OS-HC  improper

[ pairs ]
; generated from the bond graph (3-bond separation);
; the OPLS-2009IL distribution omits this section
    2     7     1
    2     8     1
    2     9     1
    3     4     1
    3     5     1
    3     6     1
