; NO3 -- ion parameters for the ht1000 campaign
; assembled by build_ion_ff.py; charges UNSCALED (ECC scaling applied at run-build time)

[ atomtypes ]
;  name       at.nr   mass    charge  ptype  sigma(nm)   epsilon(kJ/mol)
  an_N              7   14.0070    0.7940  A  3.15000e-01 7.11280e-01
  an_O              8   15.9990   -0.5980  A  2.86000e-01 8.78640e-01

[ moleculetype ]
; name  nrexcl
an   3

[ atoms ]
;  nr    type  resnr  residue  atom  cgnr    charge      mass
    1  an_N          1  no3   N        1    0.794000  14.007
    2  an_O          1  no3   O        1   -0.598000  15.999
    3  an_O          1  no3   O        1   -0.598000  15.999
    4  an_O          1  no3   O        1   -0.598000  15.999

[ bonds ]
;   ai   aj funct  c0(nm)    c1(kJ mol-1 nm-2) ro(Ang.)  kr(kcal mol-1 Ang.-2)
1    2    1    0.1256    530698.56    ;    1.256    634.2    N-O
1    3    1    0.1256    530698.56    ;    1.256    634.2    N-O
1    4    1    0.1256    530698.56    ;    1.256    634.2    N-O

[ angles ]
;   ai   aj   ak funct c0(deg)  c1(kJ mol-1 rad-2) c0(deg)  c1(kcal mol-1 rad-2)
2    1    3    1    120    1011.022    ;    120    120.82    O-N-O
2    1    4    1    120    1011.022    ;    120    120.82    O-N-O
3    1    4    1    120    1011.022    ;    120    120.82    O-N-O

[ dihedrals ]
;   ai   aj   ak   al funct   c0        c1      c2    c3(kJ/mol) ;   V1   V2   V3   V4(kcal/mol)
2    1    3    4    5    0.000    8.368    0.000    0.000    ;    0    2    0    0    O-N-O-O  improper
3    1    2    4    5    0.000    8.368    0.000    0.000    ;    0    2    0    0    O-N-O-O  improper
4    1    2    3    5    0.000    8.368    0.000    0.000    ;    0    2    0    0    O-N-O-O  improper
