; OTf -- ion parameters for the ht1000 campaign
; assembled by build_ion_ff.py; charges UNSCALED (ECC scaling applied at run-build time)

[ atomtypes ]
;  name       at.nr   mass    charge  ptype  sigma(nm)   epsilon(kJ/mol)
  an_CF             6   12.0110    0.2692  A  3.50000e-01 2.76144e-01
  an_SB            16   32.0600    1.1887  A  3.55000e-01 1.04600e+00
  an_FB             9   18.9980   -0.1637  A  2.95000e-01 2.21752e-01
  an_OB             8   15.9990   -0.6556  A  2.96000e-01 8.78640e-01

[ moleculetype ]
; name  nrexcl
an   3

[ atoms ]
;  nr    type  resnr  residue  atom  cgnr    charge      mass
    1  an_CF         1  otf   CF       1    0.269200  12.011
    2  an_SB         1  otf   SB       1    1.188700  32.06
    3  an_FB         1  otf   FB       1   -0.163700  18.998
    4  an_FB         1  otf   FB       1   -0.163700  18.998
    5  an_FB         1  otf   FB       1   -0.163700  18.998
    6  an_OB         1  otf   OB       1   -0.655600  15.999
    7  an_OB         1  otf   OB       1   -0.655600  15.999
    8  an_OB         1  otf   OB       1   -0.655600  15.999

[ bonds ]
;   ai   aj funct  c0(nm)   c1(kJ mol-1 nm-2) ro(Ang.)  kr(kcal mol-1 Ang.-2)
1    2    1    0.1818    195000    ;    1.818    233.03    CF-SB
1    3    1    0.1323    369800    ;    1.323    441.92    CF-FB
1    4    1    0.1323    369800    ;    1.323    441.92    CF-FB
1    5    1    0.1323    369800    ;    1.323    441.92    CF-FB
2    6    1    0.1437    533100    ;    1.437    637.07    SB-OB
2    7    1    0.1437    533100    ;    1.437    637.07    SB-OB
2    8    1    0.1437    533100    ;    1.437    637.07    SB-OB

[ angles ]
;   ai   aj   ak funct  c0(deg) c1(kJ mol-1 rad-2) c0(deg)  c1(kcal mol-1 rad-2)
5    1    3    1    107.1    781    ;    107.1    93.33     FB-CF-FB
5    1    4    1    107.1    781    ;    107.1    93.33     FB-CF-FB
3    1    4    1    107.1    781    ;    107.1    93.33     FB-CF-FB
5    1    2    1    111.7    694    ;    111.7    82.93     FB-CF-SB
3    1    2    1    111.7    694    ;    111.7    82.93     FB-CF-SB
4    1    2    1    111.7    694    ;    111.7    82.93     FB-CF-SB
8    2    7    1    118.5    969    ;    118.5    115.80    OB-SB-OB
8    2    6    1    118.5    969    ;    118.5    115.80    OB-SB-OB
7    2    6    1    118.5    969    ;    118.5    115.80    OB-SB-OB
1    2    6    1    102.6    870    ;    102.6    103.97    CF-SB-OB
1    2    7    1    102.6    870    ;    102.6    103.97    CF-SB-OB
1    2    8    1    102.6    870    ;    102.6    103.97    CF-SB-OB

[ dihedrals ]
;   ai   aj   ak   al funct   c0       c1       c2    c3(kJ/mol) ;    V1   V2    V3     V4  (kcal/mol)
6    2    1    3    5    0.000    0.000    1.451    0.000    ;    0    0    0.347    0    OB-SB-CF-FB
6    2    1    4    5    0.000    0.000    1.451    0.000    ;    0    0    0.347    0    OB-SB-CF-FB
6    2    1    5    5    0.000    0.000    1.451    0.000    ;    0    0    0.347    0    OB-SB-CF-FB
7    2    1    3    5    0.000    0.000    1.451    0.000    ;    0    0    0.347    0    OB-SB-CF-FB
7    2    1    4    5    0.000    0.000    1.451    0.000    ;    0    0    0.347    0    OB-SB-CF-FB
7    2    1    5    5    0.000    0.000    1.451    0.000    ;    0    0    0.347    0    OB-SB-CF-FB
8    2    1    3    5    0.000    0.000    1.451    0.000    ;    0    0    0.347    0    OB-SB-CF-FB
8    2    1    4    5    0.000    0.000    1.451    0.000    ;    0    0    0.347    0    OB-SB-CF-FB
8    2    1    5    5    0.000    0.000    1.451    0.000    ;    0    0    0.347    0    OB-SB-CF-FB

[ pairs ]
; generated from the bond graph (3-bond separation);
; the OPLS-2009IL distribution omits this section
    3     6     1
    3     7     1
    3     8     1
    4     6     1
    4     7     1
    4     8     1
    5     6     1
    5     7     1
    5     8     1
