; SCN -- ion parameters for the ht1000 campaign
; assembled by build_ion_ff.py; charges UNSCALED (ECC scaling applied at run-build time)

[ atomtypes ]
;  name       at.nr   mass    charge  ptype  sigma(nm)   epsilon(kJ/mol)
  an_NZ             7   14.0070   -0.6452  A  3.20000e-01 7.11280e-01
  an_CZ             6   12.0110    0.3263  A  3.30000e-01 2.76144e-01
  an_S             16   32.0600   -0.6811  A  3.55000e-01 1.04600e+00

[ moleculetype ]
; name  nrexcl
an   3

[ atoms ]
;  nr    type  resnr  residue  atom  cgnr    charge      mass
    1  an_NZ         1  scn   NZ       1   -0.645200  14.007
    2  an_CZ         1  scn   CZ       1    0.326300  12.011
    3  an_S          1  scn   S        1   -0.681100  32.06

[ bonds ]
;   ai   aj funct  c0(nm)   c1(kJ mol-1 nm-2) ro(Ang.)  kr(kcal mol-1 Ang.-2)
1    2    1    0.1157    543920.000    ;    1.157    650       CZ-NZ
2    3    1    0.1655    197727.470    ;    1.655    236.29    CZ-S

[ angles ]
;   ai   aj   ak  funct c0(deg) c1(kJ mol-1 rad-2)  c0(deg c1(kcal mol-1 rad-2)
1    2    3    1    180    1255.2    ;    180    150    S-CZ-NZ
