; TFA -- ion parameters for the ht1000 campaign
; assembled by build_ion_ff.py; charges UNSCALED (ECC scaling applied at run-build time)

[ atomtypes ]
;  name       at.nr   mass    charge  ptype  sigma(nm)   epsilon(kJ/mol)
  an_CFA            6   12.0110    0.4000  A  3.50000e-01 2.76140e-01
  an_FFA            9   18.9980   -0.2000  A  2.95000e-01 2.21750e-01
  an_CO2            6   12.0110    0.7000  A  3.75000e-01 4.39320e-01
  an_O2F            8   15.9990   -0.7500  A  2.96000e-01 8.78640e-01

[ moleculetype ]
; name  nrexcl
an   3

[ atoms ]
;  nr    type  resnr  residue  atom  cgnr    charge      mass
    1  an_CFA        1  tfa   C1       1    0.400000  
    2  an_FFA        1  tfa   F1       2   -0.200000  
    3  an_FFA        1  tfa   F2       3   -0.200000  
    4  an_FFA        1  tfa   F3       4   -0.200000  
    5  an_CO2        1  tfa   C2       5    0.700000  
    6  an_O2F        1  tfa   O1       6   -0.750000  
    7  an_O2F        1  tfa   O2       7   -0.750000  

[ bonds ]
;  ai    aj   func    b0        kb
    2     1      1    0.13320   307110.0
    3     1      1    0.13320   307110.0
    4     1      1    0.13320   307110.0
    5     1      1    0.15220   265300.0
    6     5      1    0.12500   548900.0
    7     5      1    0.12500   548900.0

[ constraints ]
;  ai    aj   func    b0

[ pairs ]
;   ai   aj   func
    2     6      1
    2     7      1
    3     6      1
    3     7      1
    4     6      1
    4     7      1

[ angles ]
;  ai    aj    ak   func    th0        cth
    2     1     3      1    109.100    644.300
    2     1     4      1    109.100    644.300
    2     1     5      1    109.500    418.400
    3     1     4      1    109.100    644.300
    3     1     5      1    109.500    418.400
    4     1     5      1    109.500    418.400
    1     5     6      1    117.000    585.800
    1     5     7      1    117.000    585.800
    6     5     7      1    126.000    669.400

[ dihedrals ]
;  ai    aj    ak    al   func    coefficients
    6     5     1     2      5    0.00000   0.00000   0.00000   0.00000
    6     5     1     3      5    0.00000   0.00000   0.00000   0.00000
    6     5     1     4      5    0.00000   0.00000   0.00000   0.00000
    7     5     1     2      5    0.00000   0.00000   0.00000   0.00000
    7     5     1     3      5    0.00000   0.00000   0.00000   0.00000
    7     5     1     4      5    0.00000   0.00000   0.00000   0.00000
    1     6     5     7      5    0.00000  87.86400   0.00000   0.00000
