; TFSI -- ion parameters for the ht1000 campaign
; assembled by build_ion_ff.py; charges UNSCALED (ECC scaling applied at run-build time)

[ atomtypes ]
;  name       at.nr   mass    charge  ptype  sigma(nm)   epsilon(kJ/mol)
  an_F1             9   18.9980   -0.1600  A  2.95000e-01 2.21750e-01
  an_CBT            6   12.0110    0.3500  A  3.50000e-01 2.76140e-01
  an_SBT           16   32.0660    1.0200  A  3.55000e-01 1.04600e+00
  an_OBT            8   15.9990   -0.5300  A  2.96000e-01 8.78640e-01
  an_NBT            7   14.0000   -0.6600  A  3.25000e-01 7.11280e-01

[ moleculetype ]
; name  nrexcl
an   3

[ atoms ]
;  nr    type  resnr  residue  atom  cgnr    charge      mass
    1  an_NBT        1  tfs   NBT      1   -0.660000  14.000
    2  an_SBT        1  tfs   SBT      2    1.020000  32.066
    3  an_SBT        1  tfs   SBT      3    1.020000  32.066
    4  an_OBT        1  tfs   OBT      3   -0.530000  15.999
    5  an_CBT        1  tfs   CBT      4    0.350000  12.011
    6  an_OBT        1  tfs   OBT      3   -0.530000  15.999
    7  an_OBT        1  tfs   OBT      2   -0.530000  15.999
    8  an_OBT        1  tfs   OBT      2   -0.530000  15.999
    9  an_F1         1  tfs   F1       4   -0.160000  18.998
   10  an_F1         1  tfs   F1       4   -0.160000  18.998
   11  an_F1         1  tfs   F1       4   -0.160000  18.998
   12  an_CBT        1  tfs   CBT      5    0.350000  12.011
   13  an_F1         1  tfs   F1       5   -0.160000  18.998
   14  an_F1         1  tfs   F1       5   -0.160000  18.998
   15  an_F1         1  tfs   F1       5   -0.160000  18.998

[ bonds ]
;   ai   aj funct   c0(nm)  c1(kJ mol-1 nm-2) ro(Ang.) kr(kcal mol-1 Ang.-2)
1    2    1    0.1570    313700    ;    1.57     374.88    N-S
1    3    1    0.1570    313700    ;    1.57     374.88    N-S
2    7    1    0.1437    533100    ;    1.437    637.07    S-O
2    8    1    0.1437    533100    ;    1.437    637.07    S-O
2    12   1    0.1818    195000    ;    1.818    233.03    S-C
3    4    1    0.1437    533100    ;    1.437    637.07    S-O
3    5    1    0.1818    195000    ;    1.818    233.03    S-C
3    6    1    0.1437    533100    ;    1.437    637.07    S-O
5    9    1    0.1323    369800    ;    1.323    441.92    C-F
5    10   1    0.1323    369800    ;    1.323    441.92    C-F
5    11   1    0.1323    369800    ;    1.323    441.92    C-F
12   13   1    0.1323    369800    ;    1.323    441.92    C-F
12   14   1    0.1323    369800    ;    1.323    441.92    C-F
12   15   1    0.1323    369800    ;    1.323    441.92    C-F

[ angles ]
;   ai    aj   ak funct  c0(deg)  c1(kJ mol-1 rad-2) c0(deg) c1(kcal mol-1 rad-2)
1     2    7     1    113.6    789    ;    113.6    94.29    N-S-O
1     2    8     1    113.6    789    ;    113.6    94.29    N-S-O
1     2    12    1    103.5    764    ;    103.5    91.30    N-S-C
1     3    4     1    113.6    789    ;    113.6    94.29    N-S-O
1     3    5     1    103.5    764    ;    103.5    91.30    N-S-C
1     3    6     1    113.6    789    ;    113.6    94.29    N-S-O
2     12   13    1    111.7    694    ;    111.7    82.93    S-C-F
2     12   14    1    111.7    694    ;    111.7    82.93    S-C-F
2     12   15    1    111.7    694    ;    111.7    82.93    S-C-F
3     1    2     1    125.6    671    ;    125.6    80.19    S-N-S
3     5    9     1    111.7    694    ;    111.7    82.93    S-C-F
3     5    10    1    111.7    694    ;    111.7    82.93    S-C-F
3     5    11    1    111.7    694    ;    111.7    82.93    S-C-F
5     3    4     1    102.6    870    ;    102.6    103.97   C-S-O
6     3    4     1    118.5    969    ;    118.5    115.80   O-S-O
6     3    5     1    102.6    870    ;    102.6    103.97   O-S-C
8     2    7     1    118.5    969    ;    118.5    115.80   O-S-O
10    5    9     1    107.1    781    ;    107.1    93.33    F-C-F
11    5    9     1    107.1    781    ;    107.1    93.33    F-C-F
11    5    10    1    107.1    781    ;    107.1    93.33    F-C-F
12    2    7     1    102.6    870    ;    102.6    103.97   C-S-O
12    2    8     1    102.6    870    ;    102.6    103.97   C-S-O
14    12   13    1    107.1    781    ;    107.1    93.33    F-C-F
15    12   13    1    107.1    781    ;    107.1    93.33    F-C-F
15    12   14    1    107.1    781    ;    107.1    93.33    F-C-F

[ dihedrals ]
;   ai   aj   ak    al  funct    c0       c1       c2   c3(kJ/mol) ;    V1    V2    V3    V4  (kcal/mol)
1    2    12    13    5    0.000    0.000    1.322    0.000    ;    0    0    0.316    0    N-S-C-F
1    2    12    14    5    0.000    0.000    1.322    0.000    ;    0    0    0.316    0    N-S-C-F
1    2    12    15    5    0.000    0.000    1.322    0.000    ;    0    0    0.316    0    N-S-C-F
1    3    5     9     5    0.000    0.000    1.322    0.000    ;    0    0    0.316    0    N-S-C-F
1    3    5     10    5    0.000    0.000    1.322    0.000    ;    0    0    0.316    0    N-S-C-F
1    3    5     11    5    0.000    0.000    1.322    0.000    ;    0    0    0.316    0    N-S-C-F
2    1    3     4     5    0.000    0.000   -0.015    0.000    ;    0    0   -0.004    0    S-N-S-O
2    1    3     5     5   32.773   -10.42   -3.195    0.000    ; 7.833 -2.49 -0.764    0    S-N-S-C
2    1    3     6     5    0.000    0.000   -0.015    0.000    ;    0    0   -0.004    0    S-N-S-O
3    1    2     7     5    0.000    0.000   -0.015    0.000    ;    0    0   -0.004    0    S-N-S-O
3    1    2     8     5    0.000    0.000   -0.015    0.000    ;    0    0   -0.004    0    S-N-S-O
3    1    2     12    5   32.773   -10.42   -3.195    0.000    ; 7.833 -2.49 -0.764    0    S-N-S-C
4    3    5     9     5    0.000    0.000    1.451    0.000    ;    0    0    0.347    0    O-S-C-F
4    3    5     10    5    0.000    0.000    1.451    0.000    ;    0    0    0.347    0    O-S-C-F
4    3    5     11    5    0.000    0.000    1.451    0.000    ;    0    0    0.347    0    O-S-C-F
6    3    5     9     5    0.000    0.000    1.451    0.000    ;    0    0    0.347    0    O-S-C-F
6    3    5     10    5    0.000    0.000    1.451    0.000    ;    0    0    0.347    0    O-S-C-F
6    3    5     11    5    0.000    0.000    1.451    0.000    ;    0    0    0.347    0    O-S-C-F
7    2    12    13    5    0.000    0.000    1.451    0.000    ;    0    0    0.347    0    O-S-C-F
7    2    12    14    5    0.000    0.000    1.451    0.000    ;    0    0    0.347    0    O-S-C-F
7    2    12    15    5    0.000    0.000    1.451    0.000    ;    0    0    0.347    0    O-S-C-F
8    2    12    13    5    0.000    0.000    1.451    0.000    ;    0    0    0.347    0    O-S-C-F
8    2    12    14    5    0.000    0.000    1.451    0.000    ;    0    0    0.347    0    O-S-C-F
8    2    12    15    5    0.000    0.000    1.451    0.000    ;    0    0    0.347    0    O-S-C-F

[ pairs ]
; generated from the bond graph (3-bond separation);
; the OPLS-2009IL distribution omits this section
    1     9     1
    1    10     1
    1    11     1
    1    13     1
    1    14     1
    1    15     1
    2     4     1
    2     5     1
    2     6     1
    3     7     1
    3     8     1
    3    12     1
    4     9     1
    4    10     1
    4    11     1
    6     9     1
    6    10     1
    6    11     1
    7    13     1
    7    14     1
    7    15     1
    8    13     1
    8    14     1
    8    15     1
