LIGPARGEN GENERATED GRO FILE
   18
    1UNK    O00    1   0.100   0.100   0.000
    1UNK    S01    2  -0.046   0.100   0.000
    1UNK    O02    3  -0.109   0.100   0.132
    1UNK    O03    4  -0.109   0.188  -0.099
    1UNK    C04    5  -0.083  -0.066  -0.063
    1UNK    C05    6  -0.098  -0.172   0.027
    1UNK    C06    7  -0.120  -0.300  -0.022
    1UNK    C07    8  -0.128  -0.324  -0.160
    1UNK    C08    9  -0.147  -0.462  -0.214
    1UNK    C09   10  -0.118  -0.215  -0.248
    1UNK    C0A   11  -0.096  -0.086  -0.200
    1UNK    H0B   12  -0.091  -0.153   0.134
    1UNK    H0C   13  -0.132  -0.382   0.049
    1UNK    H0D   14  -0.148  -0.537  -0.133
    1UNK    H0E   15  -0.064  -0.488  -0.281
    1UNK    H0F   16  -0.241  -0.470  -0.269
    1UNK    H0G   17  -0.128  -0.230  -0.356
    1UNK    H0H   18  -0.088  -0.002  -0.268
   1.00000   1.00000   1.00000

